 Gaussian 16, Revision C.01,
 Gaussian 16:  ES64L-G16RevC.01  3-Jul-2019

 ----------------------------------------------------------------
 # SP B3LYP/def2svp empiricaldispersion=GD3BJ scrf=(solvent=dmso)
 ----------------------------------------------------------------

 -----
 m2_lb
 -----
 Symbolic Z-matrix:
 Charge =  4 Multiplicity = 1

                         Standard orientation:
 ---------------------------------------------------------------------
 Center     Atomic      Atomic             Coordinates (Angstroms)
 Number     Number       Type             X           Y           Z
 ---------------------------------------------------------------------
      1         46           0        9.173969   -0.540003    1.013008
      2         46           0       -9.141030   -1.333027    0.289008
      3          6           0       11.487972   -2.845000   -1.734992
      4          6           0       11.084971   -1.908000   -0.820992
      5          7           0        9.768971   -1.737002   -0.512992
      6          6           0        8.848972   -2.476003   -1.104992
      7          6           0        9.160973   -3.489003   -2.033992
      8          6           0        8.143974   -4.297004   -2.633992
      9          6           0        6.731974   -4.042006   -2.264992
     10          6           0        6.283974   -4.227007   -0.947992
     11          6           0        5.032973   -3.770008   -0.550992
     12          6           0        4.202973   -3.106009   -1.470992
     13          6           0        3.011972   -2.433011   -1.077992
     14          6           0        2.054971   -1.719012   -0.838992
     15          6           0        1.034969   -0.728014   -0.696992
     16          7           0        0.119970   -0.859015    0.271008
     17          6           0       -0.810032    0.096984    0.388008
     18          6           0       -1.790032   -0.010017    1.424008
     19          6           0       -2.694032    0.039981    2.238008
     20          6           0       -3.827032    0.225980    3.079008
     21          6           0       -4.164034    1.527980    3.490008
     22          6           0       -5.371034    1.770978    4.134008
     23          6           0       -6.272033    0.725977    4.377008
     24          6           0       -7.645033    1.021975    4.844008
     25          6           0       -7.901034    1.668975    6.036008
     26          6           0       -9.224034    1.950973    6.447008
     27          6           0      -10.304034    1.593971    5.672008
     28          6           0      -10.091033    0.947972    4.431008
     29          6           0      -11.146032    0.561970    3.565008
     30          6           0      -10.870031   -0.049029    2.370008
     31          7           0       -9.589031   -0.285028    1.973008
     32          6           0       -8.579032    0.076974    2.746008
     33          6           0       -8.756032    0.673973    4.010008
     34          6           0       -5.885031   -0.587023    4.060008
     35          6           0       -4.679030   -0.839021    3.421008
     36          6           0       -0.869033    1.213984   -0.459992
     37          6           0        0.089967    1.347985   -1.455992
     38          6           0        1.059968    0.363986   -1.581992
     39          6           0        4.614972   -3.005009   -2.812992
     40          6           0        5.862973   -3.470007   -3.202992
     41          6           0        8.521975   -5.234004   -3.571992
     42          6           0        9.881976   -5.417002   -3.913992
     43          6           0       10.874975   -4.663001   -3.328992
     44          6           0       10.533973   -3.676001   -2.374992
     45          1           0       12.549972   -2.951998   -1.964992
     46          1           0       11.794970   -1.262999   -0.300992
     47          1           0        7.810971   -2.279005   -0.832992
     48          1           0        6.940975   -4.702006   -0.214992
     49          1           0        4.712974   -3.884009    0.486008
     50          1           0       -3.490035    2.352980    3.247008
     51          1           0       -5.649035    2.793978    4.399008
     52          1           0       -7.067034    1.949976    6.683008
     53          1           0       -9.385035    2.453973    7.403008
     54          1           0      -11.324034    1.803970    5.998008
     55          1           0      -12.183033    0.747969    3.848008
     56          1           0      -11.659031   -0.369030    1.688008
     57          1           0       -7.576031   -0.111025    2.362008
     58          1           0       -6.556030   -1.419024    4.289008
     59          1           0       -4.411029   -1.859021    3.143008
     60          1           0       -1.649034    1.962983   -0.319992
     61          1           0        0.073965    2.231985   -2.099992
     62          1           0        1.826968    0.411987   -2.353992
     63          1           0        3.964972   -2.506010   -3.533992
     64          1           0        6.195973   -3.336007   -4.233992
     65          1           0        7.759976   -5.855005   -4.047992
     66          1           0       10.143977   -6.177002   -4.653992
     67          1           0       11.922975   -4.812999   -3.593992
     68          6           0        8.906974   -4.424003    2.773008
     69          6           0        9.357973   -3.267003    2.196008
     70          7           0        8.531971   -2.202004    2.000008
     71          6           0        7.274971   -2.253005    2.406008
     72          6           0        6.723973   -3.378006    3.054008
     73          6           0        5.363973   -3.415008    3.502008
     74          6           0        4.485971   -2.226009    3.419008
     75          6           0        4.861970   -0.996009    3.984008
     76          6           0        4.036968    0.116990    3.880008
     77          6           0        2.807968    0.029989    3.199008
     78          6           0        2.011967    1.190988    2.982008
     79          6           0        1.373966    2.192987    2.713008
     80          6           0        0.728964    3.400986    2.296008
     81          7           0       -0.539036    3.321984    1.879008
     82          6           0       -1.117037    4.422984    1.386008
     83          6           0       -2.470037    4.298982    0.927008
     84          6           0       -3.616037    4.207980    0.523008
     85          6           0       -4.947037    4.101979    0.023008
     86          6           0       -5.266038    4.602978   -1.250992
     87          6           0       -6.548037    4.459976   -1.762992
     88          6           0       -7.561037    3.831975   -1.019992
     89          6           0       -8.913036    3.692973   -1.606992
     90          6           0       -9.489038    4.768972   -2.257992
     91          6           0      -10.775038    4.692971   -2.832992
     92          6           0      -11.514036    3.535970   -2.758992
     93          6           0      -10.971035    2.401971   -2.109992
     94          6           0      -11.682033    1.180970   -2.001992
     95          6           0      -11.118032    0.111970   -1.359992
     96          7           0       -9.864032    0.183972   -0.836992
     97          6           0       -9.156033    1.294973   -0.943992
     98          6           0       -9.660035    2.469972   -1.541992
     99          6           0       -7.251036    3.380975    0.274008
    100          6           0       -5.964036    3.497977    0.783008
    101          6           0       -0.453039    5.657984    1.295008
    102          6           0        0.852961    5.740986    1.765008
    103          6           0        1.458962    4.602987    2.282008
    104          6           0        2.408970   -1.211012    2.670008
    105          6           0        3.238972   -2.318011    2.784008
    106          6           0        4.878975   -4.605008    4.012008
    107          6           0        5.701976   -5.746007    4.138008
    108          6           0        7.024976   -5.711006    3.761008
    109          6           0        7.560974   -4.526005    3.206008
    110          1           0        9.585975   -5.269002    2.892008
    111          1           0       10.387973   -3.155001    1.856008
    112          1           0        6.652970   -1.381006    2.200008
    113          1           0        5.807970   -0.911007    4.525008
    114          1           0        4.344967    1.067991    4.320008
    115          1           0       -4.492038    5.085979   -1.845992
    116          1           0       -6.764038    4.823976   -2.768992
    117          1           0       -8.945039    5.714973   -2.306992
    118          1           0      -11.188039    5.573970   -3.328992
    119          1           0      -12.515036    3.475968   -3.189992
    120          1           0      -12.683033    1.091968   -2.424992
    121          1           0      -11.640030   -0.840030   -1.245992
    122          1           0       -8.145033    1.272974   -0.535992
    123          1           0       -8.029035    2.949974    0.906008
    124          1           0       -5.742036    3.123977    1.783008
    125          1           0       -0.961040    6.521984    0.866008
    126          1           0        1.399960    6.684987    1.717008
    127          1           0        2.487962    4.619988    2.645008
    128          1           0        1.462970   -1.288013    2.129008
    129          1           0        2.926973   -3.267011    2.342008
    130          1           0        3.842975   -4.654010    4.354008
    131          1           0        5.278977   -6.660008    4.559008
    132          1           0        7.666977   -6.585005    3.877008
    133          6           0        8.697967    1.044997    4.915008
    134          6           0        9.093968    0.344997    3.809008
    135          7           0        8.565968    0.599996    2.579008
    136          6           0        7.641966    1.533995    2.431008
    137          6           0        7.144965    2.294995    3.510008
    138          6           0        6.141964    3.301993    3.346008
    139          6           0        5.446964    3.574992    2.066008
    140          6           0        5.328962    4.900992    1.620008
    141          6           0        4.498962    5.223991    0.556008
    142          6           0        3.744963    4.222990   -0.082992
    143          6           0        2.715962    4.590989   -0.993992
    144          6           0        1.740962    4.946987   -1.632992
    145          6           0        0.509961    5.351986   -2.235992
    146          7           0       -0.366037    4.379985   -2.507992
    147          6           0       -1.575038    4.705983   -2.978992
    148          6           0       -2.470036    3.611982   -3.196992
    149          6           0       -3.189035    2.637981   -3.323992
    150          6           0       -3.948033    1.442980   -3.477992
    151          6           0       -3.272032    0.210981   -3.544992
    152          6           0       -3.983030   -0.964020   -3.728992
    153          6           0       -5.381030   -0.960022   -3.827992
    154          6           0       -6.078029   -2.245023   -4.061992
    155          6           0       -5.644027   -3.076022   -5.079992
    156          6           0       -6.266026   -4.315023   -5.344992
    157          6           0       -7.334025   -4.744025   -4.591992
    158          6           0       -7.802026   -3.943025   -3.523992
    159          6           0       -8.875026   -4.341027   -2.689992
    160          6           0       -9.256027   -3.554027   -1.637992
    161          7           0       -8.615028   -2.385026   -1.358992
    162          6           0       -7.621029   -1.969025   -2.123992
    163          6           0       -7.168028   -2.691024   -3.248992
    164          6           0       -6.056032    0.268977   -3.746992
    165          6           0       -5.351033    1.454978   -3.579992
    166          6           0       -1.954040    6.034982   -3.226992
    167          6           0       -1.031041    7.042984   -2.963992
    168          6           0        0.220960    6.709985   -2.457992
    169          6           0        3.926965    2.883990    0.302008
    170          6           0        4.772965    2.566991    1.358008
    171          6           0        5.775963    4.038993    4.459008
    172          6           0        6.338963    3.801993    5.731008
    173          6           0        7.282965    2.818995    5.910008
    174          6           0        7.708966    2.052995    4.801008
    175          1           0        9.149967    0.827997    5.884008
    176          1           0        9.847969   -0.441002    3.863008
    177          1           0        7.268966    1.709995    1.421008
    178          1           0        5.875961    5.692993    2.136008
    179          1           0        4.385960    6.263991    0.245008
    180          1           0       -2.184032    0.184982   -3.452992
    181          1           0       -3.443029   -1.909020   -3.778992
    182          1           0       -4.812028   -2.754021   -5.709992
    183          1           0       -5.895025   -4.930023   -6.166992
    184          1           0       -7.824024   -5.697025   -4.798992
    185          1           0       -9.395025   -5.282027   -2.877992
    186          1           0      -10.073026   -3.831028   -0.970992
    187          1           0       -7.134030   -1.035024   -1.837992
    188          1           0       -7.143032    0.306976   -3.851992
    189          1           0       -5.886035    2.403977   -3.532992
    190          1           0       -2.946040    6.261981   -3.618992
    191          1           0       -1.291042    8.087983   -3.145992
    192          1           0        0.962959    7.473986   -2.225992
    193          1           0        3.352966    2.096989   -0.190992
    194          1           0        4.841966    1.527991    1.686008
    195          1           0        5.004962    4.805992    4.356008
    196          1           0        6.004963    4.402993    6.579008
    197          1           0        7.713965    2.620995    6.893008
    198          6           0       11.034964    3.085000   -0.207992
    199          6           0       10.782966    1.861999    0.352008
    200          7           0        9.681967    1.138998    0.005008
    201          6           0        8.847966    1.591997   -0.914992
    202          6           0        9.023965    2.832997   -1.561992
    203          6           0        8.089964    3.329996   -2.524992
    204          6           0        6.944965    2.514994   -2.989992
    205          6           0        7.137967    1.236994   -3.537992
    206          6           0        6.061968    0.492993   -4.003992
    207          6           0        4.755967    1.008991   -3.929992
    208          6           0        3.645968    0.242990   -4.394992
    209          6           0        2.689969   -0.415011   -4.762992
    210          6           0        1.543970   -1.206013   -5.113992
    211          7           0        0.809971   -1.656014   -4.091992
    212          6           0       -0.276028   -2.389015   -4.356992
    213          6           0       -1.054028   -2.826016   -3.237992
    214          6           0       -1.764027   -3.151017   -2.302992
    215          6           0       -2.619027   -3.487018   -1.214992
    216          6           0       -3.907026   -4.007020   -1.445992
    217          6           0       -4.740026   -4.317021   -0.379992
    218          6           0       -4.312026   -4.127021    0.945008
    219          6           0       -5.153026   -4.524022    2.096008
    220          6           0       -4.615025   -5.332021    3.082008
    221          6           0       -5.386024   -5.788022    4.173008
    222          6           0       -6.714024   -5.449024    4.289008
    223          6           0       -7.303025   -4.600025    3.324008
    224          6           0       -8.657026   -4.191026    3.399008
    225          6           0       -9.163027   -3.319027    2.475008
    226          7           0       -8.386028   -2.804026    1.480008
    227          6           0       -7.125027   -3.185024    1.359008
    228          6           0       -6.519026   -4.114024    2.233008
    229          6           0       -3.027027   -3.610019    1.167008
    230          6           0       -2.191027   -3.287018    0.109008
    231          6           0       -0.674028   -2.709016   -5.667992
    232          6           0        0.098971   -2.240015   -6.724992
    233          6           0        1.228970   -1.475013   -6.454992
    234          6           0        4.558965    2.286991   -3.378992
    235          6           0        5.641964    3.027993   -2.922992
    236          6           0        8.280962    4.607996   -3.015992
    237          6           0        9.385961    5.393997   -2.621992
    238          6           0       10.314962    4.914999   -1.727992
    239          6           0       10.145964    3.625998   -1.169992
    240          1           0       11.912964    3.652001    0.106008
    241          1           0       11.432967    1.423000    1.110008
    242          1           0        7.978967    0.971996   -1.139992
    243          1           0        8.146967    0.826996   -3.623992
    244          1           0        6.227969   -0.496007   -4.434992
    245          1           0       -4.248026   -4.176021   -2.469992
    246          1           0       -5.724025   -4.747023   -0.580992
    247          1           0       -3.576024   -5.655020    2.995008
    248          1           0       -4.920023   -6.436021    4.919008
    249          1           0       -7.320024   -5.817025    5.118008
    250          1           0       -9.298026   -4.562027    4.200008
    251          1           0      -10.199028   -2.984028    2.510008
    252          1           0       -6.544028   -2.726024    0.558008
    253          1           0       -2.680027   -3.443018    2.190008
    254          1           0       -1.206028   -2.853017    0.298008
    255          1           0       -1.569027   -3.309017   -5.838992
    256          1           0       -0.180028   -2.469015   -7.754992
    257          1           0        1.858970   -1.086012   -7.255992
    258          1           0        3.548965    2.696990   -3.305992
    259          1           0        5.473963    4.015992   -2.488992
    260          1           0        7.575962    5.006995   -3.747992
    261          1           0        9.503960    6.391998   -3.048992
    262          1           0       11.175961    5.517000   -1.433992
 ---------------------------------------------------------------------

 SCF Done:  E(RB3LYP) =  -6908.28290111     A.U. after   19 cycles

 The electronic state is 1-A.
 Alpha  occ. eigenvalues --  -14.41226 -14.41158 -14.41147 -14.41102 -14.41086
 Alpha  occ. eigenvalues --  -14.41086 -14.41012 -14.40991 -14.34603 -14.34383
 Alpha  occ. eigenvalues --  -14.34216 -14.34158 -10.27371 -10.27292 -10.27240
 Alpha  occ. eigenvalues --  -10.27211 -10.27178 -10.27132 -10.27024 -10.26953
 Alpha  occ. eigenvalues --  -10.26574 -10.26554 -10.26428 -10.26401 -10.26152
 Alpha  occ. eigenvalues --  -10.26081 -10.25967 -10.25954 -10.25950 -10.25910
 Alpha  occ. eigenvalues --  -10.25908 -10.25902 -10.25900 -10.25891 -10.25486
 Alpha  occ. eigenvalues --  -10.25478 -10.23950 -10.23897 -10.23892 -10.23882
 Alpha  occ. eigenvalues --  -10.23868 -10.23854 -10.23849 -10.23847 -10.23824
 Alpha  occ. eigenvalues --  -10.23795 -10.23790 -10.23781 -10.23752 -10.23706
 Alpha  occ. eigenvalues --  -10.23604 -10.23504 -10.23474 -10.23466 -10.23397
 Alpha  occ. eigenvalues --  -10.23380 -10.23366 -10.23349 -10.23342 -10.23338
 Alpha  occ. eigenvalues --  -10.23311 -10.23310 -10.23279 -10.23243 -10.23235
 Alpha  occ. eigenvalues --  -10.23212 -10.23184 -10.23151 -10.22910 -10.22889
 Alpha  occ. eigenvalues --  -10.22878 -10.22861 -10.22852 -10.22850 -10.22839
 Alpha  occ. eigenvalues --  -10.22819 -10.22561 -10.22516 -10.22465 -10.22410
 Alpha  occ. eigenvalues --  -10.22380 -10.22374 -10.22324 -10.22323 -10.22315
 Alpha  occ. eigenvalues --  -10.22223 -10.22189 -10.22186 -10.22185 -10.22173
 Alpha  occ. eigenvalues --  -10.22170 -10.22158 -10.22139 -10.22105 -10.22079
 Alpha  occ. eigenvalues --  -10.21981 -10.21977 -10.21947 -10.21916 -10.21909
 Alpha  occ. eigenvalues --  -10.21909 -10.21904 -10.21883 -10.21872 -10.21863
 Alpha  occ. eigenvalues --  -10.21855 -10.21843 -10.21832 -10.21807 -10.21805
 Alpha  occ. eigenvalues --  -10.21797 -10.21767 -10.21764 -10.21749 -10.21737
 Alpha  occ. eigenvalues --  -10.21617 -10.21532 -10.21531 -10.21516 -10.21506
 Alpha  occ. eigenvalues --  -10.21502 -10.21478 -10.21455 -10.21448 -10.21447
 Alpha  occ. eigenvalues --  -10.21421 -10.21405 -10.21399 -10.21389 -10.21387
 Alpha  occ. eigenvalues --  -10.21386 -10.21375 -10.21360 -10.21347 -10.21341
 Alpha  occ. eigenvalues --  -10.21327 -10.21324 -10.21316 -10.21313 -10.21275
 Alpha  occ. eigenvalues --  -10.21266 -10.21259 -10.21233 -10.21219 -10.21201
 Alpha  occ. eigenvalues --  -10.21192 -10.21177 -10.21158 -10.21117 -10.21023
 Alpha  occ. eigenvalues --  -10.21014 -10.20909 -10.20895 -10.20886 -10.20800
 Alpha  occ. eigenvalues --  -10.20797 -10.20778 -10.20696 -10.20688 -10.20670
 Alpha  occ. eigenvalues --  -10.20661 -10.20624 -10.20622 -10.20584 -10.20463
 Alpha  occ. eigenvalues --  -10.20420 -10.20222 -10.20160  -3.53010  -3.52985
 Alpha  occ. eigenvalues --   -2.21680  -2.21618  -2.21597  -2.21594  -2.17441
 Alpha  occ. eigenvalues --   -2.17431  -1.00315  -1.00247  -0.99676  -0.99613
 Alpha  occ. eigenvalues --   -0.99594  -0.99593  -0.99446  -0.99411  -0.96993
 Alpha  occ. eigenvalues --   -0.96806  -0.96489  -0.96083  -0.89846  -0.89786
 Alpha  occ. eigenvalues --   -0.89719  -0.89703  -0.89687  -0.89678  -0.89655
 Alpha  occ. eigenvalues --   -0.89646  -0.87816  -0.87711  -0.87690  -0.87652
 Alpha  occ. eigenvalues --   -0.87616  -0.87591  -0.87581  -0.87546  -0.83148
 Alpha  occ. eigenvalues --   -0.83073  -0.82982  -0.82936  -0.82914  -0.82891
 Alpha  occ. eigenvalues --   -0.82841  -0.82803  -0.82103  -0.82000  -0.81881
 Alpha  occ. eigenvalues --   -0.81784  -0.81779  -0.81545  -0.81415  -0.80743
 Alpha  occ. eigenvalues --   -0.80298  -0.80231  -0.80180  -0.80155  -0.80095
 Alpha  occ. eigenvalues --   -0.80000  -0.79954  -0.79927  -0.79736  -0.79650
 Alpha  occ. eigenvalues --   -0.79609  -0.79442  -0.79418  -0.79362  -0.79305
 Alpha  occ. eigenvalues --   -0.79061  -0.77071  -0.77039  -0.76960  -0.76836
 Alpha  occ. eigenvalues --   -0.76510  -0.76472  -0.76442  -0.76363  -0.76328
 Alpha  occ. eigenvalues --   -0.76296  -0.76218  -0.76160  -0.76067  -0.75968
 Alpha  occ. eigenvalues --   -0.75930  -0.75868  -0.74031  -0.74007  -0.73930
 Alpha  occ. eigenvalues --   -0.73836  -0.72661  -0.72646  -0.72429  -0.72040
 Alpha  occ. eigenvalues --   -0.68596  -0.68558  -0.68466  -0.68424  -0.68387
 Alpha  occ. eigenvalues --   -0.68371  -0.68326  -0.68273  -0.67460  -0.67366
 Alpha  occ. eigenvalues --   -0.67302  -0.67266  -0.67154  -0.67024  -0.67001
 Alpha  occ. eigenvalues --   -0.66633  -0.66408  -0.66363  -0.66341  -0.66318
 Alpha  occ. eigenvalues --   -0.66249  -0.66226  -0.66154  -0.65984  -0.64843
 Alpha  occ. eigenvalues --   -0.64796  -0.64688  -0.64616  -0.64588  -0.64445
 Alpha  occ. eigenvalues --   -0.64389  -0.64030  -0.62690  -0.62666  -0.62606
 Alpha  occ. eigenvalues --   -0.62553  -0.62540  -0.62471  -0.62337  -0.62328
 Alpha  occ. eigenvalues --   -0.61326  -0.61232  -0.61130  -0.61089  -0.61018
 Alpha  occ. eigenvalues --   -0.61004  -0.60921  -0.60861  -0.58186  -0.57996
 Alpha  occ. eigenvalues --   -0.57773  -0.57129  -0.56622  -0.56587  -0.56360
 Alpha  occ. eigenvalues --   -0.56323  -0.56270  -0.56246  -0.56228  -0.56133
 Alpha  occ. eigenvalues --   -0.56052  -0.55914  -0.55603  -0.55547  -0.55545
 Alpha  occ. eigenvalues --   -0.55532  -0.55449  -0.55421  -0.55369  -0.55269
 Alpha  occ. eigenvalues --   -0.55216  -0.55161  -0.54870  -0.54609  -0.54472
 Alpha  occ. eigenvalues --   -0.54445  -0.54406  -0.54383  -0.54239  -0.54101
 Alpha  occ. eigenvalues --   -0.53633  -0.53618  -0.53611  -0.53601  -0.52470
 Alpha  occ. eigenvalues --   -0.52338  -0.52121  -0.51655  -0.50447  -0.50356
 Alpha  occ. eigenvalues --   -0.50312  -0.50208  -0.50132  -0.50058  -0.49960
 Alpha  occ. eigenvalues --   -0.49910  -0.49846  -0.49789  -0.49667  -0.49324
 Alpha  occ. eigenvalues --   -0.49314  -0.49268  -0.49191  -0.49087  -0.49000
 Alpha  occ. eigenvalues --   -0.48966  -0.48904  -0.48875  -0.48742  -0.48687
 Alpha  occ. eigenvalues --   -0.48589  -0.48577  -0.48520  -0.48507  -0.48491
 Alpha  occ. eigenvalues --   -0.48472  -0.48268  -0.48238  -0.48158  -0.48021
 Alpha  occ. eigenvalues --   -0.47930  -0.47887  -0.47702  -0.47655  -0.47627
 Alpha  occ. eigenvalues --   -0.47613  -0.47595  -0.47536  -0.47471  -0.46986
 Alpha  occ. eigenvalues --   -0.46434  -0.46402  -0.46385  -0.46356  -0.46350
 Alpha  occ. eigenvalues --   -0.46326  -0.46306  -0.46231  -0.45957  -0.45737
 Alpha  occ. eigenvalues --   -0.45640  -0.45561  -0.45423  -0.45414  -0.45331
 Alpha  occ. eigenvalues --   -0.45289  -0.45259  -0.45229  -0.45190  -0.45140
 Alpha  occ. eigenvalues --   -0.44824  -0.44771  -0.44690  -0.44577  -0.44501
 Alpha  occ. eigenvalues --   -0.44479  -0.44378  -0.44239  -0.44204  -0.44118
 Alpha  occ. eigenvalues --   -0.44041  -0.43955  -0.43894  -0.43703  -0.43670
 Alpha  occ. eigenvalues --   -0.43624  -0.43577  -0.43103  -0.42996  -0.42794
 Alpha  occ. eigenvalues --   -0.42793  -0.42782  -0.42749  -0.42578  -0.42390
 Alpha  occ. eigenvalues --   -0.42128  -0.42073  -0.42052  -0.41997  -0.41500
 Alpha  occ. eigenvalues --   -0.41189  -0.41154  -0.41091  -0.41022  -0.40949
 Alpha  occ. eigenvalues --   -0.40877  -0.40824  -0.40762  -0.40706  -0.40653
 Alpha  occ. eigenvalues --   -0.40590  -0.40477  -0.40437  -0.40381  -0.40333
 Alpha  occ. eigenvalues --   -0.40284  -0.40212  -0.40140  -0.40025  -0.40017
 Alpha  occ. eigenvalues --   -0.39914  -0.39865  -0.39806  -0.39787  -0.39466
 Alpha  occ. eigenvalues --   -0.39423  -0.39285  -0.39268  -0.39235  -0.39065
 Alpha  occ. eigenvalues --   -0.38893  -0.38845  -0.38338  -0.38314  -0.38243
 Alpha  occ. eigenvalues --   -0.38172  -0.37282  -0.37230  -0.37212  -0.37181
 Alpha  occ. eigenvalues --   -0.37065  -0.37032  -0.36989  -0.36941  -0.36785
 Alpha  occ. eigenvalues --   -0.36719  -0.36687  -0.36644  -0.36578  -0.36506
 Alpha  occ. eigenvalues --   -0.36459  -0.36387  -0.35926  -0.35529  -0.35450
 Alpha  occ. eigenvalues --   -0.35234  -0.34949  -0.34792  -0.34741  -0.34581
 Alpha  occ. eigenvalues --   -0.34526  -0.34412  -0.34048  -0.33827  -0.33749
 Alpha  occ. eigenvalues --   -0.33543  -0.33457  -0.33398  -0.33132  -0.32982
 Alpha  occ. eigenvalues --   -0.32712  -0.32629  -0.32483  -0.32415  -0.32290
 Alpha  occ. eigenvalues --   -0.31948  -0.31899  -0.31872  -0.31807  -0.31684
 Alpha  occ. eigenvalues --   -0.31301  -0.31203  -0.31030  -0.30964  -0.30674
 Alpha  occ. eigenvalues --   -0.30462  -0.29963  -0.29943  -0.29832  -0.29807
 Alpha  occ. eigenvalues --   -0.29790  -0.29768  -0.29661  -0.29520  -0.29342
 Alpha  occ. eigenvalues --   -0.29264  -0.29210  -0.29130  -0.29109  -0.28885
 Alpha  occ. eigenvalues --   -0.28473  -0.28402  -0.28271  -0.28134  -0.28110
 Alpha  occ. eigenvalues --   -0.28057  -0.28012  -0.27970  -0.27957  -0.27800
 Alpha  occ. eigenvalues --   -0.27733  -0.27600  -0.27452  -0.27379  -0.27265
 Alpha  occ. eigenvalues --   -0.27212  -0.26982  -0.26936  -0.26822  -0.26514
 Alpha  occ. eigenvalues --   -0.26217  -0.26068  -0.25966  -0.25861  -0.24559
 Alpha  occ. eigenvalues --   -0.24518  -0.24460  -0.24281  -0.23627  -0.23330
 Alpha  occ. eigenvalues --   -0.23303  -0.22984
 Alpha virt. eigenvalues --   -0.09992  -0.09912  -0.09781  -0.09696  -0.09661
 Alpha virt. eigenvalues --   -0.09592  -0.09485  -0.09337  -0.08287  -0.08167
 Alpha virt. eigenvalues --   -0.07962  -0.07893  -0.07791  -0.07646  -0.07303

 Mulliken charges:
               1
     1  Pd   0.383009
     2  Pd   0.394909
     3  C   -0.009548
     4  C    0.121645
     5  N   -0.234908
     6  C    0.093909
     7  C    0.056063
     8  C    0.062256
     9  C   -0.015721
    10  C   -0.019157
    11  C    0.006316
    12  C   -0.020799
    13  C    0.003062
    14  C    0.047585
    15  C   -0.055331
    16  N   -0.109924
    17  C   -0.051755
    18  C    0.043030
    19  C    0.004083
    20  C   -0.021449
    21  C   -0.007197
    22  C    0.027051
    23  C   -0.008324
    24  C    0.069169
    25  C   -0.019850
    26  C    0.045392
    27  C   -0.005943
    28  C    0.087841
    29  C   -0.005847
    30  C    0.117934
    31  N   -0.238873
    32  C    0.082033
    33  C    0.061355
    34  C   -0.025278
    35  C    0.014583
    36  C    0.032963
    37  C    0.053746
    38  C    0.051444
    39  C    0.003858
    40  C    0.022472
    41  C   -0.018364
    42  C    0.044457
    43  C   -0.006513
    44  C    0.091863
    45  H    0.022099
    46  H    0.065848
    47  H    0.086272
    48  H    0.008073
    49  H   -0.007462
    50  H    0.001100
    51  H    0.010602
    52  H    0.006139
    53  H    0.021375
    54  H    0.007451
    55  H    0.021442
    56  H    0.068437
    57  H    0.089929
    58  H    0.009370
    59  H   -0.014052
    60  H   -0.006104
    61  H    0.004243
    62  H   -0.015898
    63  H   -0.004482
    64  H    0.005855
    65  H    0.004942
    66  H    0.021408
    67  H    0.007107
    68  C   -0.003235
    69  C    0.119492
    70  N   -0.244251
    71  C    0.078195
    72  C    0.060656
    73  C    0.064808
    74  C    0.015601
    75  C   -0.028069
    76  C   -0.003103
    77  C   -0.033167
    78  C   -0.002394
    79  C    0.061491
    80  C   -0.089678
    81  N   -0.098742
    82  C   -0.091060
    83  C    0.058372
    84  C    0.003087
    85  C   -0.023708
    86  C    0.027046
    87  C   -0.017329
    88  C    0.033750
    89  C    0.089890
    90  C   -0.033218
    91  C    0.047269
    92  C   -0.004945
    93  C    0.080021
    94  C   -0.006418
    95  C    0.122761
    96  N   -0.230991
    97  C    0.075583
    98  C    0.061570
    99  C   -0.026919
   100  C    0.013069
   101  C    0.038462
   102  C    0.064978
   103  C    0.047493
   104  C    0.020499
   105  C   -0.005762
   106  C   -0.018376
   107  C    0.047453
   108  C   -0.004265
   109  C    0.083341
   110  H    0.021858
   111  H    0.073890
   112  H    0.081075
   113  H    0.008263
   114  H    0.004476
   115  H   -0.017591
   116  H    0.010443
   117  H    0.009486
   118  H    0.020363
   119  H    0.007884
   120  H    0.021450
   121  H    0.069038
   122  H    0.064650
   123  H    0.010873
   124  H   -0.024907
   125  H    0.007728
   126  H    0.018561
   127  H    0.006884
   128  H   -0.009351
   129  H    0.004827
   130  H    0.008322
   131  H    0.020782
   132  H    0.007217
   133  C   -0.004113
   134  C    0.124815
   135  N   -0.238006
   136  C    0.083526
   137  C    0.056031
   138  C    0.060222
   139  C    0.026707
   140  C   -0.016891
   141  C    0.013783
   142  C   -0.064713
   143  C    0.005083
   144  C    0.098272
   145  C   -0.094137
   146  N   -0.101797
   147  C   -0.065224
   148  C    0.069218
   149  C   -0.017895
   150  C   -0.021465
   151  C   -0.001144
   152  C    0.000129
   153  C    0.029903
   154  C    0.063844
   155  C   -0.028050
   156  C    0.048228
   157  C   -0.005303
   158  C    0.084064
   159  C   -0.005955
   160  C    0.127046
   161  N   -0.234258
   162  C    0.083797
   163  C    0.060132
   164  C   -0.017615
   165  C    0.009987
   166  C    0.026280
   167  C    0.072788
   168  C    0.030057
   169  C    0.025692
   170  C   -0.009701
   171  C   -0.025259
   172  C    0.050427
   173  C   -0.004576
   174  C    0.086374
   175  H    0.022814
   176  H    0.076111
   177  H    0.060697
   178  H    0.003142
   179  H    0.002673
   180  H    0.002263
   181  H   -0.010990
   182  H    0.012234
   183  H    0.020213
   184  H    0.007979
   185  H    0.022487
   186  H    0.075129
   187  H    0.060602
   188  H    0.008889
   189  H   -0.006610
   190  H    0.020042
   191  H    0.023635
   192  H    0.010120
   193  H   -0.002607
   194  H    0.013836
   195  H    0.014146
   196  H    0.020455
   197  H    0.008345
   198  C   -0.006128
   199  C    0.126290
   200  N   -0.236604
   201  C    0.082285
   202  C    0.055868
   203  C    0.075332
   204  C    0.008781
   205  C   -0.014611
   206  C    0.009474
   207  C   -0.035356
   208  C   -0.016365
   209  C    0.080881
   210  C   -0.088248
   211  N   -0.096973
   212  C   -0.086038
   213  C    0.075964
   214  C   -0.012755
   215  C   -0.033778
   216  C    0.002271
   217  C   -0.022343
   218  C    0.019954
   219  C    0.062721
   220  C   -0.018387
   221  C    0.047173
   222  C   -0.003183
   223  C    0.081314
   224  C   -0.003950
   225  C    0.123801
   226  N   -0.237387
   227  C    0.076118
   228  C    0.057689
   229  C   -0.011575
   230  C    0.019718
   231  C    0.026683
   232  C    0.071532
   233  C    0.038952
   234  C    0.002664
   235  C    0.008423
   236  C   -0.022432
   237  C    0.046130
   238  C   -0.004600
   239  C    0.082162
   240  H    0.022627
   241  H    0.070700
   242  H    0.073805
   243  H    0.010731
   244  H   -0.002338
   245  H    0.002268
   246  H    0.009919
   247  H    0.009466
   248  H    0.021068
   249  H    0.007527
   250  H    0.021666
   251  H    0.072932
   252  H    0.071547
   253  H    0.008541
   254  H   -0.006053
   255  H    0.013970
   256  H    0.022571
   257  H    0.010357
   258  H    0.002445
   259  H    0.006230
   260  H    0.007950
   261  H    0.020760
   262  H    0.007519
 Sum of Mulliken charges =   4.00000

 Dipole moment (field-independent basis, Debye):
    X=             -0.1480    Y=             -7.3221    Z=              7.4998  Tot=             10.4824
 Quadrupole moment (field-independent basis, Debye-Ang):
   XX=            648.5142   YY=           -643.4835   ZZ=           -714.1139
   XY=             27.9314   XZ=             32.6834   YZ=             -3.9129

 Normal termination of Gaussian 16 at Tue Jul 25 18:08:04 2023.
