 Gaussian 16, Revision C.01,
 Gaussian 16:  ES64L-G16RevC.01  3-Jul-2019

 ------------------------------------------------------------------
 # SP PBE1PBE/def2svp empiricaldispersion=GD3BJ scrf=(solvent=dmso)
 ------------------------------------------------------------------

 -----------
 trans_l2_lc
 -----------
 Symbolic Z-matrix:
 Charge =  4 Multiplicity = 1

                         Standard orientation:
 ---------------------------------------------------------------------
 Center     Atomic      Atomic             Coordinates (Angstroms)
 Number     Number       Type             X           Y           Z
 ---------------------------------------------------------------------
      1         46           0       -6.228402    0.821801    0.545002
      2         46           0        6.228398    0.821795   -0.544998
      3          6           0        0.000001    6.629298    0.000002
      4          6           0        1.209401    5.938197   -0.006498
      5          6           0        1.216400    4.537197    0.011702
      6          6           0       -0.000000    3.848298    0.000102
      7          6           0       -1.216400    4.537198   -0.011498
      8          6           0       -1.209399    5.938198    0.006602
      9          6           0       -2.472400    3.764299   -0.018598
     10          6           0       -3.543700    4.100699    0.817802
     11          6           0       -4.651401    3.271500    0.875402
     12          7           0       -4.742901    2.156100    0.134602
     13          6           0       -3.762201    1.859700   -0.732898
     14          6           0       -2.618301    2.631299   -0.831098
     15          6           0        2.472300    3.764297    0.018802
     16          6           0        2.618299    2.631297    0.831302
     17          6           0        3.762199    1.859696    0.733002
     18          7           0        4.742799    2.156096   -0.134498
     19          6           0        4.651299    3.271496   -0.875298
     20          6           0        3.543700    4.100797   -0.817698
     21          1           0        0.000001    7.721098    0.000002
     22          1           0        2.152201    6.489597    0.002502
     23          1           0       -0.000001    2.755898    0.000102
     24          1           0       -2.152299    6.489499   -0.002498
     25          1           0       -3.499700    4.974599    1.468802
     26          1           0       -5.478800    3.484700    1.554602
     27          1           0       -3.894002    0.967500   -1.348598
     28          1           0       -1.842801    2.341199   -1.541098
     29          1           0        1.842799    2.341297    1.541302
     30          1           0        3.893998    0.967396    1.348702
     31          1           0        5.478800    3.484696   -1.554498
     32          1           0        3.499600    4.974697   -1.468598
     33          6           0       -0.000004   -4.979702   -0.000298
     34          6           0        1.193796   -4.287803   -0.185198
     35          6           0        1.197797   -2.887803   -0.210898
     36          6           0       -0.000103   -2.196602   -0.000098
     37          6           0       -1.197903   -2.887802    0.210702
     38          6           0       -1.193904   -4.287902    0.184702
     39          6           0       -2.443603   -2.132601    0.445902
     40          6           0       -2.485402   -1.060001    1.346902
     41          6           0       -3.646302   -0.316801    1.475902
     42          7           0       -4.743802   -0.576600    0.744802
     43          6           0       -4.740803   -1.636300   -0.081598
     44          6           0       -3.624203   -2.440501   -0.240998
     45          6           0        2.443497   -2.132503   -0.445998
     46          6           0        3.624097   -2.440504    0.240902
     47          6           0        4.740697   -1.636304    0.081502
     48          7           0        4.743698   -0.576504   -0.744798
     49          6           0        3.646198   -0.316704   -1.475898
     50          6           0        2.485398   -1.059903   -1.346998
     51          1           0       -0.000004   -6.071302   -0.000398
     52          1           0        2.124696   -4.837103   -0.341098
     53          1           0       -0.000102   -1.103702    0.000002
     54          1           0       -2.124804   -4.837201    0.340602
     55          1           0       -1.617502   -0.804101    1.955502
     56          1           0       -3.700702    0.527900    2.164702
     57          1           0       -5.654503   -1.824100   -0.648798
     58          1           0       -3.660903   -3.268901   -0.948798
     59          1           0        3.660797   -3.269004    0.948502
     60          1           0        5.654397   -1.824204    0.648702
     61          1           0        3.700698    0.527996   -2.164598
     62          1           0        1.617398   -0.803803   -1.955598
     63          6           0        9.148500    4.011794   -0.291898
     64          6           0        9.035300    4.383494    1.073602
     65          6           0        8.136600    3.632595    1.882202
     66          6           0        7.929500    3.948295    3.263202
     67          6           0        8.632700    5.000994    3.801602
     68          6           0        9.540400    5.743994    3.003702
     69          6           0        9.744400    5.453194    1.673302
     70          6           0        6.935399    3.085695    3.956802
     71          6           0        5.570699    3.394496    3.882102
     72          6           0        4.609199    2.414596    4.107402
     73          6           0        4.998599    1.094796    4.398602
     74          6           0        4.072398    0.012196    4.349302
     75          6           0        3.367498   -0.968103    4.178302
     76          6           0        2.636197   -2.167503    3.932002
     77          6           0        3.344397   -3.357303    3.669302
     78          6           0        2.658296   -4.535003    3.393402
     79          6           0        1.267496   -4.556203    3.389302
     80          6           0        0.542697   -3.383802    3.671902
     81          6           0       -0.880503   -3.425402    3.712102
     82          6           0       -2.095603   -3.500301    3.756802
     83          6           0       -3.516803   -3.572801    3.749002
     84          6           0       -4.291003   -2.582700    4.381402
     85          6           0       -5.675503   -2.605600    4.281902
     86          6           0       -6.326403   -3.607599    3.546002
     87          6           0       -7.774603   -3.516699    3.237702
     88          6           0       -8.229303   -2.443699    2.406502
     89          6           0       -9.587703   -2.369298    1.985202
     90          6           0       -9.935302   -1.314598    1.103202
     91          6           0       -8.985202   -0.423898    0.676002
     92          7           0       -7.689102   -0.500299    1.095202
     93          6           0       -7.338903   -1.464899    1.928302
     94          6           0      -10.499203   -3.354398    2.434202
     95          6           0      -10.050304   -4.377198    3.239002
     96          6           0       -8.692404   -4.469798    3.627402
     97          6           0       -5.558504   -4.629700    2.972902
     98          6           0       -4.172704   -4.616700    3.072102
     99          6           0        1.233997   -2.189303    3.931202
    100          6           0        6.364198    0.823395    4.609802
    101          6           0        7.317599    1.809495    4.392302
    102          6           0        7.428699    2.580995    1.274702
    103          7           0        7.546399    2.271095   -0.003898
    104          6           0        8.401599    2.975495   -0.795898
    105          1           0        9.825000    4.555494   -0.953198
    106          1           0        8.493000    5.269094    4.850602
    107          1           0       10.086101    6.571194    3.463002
    108          1           0       10.442501    6.039794    1.072802
    109          1           0        5.259800    4.389596    3.555502
    110          1           0        3.550799    2.650497    3.983002
    111          1           0        4.435897   -3.341604    3.677402
    112          1           0        3.215396   -5.450003    3.181102
    113          1           0        0.727596   -5.480002    3.176802
    114          1           0       -3.794703   -1.782000    4.932502
    115          1           0       -6.262403   -1.815999    4.757202
    116          1           0      -10.960802   -1.216198    0.743502
    117          1           0       -9.229302    0.376502   -0.021098
    118          1           0       -6.298003   -1.493599    2.238902
    119          1           0      -11.545203   -3.299697    2.126302
    120          1           0      -10.749904   -5.142998    3.581402
    121          1           0       -8.367404   -5.307199    4.248502
    122          1           0       -6.053304   -5.417600    2.400602
    123          1           0       -3.582504   -5.401301    2.595202
    124          1           0        0.675798   -1.275802    4.141002
    125          1           0        6.675198   -0.188505    4.875802
    126          1           0        8.378699    1.561595    4.470402
    127          1           0        6.729799    1.984795    1.859502
    128          1           0        8.458799    2.672095   -1.842098
    129          6           0        9.935298   -1.314406   -1.103298
    130          6           0        9.587797   -2.369006   -1.985398
    131          6           0        8.229297   -2.443505   -2.406598
    132          6           0        7.774697   -3.516505   -3.237998
    133          6           0        8.692596   -4.469406   -3.627898
    134          6           0       10.050496   -4.376706   -3.239598
    135          6           0       10.499297   -3.353906   -2.434698
    136          6           0        6.326497   -3.607305   -3.546198
    137          6           0        5.675597   -2.605204   -4.281998
    138          6           0        4.291097   -2.582304   -4.381398
    139          6           0        3.516897   -3.572403   -3.749098
    140          6           0        2.095697   -3.499903   -3.756898
    141          6           0        0.880597   -3.425002   -3.712098
    142          6           0       -0.542603   -3.383402   -3.671898
    143          6           0       -1.267404   -4.555801   -3.389498
    144          6           0       -2.658204   -4.534701   -3.393598
    145          6           0       -3.344303   -3.356901   -3.669398
    146          6           0       -2.636103   -2.167101   -3.931898
    147          6           0       -3.367402   -0.967701   -4.178198
    148          6           0       -4.072402    0.012600   -4.349098
    149          6           0       -4.998501    1.095200   -4.398398
    150          6           0       -6.364002    0.823801   -4.609798
    151          6           0       -7.317501    1.809901   -4.392298
    152          6           0       -6.935401    3.086001   -3.956598
    153          6           0       -7.929600    3.948501   -3.262998
    154          6           0       -8.136600    3.632801   -1.881998
    155          6           0       -9.035400    4.383502   -1.073398
    156          6           0       -9.148700    4.011702    0.292102
    157          6           0       -8.401701    2.975401    0.796002
    158          7           0       -7.546401    2.271101    0.004002
    159          6           0       -7.428701    2.581101   -1.274498
    160          6           0       -9.744700    5.453102   -1.672998
    161          6           0       -9.540700    5.744002   -3.003398
    162          6           0       -8.632900    5.001102   -3.801298
    163          6           0       -5.570701    3.394800   -3.881598
    164          6           0       -4.609101    2.414900   -4.106898
    165          6           0       -1.233803   -2.189002   -3.931098
    166          6           0        4.172796   -4.616404   -3.072398
    167          6           0        5.558696   -4.629404   -2.973198
    168          6           0        7.338897   -1.464905   -1.928298
    169          7           0        7.688998   -0.500305   -1.095098
    170          6           0        8.985198   -0.423806   -0.675998
    171          1           0       10.960798   -1.215907   -0.743598
    172          1           0        8.367596   -5.306705   -4.249098
    173          1           0       10.750096   -5.142306   -3.582098
    174          1           0       11.545397   -3.299207   -2.126798
    175          1           0        6.262497   -1.815605   -4.757298
    176          1           0        3.794797   -1.781504   -4.932498
    177          1           0       -0.727504   -5.479702   -3.177098
    178          1           0       -3.215304   -5.449701   -3.181498
    179          1           0       -4.435703   -3.341300   -3.677598
    180          1           0       -6.675002   -0.188099   -4.875998
    181          1           0       -8.378601    1.561901   -4.470598
    182          1           0       -9.825300    4.555402    0.953502
    183          1           0       -8.458901    2.672001    1.842302
    184          1           0       -6.729801    1.985001   -1.859398
    185          1           0      -10.442799    6.039602   -1.072498
    186          1           0      -10.086499    6.571102   -3.462698
    187          1           0       -8.493300    5.269301   -4.850298
    188          1           0       -5.259900    4.389900   -3.554898
    189          1           0       -3.550801    2.650899   -3.982298
    190          1           0       -0.675702   -1.275402   -4.140798
    191          1           0        3.582696   -5.401003   -2.595498
    192          1           0        6.053396   -5.417405   -2.400998
    193          1           0        6.297897   -1.493605   -2.238798
    194          1           0        9.229298    0.376494    0.021202
 ---------------------------------------------------------------------

 SCF Done:  E(RPBE1PBE) =  -4995.92735124     A.U. after   18 cycles

 The electronic state is 1-A.
 Alpha  occ. eigenvalues --  -14.48674 -14.48673 -14.48519 -14.48519 -14.48506
 Alpha  occ. eigenvalues --  -14.48506 -14.48285 -14.48285 -10.32199 -10.32199
 Alpha  occ. eigenvalues --  -10.32179 -10.32179 -10.32157 -10.32157 -10.32038
 Alpha  occ. eigenvalues --  -10.32038 -10.32014 -10.32013 -10.31782 -10.31782
 Alpha  occ. eigenvalues --  -10.31189 -10.31189 -10.30814 -10.30813 -10.30555
 Alpha  occ. eigenvalues --  -10.30554 -10.30325 -10.30324 -10.29207 -10.29206
 Alpha  occ. eigenvalues --  -10.28970 -10.28969 -10.28764 -10.28763 -10.28706
 Alpha  occ. eigenvalues --  -10.28706 -10.28701 -10.28700 -10.28606 -10.28606
 Alpha  occ. eigenvalues --  -10.28588 -10.28586 -10.28584 -10.28584 -10.28455
 Alpha  occ. eigenvalues --  -10.28455 -10.28454 -10.28453 -10.28451 -10.28450
 Alpha  occ. eigenvalues --  -10.28447 -10.28447 -10.28274 -10.28274 -10.28224
 Alpha  occ. eigenvalues --  -10.28223 -10.28148 -10.28145 -10.28093 -10.28092
 Alpha  occ. eigenvalues --  -10.27777 -10.27773 -10.27756 -10.27756 -10.27603
 Alpha  occ. eigenvalues --  -10.27603 -10.27485 -10.27484 -10.27377 -10.27320
 Alpha  occ. eigenvalues --  -10.27319 -10.27156 -10.27156 -10.27095 -10.27085
 Alpha  occ. eigenvalues --  -10.27084 -10.27048 -10.27045 -10.26996 -10.26995
 Alpha  occ. eigenvalues --  -10.26921 -10.26921 -10.26873 -10.26872 -10.26769
 Alpha  occ. eigenvalues --  -10.26769 -10.26752 -10.26752 -10.26694 -10.26689
 Alpha  occ. eigenvalues --  -10.26675 -10.26674 -10.26608 -10.26608 -10.26551
 Alpha  occ. eigenvalues --  -10.26507 -10.26507 -10.26502 -10.26501 -10.26496
 Alpha  occ. eigenvalues --  -10.26496 -10.26448 -10.26448 -10.26429 -10.26428
 Alpha  occ. eigenvalues --  -10.26363 -10.26363 -10.26302 -10.26302 -10.26252
 Alpha  occ. eigenvalues --  -10.26252 -10.26197 -10.26100 -10.26100 -10.26086
 Alpha  occ. eigenvalues --  -10.26085 -10.25968 -10.25968 -10.25748 -10.25747
 Alpha  occ. eigenvalues --   -3.57161  -3.57160  -2.25041  -2.25041  -2.24956
 Alpha  occ. eigenvalues --   -2.24956  -2.20778  -2.20778  -1.03659  -1.03657
 Alpha  occ. eigenvalues --   -1.02878  -1.02876  -1.02777  -1.02774  -1.02415
 Alpha  occ. eigenvalues --   -1.02414  -0.92737  -0.92734  -0.92583  -0.92486
 Alpha  occ. eigenvalues --   -0.92485  -0.92196  -0.91207  -0.91189  -0.90571
 Alpha  occ. eigenvalues --   -0.90566  -0.90365  -0.90365  -0.89057  -0.88761
 Alpha  occ. eigenvalues --   -0.86492  -0.86199  -0.85631  -0.85626  -0.85397
 Alpha  occ. eigenvalues --   -0.85392  -0.83770  -0.83764  -0.83020  -0.82989
 Alpha  occ. eigenvalues --   -0.82871  -0.82856  -0.82696  -0.82680  -0.82526
 Alpha  occ. eigenvalues --   -0.82462  -0.82018  -0.81885  -0.81494  -0.81380
 Alpha  occ. eigenvalues --   -0.80444  -0.80419  -0.79629  -0.79496  -0.79286
 Alpha  occ. eigenvalues --   -0.79139  -0.78917  -0.78915  -0.78777  -0.78774
 Alpha  occ. eigenvalues --   -0.78553  -0.78552  -0.78319  -0.78307  -0.75389
 Alpha  occ. eigenvalues --   -0.75388  -0.74652  -0.74651  -0.70818  -0.70704
 Alpha  occ. eigenvalues --   -0.70669  -0.70627  -0.70458  -0.70365  -0.70276
 Alpha  occ. eigenvalues --   -0.70199  -0.69487  -0.69358  -0.69198  -0.69105
 Alpha  occ. eigenvalues --   -0.68721  -0.68715  -0.68685  -0.68635  -0.68150
 Alpha  occ. eigenvalues --   -0.68146  -0.67964  -0.67957  -0.65726  -0.65717
 Alpha  occ. eigenvalues --   -0.65425  -0.65417  -0.64804  -0.64800  -0.64569
 Alpha  occ. eigenvalues --   -0.64566  -0.64313  -0.64018  -0.63397  -0.63128
 Alpha  occ. eigenvalues --   -0.63069  -0.62988  -0.62836  -0.62784  -0.60454
 Alpha  occ. eigenvalues --   -0.59872  -0.59415  -0.59413  -0.58738  -0.58204
 Alpha  occ. eigenvalues --   -0.58042  -0.57998  -0.57819  -0.57607  -0.57537
 Alpha  occ. eigenvalues --   -0.57403  -0.57212  -0.57104  -0.56756  -0.56676
 Alpha  occ. eigenvalues --   -0.56388  -0.56250  -0.56123  -0.55884  -0.55831
 Alpha  occ. eigenvalues --   -0.55769  -0.55607  -0.55456  -0.55239  -0.55012
 Alpha  occ. eigenvalues --   -0.54377  -0.54109  -0.52239  -0.51973  -0.51839
 Alpha  occ. eigenvalues --   -0.51822  -0.51772  -0.51568  -0.51550  -0.51493
 Alpha  occ. eigenvalues --   -0.51223  -0.51112  -0.51039  -0.51009  -0.50915
 Alpha  occ. eigenvalues --   -0.50823  -0.50650  -0.50587  -0.50495  -0.50472
 Alpha  occ. eigenvalues --   -0.50326  -0.50323  -0.50227  -0.50002  -0.49949
 Alpha  occ. eigenvalues --   -0.49759  -0.49632  -0.49451  -0.49402  -0.49395
 Alpha  occ. eigenvalues --   -0.49171  -0.49024  -0.48876  -0.48864  -0.48863
 Alpha  occ. eigenvalues --   -0.48748  -0.48419  -0.48363  -0.48345  -0.47971
 Alpha  occ. eigenvalues --   -0.47880  -0.47819  -0.47519  -0.47506  -0.47499
 Alpha  occ. eigenvalues --   -0.47134  -0.47083  -0.46776  -0.46756  -0.46671
 Alpha  occ. eigenvalues --   -0.46621  -0.46484  -0.46240  -0.46184  -0.46115
 Alpha  occ. eigenvalues --   -0.46114  -0.46040  -0.45770  -0.45665  -0.45662
 Alpha  occ. eigenvalues --   -0.45524  -0.45520  -0.44544  -0.44531  -0.44286
 Alpha  occ. eigenvalues --   -0.44272  -0.43703  -0.43585  -0.43369  -0.43278
 Alpha  occ. eigenvalues --   -0.43060  -0.43013  -0.42883  -0.42532  -0.42438
 Alpha  occ. eigenvalues --   -0.42236  -0.42222  -0.42199  -0.42091  -0.41872
 Alpha  occ. eigenvalues --   -0.41763  -0.41634  -0.41510  -0.41475  -0.41392
 Alpha  occ. eigenvalues --   -0.41211  -0.41145  -0.41022  -0.40998  -0.40443
 Alpha  occ. eigenvalues --   -0.40285  -0.40239  -0.40229  -0.40170  -0.39887
 Alpha  occ. eigenvalues --   -0.39875  -0.39090  -0.39087  -0.38983  -0.38952
 Alpha  occ. eigenvalues --   -0.38788  -0.38738  -0.38392  -0.38391  -0.38204
 Alpha  occ. eigenvalues --   -0.38191  -0.37751  -0.37715  -0.37660  -0.37542
 Alpha  occ. eigenvalues --   -0.37528  -0.37423  -0.36986  -0.36849  -0.36634
 Alpha  occ. eigenvalues --   -0.36226  -0.36219  -0.35943  -0.35876  -0.35218
 Alpha  occ. eigenvalues --   -0.35117  -0.34744  -0.34734  -0.34540  -0.34269
 Alpha  occ. eigenvalues --   -0.34075  -0.33864  -0.33848  -0.33304  -0.33017
 Alpha  occ. eigenvalues --   -0.32996  -0.32807  -0.32538  -0.32472  -0.31951
 Alpha  occ. eigenvalues --   -0.31728  -0.31552  -0.31531  -0.31090  -0.31082
 Alpha  occ. eigenvalues --   -0.31070  -0.31010  -0.30623  -0.30598  -0.29972
 Alpha  occ. eigenvalues --   -0.29907  -0.29803  -0.29543  -0.29289  -0.29278
 Alpha  occ. eigenvalues --   -0.29231  -0.29159  -0.29155  -0.28942  -0.28935
 Alpha  occ. eigenvalues --   -0.28586  -0.28509  -0.28079  -0.27284  -0.27280
 Alpha  occ. eigenvalues --   -0.27077  -0.27051  -0.25364  -0.25362  -0.24313
 Alpha  occ. eigenvalues --   -0.24242
 Alpha virt. eigenvalues --   -0.09582  -0.09534  -0.09456  -0.09335  -0.09185
 Alpha virt. eigenvalues --   -0.09165  -0.09051  -0.08576  -0.08286  -0.07872
 Alpha virt. eigenvalues --   -0.07785  -0.07595  -0.06951  -0.06940  -0.06436

 Mulliken charges:
               1
     1  Pd   0.465383
     2  Pd   0.465383
     3  C   -0.024390
     4  C   -0.004255
     5  C    0.002442
     6  C   -0.021452
     7  C    0.002430
     8  C   -0.004263
     9  C    0.049038
    10  C   -0.028272
    11  C    0.152648
    12  N   -0.337478
    13  C    0.142361
    14  C   -0.038303
    15  C    0.048929
    16  C   -0.038267
    17  C    0.142302
    18  N   -0.337422
    19  C    0.152572
    20  C   -0.028169
    21  H    0.055513
    22  H    0.050010
    23  H    0.046315
    24  H    0.050026
    25  H    0.068794
    26  H    0.116058
    27  H    0.109062
    28  H    0.068815
    29  H    0.068795
    30  H    0.109108
    31  H    0.116091
    32  H    0.068769
    33  C   -0.028649
    34  C    0.005071
    35  C    0.009228
    36  C   -0.014140
    37  C    0.009209
    38  C    0.005074
    39  C    0.047372
    40  C   -0.027707
    41  C    0.146209
    42  N   -0.360274
    43  C    0.130688
    44  C   -0.015269
    45  C    0.047342
    46  C   -0.015235
    47  C    0.130678
    48  N   -0.360289
    49  C    0.146237
    50  C   -0.027733
    51  H    0.049644
    52  H    0.042719
    53  H    0.037312
    54  H    0.042725
    55  H    0.061905
    56  H    0.115748
    57  H    0.120089
    58  H    0.064115
    59  H    0.064079
    60  H    0.120094
    61  H    0.115706
    62  H    0.061978
    63  C   -0.030882
    64  C    0.046353
    65  C   -0.017949
    66  C    0.025475
    67  C   -0.021284
    68  C    0.001503
    69  C   -0.003056
    70  C   -0.136376
    71  C    0.021308
    72  C   -0.002738
    73  C   -0.079629
    74  C   -0.048232
    75  C    0.030192
    76  C   -0.074078
    77  C   -0.015150
    78  C   -0.026198
    79  C    0.029761
    80  C   -0.080005
    81  C    0.012932
    82  C   -0.024787
    83  C   -0.079145
    84  C    0.008851
    85  C   -0.040313
    86  C   -0.080137
    87  C    0.030255
    88  C   -0.015291
    89  C    0.041246
    90  C   -0.035654
    91  C    0.131716
    92  N   -0.326496
    93  C    0.149853
    94  C   -0.005567
    95  C    0.002266
    96  C   -0.024843
    97  C    0.017426
    98  C    0.002979
    99  C    0.022530
   100  C    0.005755
   101  C    0.007520
   102  C    0.189493
   103  N   -0.344488
   104  C    0.117874
   105  H    0.062350
   106  H    0.044941
   107  H    0.062014
   108  H    0.047633
   109  H    0.046471
   110  H    0.043901
   111  H    0.044666
   112  H    0.053508
   113  H    0.041328
   114  H    0.040692
   115  H    0.050527
   116  H    0.059437
   117  H    0.098947
   118  H    0.126045
   119  H    0.046499
   120  H    0.060780
   121  H    0.044921
   122  H    0.040698
   123  H    0.043568
   124  H    0.034845
   125  H    0.044781
   126  H    0.048211
   127  H    0.120002
   128  H    0.103985
   129  C   -0.035679
   130  C    0.041335
   131  C   -0.015318
   132  C    0.030313
   133  C   -0.024832
   134  C    0.002342
   135  C   -0.005652
   136  C   -0.080141
   137  C   -0.040305
   138  C    0.008799
   139  C   -0.079101
   140  C   -0.024772
   141  C    0.012951
   142  C   -0.079904
   143  C    0.029723
   144  C   -0.026196
   145  C   -0.015149
   146  C   -0.074111
   147  C    0.030157
   148  C   -0.048169
   149  C   -0.079576
   150  C    0.005691
   151  C    0.007493
   152  C   -0.136329
   153  C    0.025535
   154  C   -0.017971
   155  C    0.046318
   156  C   -0.030921
   157  C    0.117783
   158  N   -0.344434
   159  C    0.189519
   160  C   -0.003043
   161  C    0.001509
   162  C   -0.021348
   163  C    0.021253
   164  C   -0.002728
   165  C    0.022511
   166  C    0.002974
   167  C    0.017412
   168  C    0.149786
   169  N   -0.326579
   170  C    0.131755
   171  H    0.059436
   172  H    0.044905
   173  H    0.060733
   174  H    0.046549
   175  H    0.050528
   176  H    0.040727
   177  H    0.041359
   178  H    0.053491
   179  H    0.044613
   180  H    0.044812
   181  H    0.048231
   182  H    0.062431
   183  H    0.104032
   184  H    0.119997
   185  H    0.047604
   186  H    0.061998
   187  H    0.044942
   188  H    0.046477
   189  H    0.043877
   190  H    0.034843
   191  H    0.043536
   192  H    0.040688
   193  H    0.126105
   194  H    0.098947
 Sum of Mulliken charges =   4.00000

 Dipole moment (field-independent basis, Debye):
    X=             -0.0006    Y=             14.1511    Z=             -0.0008  Tot=             14.1511
 Quadrupole moment (field-independent basis, Debye-Ang):
   XX=            233.6074   YY=           -422.1088   ZZ=           -651.1933
   XY=             -0.0063   XZ=            -38.5322   YZ=              0.0124

 Normal termination of Gaussian 16 at Sat Jun  3 03:23:22 2023.
