 Gaussian 16, Revision C.01,
 Gaussian 16:  ES64L-G16RevC.01  3-Jul-2019

 ----------------------------------------------------------------------
 #P PBE1PBE/Def2SVP SP SCF=(YQC,MaxCycle=900) int=(Grid=Superfinegrid)
 EmpiricalDispersion=GD3BJ SCRF=(PCM,Solvent=DiMethylSulfoxide)
 ----------------------------------------------------------------------

 --------
 _s_4c3_c
 --------
 Symbolic Z-matrix:
 Charge =  4 Multiplicity = 1

                         Standard orientation:
 ---------------------------------------------------------------------
 Center     Atomic      Atomic             Coordinates (Angstroms)
 Number     Number       Type             X           Y           Z
 ---------------------------------------------------------------------
      1         46           0       -6.695958   -1.013593   -1.522810
      2         46           0        6.715159   -0.050956    1.759384
      3          6           0        4.568614   -4.862539   -1.003197
      4          6           0        4.905591   -5.011885    0.149084
      5          6           0        5.397374   -5.263353    1.446873
      6          6           0        5.347310   -6.538744    1.976366
      7          6           0        5.943394   -6.830861    3.208722
      8          6           0        6.627457   -5.869738    3.910441
      9          6           0        6.699231   -4.556422    3.412044
     10          6           0        7.418711   -3.523172    4.053186
     11          6           0        7.434993   -2.268195    3.516353
     12          7           0        6.733722   -1.950899    2.397658
     13          6           0        6.067391   -2.895222    1.759702
     14          6           0        6.042669   -4.230786    2.190319
     15          1           0        4.856173   -7.323424    1.421494
     16          1           0        5.881445   -7.837330    3.593606
     17          1           0        7.119482   -6.108345    4.840207
     18          1           0        7.959710   -3.737699    4.960832
     19          1           0        8.010872   -1.466144    3.967420
     20          1           0        5.518058   -2.608825    0.865615
     21          6           0        4.250820   -4.737680   -2.374076
     22          6           0        5.209113   -5.175831   -3.306509
     23          6           0        4.971898   -5.109902   -4.661888
     24          6           0        3.749319   -4.603515   -5.083073
     25          7           0        3.262541   -4.447468   -6.354613
     26          6           0        1.991101   -3.950596   -6.293762
     27          6           0        1.103604   -3.664619   -7.325485
     28          6           0       -0.146765   -3.198357   -6.989376
     29          6           0       -0.518691   -3.009676   -5.643707
     30          6           0        0.377455   -3.275875   -4.608013
     31          6           0        1.635588   -3.750553   -4.934296
     32          6           0        2.772074   -4.166417   -4.154827
     33          6           0        3.026329   -4.226388   -2.793164
     34          1           0        6.143813   -5.575321   -2.943293
     35          1           0        5.710224   -5.451373   -5.371076
     36          1           0        3.746961   -4.704847   -7.198687
     37          1           0        1.380939   -3.815846   -8.357576
     38          1           0       -0.864778   -2.978745   -7.764906
     39          1           0        0.084584   -3.129505   -3.580829
     40          1           0        2.291838   -3.902637   -2.073652
     41          6           0       -1.827521   -2.584387   -5.358912
     42          6           0       -2.968294   -2.252032   -5.128673
     43          6           0       -4.309243   -1.904506   -4.902629
     44          6           0       -5.216033   -1.790132   -5.968215
     45          6           0       -6.534427   -1.473838   -5.700833
     46          6           0       -6.930354   -1.275757   -4.386469
     47          7           0       -6.063579   -1.378864   -3.373658
     48          6           0       -4.789124   -1.680226   -3.607352
     49          1           0       -4.877188   -1.953924   -6.979137
     50          1           0       -7.252569   -1.382753   -6.499498
     51          1           0       -7.958258   -1.030015   -4.129035
     52          1           0       -4.132612   -1.756108   -2.743066
     53          6           0        4.622913    1.877169   -3.341465
     54          6           0        5.368201    0.928539   -3.440397
     55          6           0        6.353249   -0.071922   -3.580986
     56          6           0        6.759801   -0.489527   -4.833541
     57          6           0        7.852643   -1.351844   -4.983913
     58          6           0        8.573642   -1.784362   -3.898585
     59          6           0        8.188229   -1.396383   -2.602569
     60          6           0        8.895170   -1.763934   -1.435431
     61          6           0        8.462213   -1.341210   -0.210898
     62          7           0        7.327112   -0.613125   -0.060628
     63          6           0        6.643381   -0.247874   -1.129330
     64          6           0        7.042149   -0.567907   -2.434022
     65          1           0        6.243108   -0.124295   -5.707796
     66          1           0        8.144710   -1.655294   -5.977807
     67          1           0        9.440074   -2.414186   -4.024859
     68          1           0        9.784261   -2.367896   -1.521895
     69          1           0        9.003541   -1.576682    0.699963
     70          1           0        5.729856    0.323377   -0.978497
     71          6           0        3.875336    3.076743   -3.318708
     72          6           0        4.579335    4.256072   -3.627820
     73          6           0        3.940087    5.472478   -3.704156
     74          6           0        2.571393    5.499541   -3.474515
     75          7           0        1.703361    6.556467   -3.541397
     76          6           0        0.437110    6.117077   -3.284389
     77          6           0       -0.757674    6.827556   -3.283035
     78          6           0       -1.915980    6.139808   -3.007091
     79          6           0       -1.895326    4.760060   -2.726359
     80          6           0       -0.696507    4.047043   -2.718234
     81          6           0        0.474897    4.726275   -3.005196
     82          6           0        1.852843    4.326383   -3.137163
     83          6           0        2.509920    3.107029   -3.055082
     84          1           0        5.638731    4.192342   -3.824689
     85          1           0        4.482619    6.370657   -3.956256
     86          1           0        1.951641    7.495094   -3.806298
     87          1           0       -0.774970    7.883394   -3.505798
     88          1           0       -2.864695    6.654302   -3.010640
     89          1           0       -0.691374    2.989843   -2.509629
     90          1           0        1.974884    2.201010   -2.821633
     91          6           0       -3.119578    4.106054   -2.509346
     92          6           0       -4.198744    3.573212   -2.383120
     93          6           0       -5.445455    2.934628   -2.297945
     94          6           0       -6.645032    3.626168   -2.530599
     95          6           0       -7.841962    2.938062   -2.474741
     96          6           0       -7.833745    1.579864   -2.190283
     97          7           0       -6.692204    0.926263   -1.961522
     98          6           0       -5.526885    1.569255   -2.008006
     99          1           0       -6.619973    4.680866   -2.755235
    100          1           0       -8.777152    3.443521   -2.653187
    101          1           0       -8.749015    0.996922   -2.138058
    102          1           0       -4.628680    0.984088   -1.815699
    103          6           0       -4.711641    3.279275    1.966008
    104          6           0       -5.465586    2.494923    2.496520
    105          6           0       -6.456324    1.689807    3.097257
    106          6           0       -6.898675    1.963892    4.377512
    107          6           0       -7.993021    1.281400    4.921994
    108          6           0       -8.681358    0.343330    4.193310
    109          6           0       -8.261196    0.023512    2.889616
    110          6           0       -8.936201   -0.898462    2.058124
    111          6           0       -8.472690   -1.150921    0.798531
    112          7           0       -7.336600   -0.581944    0.322263
    113          6           0       -6.681537    0.286953    1.069812
    114          6           0       -7.112678    0.668678    2.347453
    115          1           0       -6.407214    2.732089    4.954494
    116          1           0       -8.312112    1.522698    5.924661
    117          1           0       -9.548902   -0.149139    4.603467
    118          1           0       -9.825396   -1.388211    2.421681
    119          1           0       -8.989018   -1.826106    0.123160
    120          1           0       -5.766829    0.716528    0.667110
    121          6           0       -3.960186    4.325070    1.382820
    122          6           0       -4.660599    5.516268    1.112779
    123          6           0       -4.020199    6.624792    0.608280
    124          6           0       -2.653225    6.535706    0.383948
    125          7           0       -1.784574    7.499080   -0.054307
    126          6           0       -0.520203    6.986763   -0.082898
    127          6           0        0.674334    7.612294   -0.420149
    128          6           0        1.831009    6.872366   -0.349557
    129          6           0        1.809224    5.520503    0.044945
    130          6           0        0.610557    4.888756    0.376163
    131          6           0       -0.559721    5.626080    0.318900
    132          6           0       -1.937274    5.337910    0.628587
    133          6           0       -2.596730    4.223114    1.126858
    134          1           0       -5.718725    5.555890    1.322920
    135          1           0       -4.560119    7.539112    0.415489
    136          1           0       -2.031360    8.453565   -0.256962
    137          1           0        0.692748    8.650310   -0.715239
    138          1           0        2.779809    7.327061   -0.590116
    139          1           0        0.604422    3.856041    0.683826
    140          1           0       -2.064241    3.310383    1.338847
    141          6           0        3.035131    4.842087    0.148033
    142          6           0        4.121396    4.322972    0.271151
    143          6           0        5.379930    3.738659    0.481325
    144          6           0        6.566492    4.471634    0.318645
    145          6           0        7.777925    3.861755    0.581877
    146          6           0        7.796875    2.539906    1.003890
    147          7           0        6.667685    1.842819    1.151167
    148          6           0        5.488778    2.408645    0.898525
    149          1           0        6.520462    5.500335   -0.002370
    150          1           0        8.703529    4.402406    0.468214
    151          1           0        8.724225    2.019537    1.226811
    152          1           0        4.601920    1.792131    1.037361
    153          6           0       -4.490826   -3.669923    3.317340
    154          6           0       -4.814143   -4.399092    2.407830
    155          6           0       -5.287126   -5.293349    1.424972
    156          6           0       -5.207984   -6.658083    1.627421
    157          6           0       -5.783239   -7.555327    0.720114
    158          6           0       -6.474378   -7.107330   -0.377990
    159          6           0       -6.575280   -5.726657   -0.626810
    160          6           0       -7.303043   -5.186479   -1.710762
    161          6           0       -7.348159   -3.834890   -1.896591
    162          7           0       -6.668651   -2.972074   -1.097867
    163          6           0       -5.995306   -3.438867   -0.062692
    164          6           0       -5.941180   -4.804715    0.255027
    165          1           0       -4.710034   -7.034607    2.507820
    166          1           0       -5.698962   -8.614877    0.908406
    167          1           0       -6.949728   -7.800958   -1.053516
    168          1           0       -7.827447   -5.849171   -2.380490
    169          1           0       -7.930416   -3.391685   -2.698461
    170          1           0       -5.464051   -2.721014    0.558383
    171          6           0       -4.184382   -2.847550    4.424516
    172          6           0       -5.151108   -2.734595    5.440417
    173          6           0       -4.922682   -1.971886    6.564721
    174          6           0       -3.700813   -1.320454    6.670120
    175          7           0       -3.221499   -0.524477    7.677706
    176          6           0       -1.947969   -0.131625    7.376129
    177          6           0       -1.066006    0.650854    8.113572
    178          6           0        0.187462    0.875459    7.591975
    179          6           0        0.568207    0.335961    6.347497
    180          6           0       -0.321822   -0.432778    5.596745
    181          6           0       -1.582986   -0.669589    6.114329
    182          6           0       -2.715627   -1.431295    5.657733
    183          6           0       -2.960622   -2.192984    4.525450
    184          1           0       -6.084945   -3.265045    5.331630
    185          1           0       -5.667076   -1.893571    7.342136
    186          1           0       -3.712551   -0.303807    8.528222
    187          1           0       -1.350191    1.059475    9.071364
    188          1           0        0.901084    1.468135    8.143867
    189          1           0       -0.022177   -0.842783    4.645847
    190          1           0       -2.219742   -2.292341    3.748721
    191          6           0        1.878213    0.554143    5.888023
    192          6           0        3.018548    0.721117    5.518530
    193          6           0        4.357132    0.905866    5.139143
    194          6           0        5.266188    1.560764    5.985123
    195          6           0        6.580949    1.700459    5.583175
    196          6           0        6.971018    1.192399    4.353041
    197          7           0        6.102356    0.573627    3.546688
    198          6           0        4.831553    0.428344    3.912248
    199          1           0        4.931764    1.942847    6.936842
    200          1           0        7.300647    2.196265    6.214027
    201          1           0        7.995465    1.276852    3.997179
    202          1           0        4.173506   -0.089597    3.217553
 ---------------------------------------------------------------------

 SCF Done:  E(RPBE1PBE) =  -5516.31938997     a.u. after   16 cycles
 SCF Done:  E(RPBE1PBE) =  -5516.31947460     A.U. after    9 cycles

 The electronic state is 1-A.
 Alpha  occ. eigenvalues --  -14.48882 -14.48870 -14.48859 -14.48855 -14.48360
 Alpha  occ. eigenvalues --  -14.48356 -14.48344 -14.48332 -14.45579 -14.45577
 Alpha  occ. eigenvalues --  -14.45250 -14.45243 -10.32214 -10.32210 -10.32208
 Alpha  occ. eigenvalues --  -10.32197 -10.32195 -10.32182 -10.32137 -10.32132
 Alpha  occ. eigenvalues --  -10.31751 -10.31743 -10.31655 -10.31653 -10.30839
 Alpha  occ. eigenvalues --  -10.30837 -10.30836 -10.30834 -10.30563 -10.30552
 Alpha  occ. eigenvalues --  -10.30499 -10.30493 -10.29634 -10.29630 -10.29601
 Alpha  occ. eigenvalues --  -10.29595 -10.29589 -10.29587 -10.29489 -10.29486
 Alpha  occ. eigenvalues --  -10.29223 -10.29218 -10.29146 -10.29142 -10.29056
 Alpha  occ. eigenvalues --  -10.29046 -10.28995 -10.28992 -10.28985 -10.28976
 Alpha  occ. eigenvalues --  -10.28976 -10.28974 -10.28858 -10.28857 -10.28838
 Alpha  occ. eigenvalues --  -10.28824 -10.28087 -10.28076 -10.28034 -10.28029
 Alpha  occ. eigenvalues --  -10.27697 -10.27695 -10.27688 -10.27686 -10.27288
 Alpha  occ. eigenvalues --  -10.27287 -10.27222 -10.27222 -10.27070 -10.27065
 Alpha  occ. eigenvalues --  -10.27065 -10.27062 -10.27010 -10.27007 -10.26996
 Alpha  occ. eigenvalues --  -10.26992 -10.26975 -10.26967 -10.26917 -10.26902
 Alpha  occ. eigenvalues --  -10.26736 -10.26736 -10.26734 -10.26731 -10.26412
 Alpha  occ. eigenvalues --  -10.26406 -10.26352 -10.26352 -10.26199 -10.26198
 Alpha  occ. eigenvalues --  -10.26187 -10.26162 -10.26012 -10.26011 -10.25998
 Alpha  occ. eigenvalues --  -10.25984 -10.25980 -10.25980 -10.25951 -10.25951
 Alpha  occ. eigenvalues --  -10.25948 -10.25941 -10.25852 -10.25851 -10.25816
 Alpha  occ. eigenvalues --  -10.25812 -10.25803 -10.25801 -10.25636 -10.25633
 Alpha  occ. eigenvalues --  -10.25601 -10.25594 -10.25553 -10.25551 -10.25534
 Alpha  occ. eigenvalues --  -10.25532 -10.25524 -10.25512 -10.25481 -10.25477
 Alpha  occ. eigenvalues --  -10.25469 -10.25462 -10.25363 -10.25362 -10.25354
 Alpha  occ. eigenvalues --  -10.25322 -10.25300 -10.25299 -10.25207 -10.25202
 Alpha  occ. eigenvalues --  -10.25200 -10.25170  -3.57251  -3.57223  -2.25157
 Alpha  occ. eigenvalues --   -2.25139  -2.25130  -2.25118  -2.20906  -2.20872
 Alpha  occ. eigenvalues --   -1.04140  -1.04132  -1.03500  -1.03497  -1.03249
 Alpha  occ. eigenvalues --   -1.03247  -1.03121  -1.03115  -1.03011  -1.02914
 Alpha  occ. eigenvalues --   -1.02848  -1.02843  -0.92559  -0.92558  -0.92505
 Alpha  occ. eigenvalues --   -0.92504  -0.90335  -0.90333  -0.90080  -0.89976
 Alpha  occ. eigenvalues --   -0.89973  -0.89972  -0.89739  -0.89541  -0.88405
 Alpha  occ. eigenvalues --   -0.88398  -0.88238  -0.88224  -0.85801  -0.85800
 Alpha  occ. eigenvalues --   -0.85785  -0.85783  -0.84281  -0.84270  -0.84145
 Alpha  occ. eigenvalues --   -0.84138  -0.83165  -0.83157  -0.83021  -0.83014
 Alpha  occ. eigenvalues --   -0.82841  -0.82838  -0.82714  -0.82702  -0.82229
 Alpha  occ. eigenvalues --   -0.82202  -0.82038  -0.81972  -0.80972  -0.80931
 Alpha  occ. eigenvalues --   -0.80873  -0.80711  -0.79693  -0.79661  -0.79475
 Alpha  occ. eigenvalues --   -0.79457  -0.77397  -0.77380  -0.77252  -0.77084
 Alpha  occ. eigenvalues --   -0.76076  -0.76070  -0.75814  -0.75802  -0.75314
 Alpha  occ. eigenvalues --   -0.75309  -0.75128  -0.75121  -0.71383  -0.71375
 Alpha  occ. eigenvalues --   -0.71206  -0.71180  -0.71049  -0.71046  -0.71019
 Alpha  occ. eigenvalues --   -0.70973  -0.69692  -0.69648  -0.69558  -0.69474
 Alpha  occ. eigenvalues --   -0.69259  -0.69184  -0.69082  -0.69048  -0.68798
 Alpha  occ. eigenvalues --   -0.68789  -0.68684  -0.68678  -0.67456  -0.67429
 Alpha  occ. eigenvalues --   -0.67343  -0.67269  -0.65737  -0.65730  -0.65580
 Alpha  occ. eigenvalues --   -0.65514  -0.64511  -0.64504  -0.64212  -0.64173
 Alpha  occ. eigenvalues --   -0.61944  -0.61938  -0.61720  -0.61607  -0.61527
 Alpha  occ. eigenvalues --   -0.61365  -0.60913  -0.60889  -0.59998  -0.59790
 Alpha  occ. eigenvalues --   -0.59719  -0.59674  -0.58198  -0.58122  -0.57934
 Alpha  occ. eigenvalues --   -0.57886  -0.57850  -0.57820  -0.57785  -0.57769
 Alpha  occ. eigenvalues --   -0.57584  -0.57496  -0.57337  -0.57295  -0.56658
 Alpha  occ. eigenvalues --   -0.56550  -0.56460  -0.56422  -0.56165  -0.56155
 Alpha  occ. eigenvalues --   -0.56056  -0.56040  -0.55683  -0.55679  -0.55415
 Alpha  occ. eigenvalues --   -0.55392  -0.54724  -0.54670  -0.54475  -0.54410
 Alpha  occ. eigenvalues --   -0.53039  -0.52982  -0.52932  -0.52814  -0.51974
 Alpha  occ. eigenvalues --   -0.51967  -0.51808  -0.51767  -0.51203  -0.51177
 Alpha  occ. eigenvalues --   -0.50765  -0.50746  -0.50716  -0.50706  -0.50671
 Alpha  occ. eigenvalues --   -0.50660  -0.50425  -0.50394  -0.49883  -0.49879
 Alpha  occ. eigenvalues --   -0.49832  -0.49830  -0.49376  -0.49363  -0.49186
 Alpha  occ. eigenvalues --   -0.49172  -0.49141  -0.49132  -0.48990  -0.48982
 Alpha  occ. eigenvalues --   -0.48732  -0.48243  -0.48236  -0.48044  -0.48035
 Alpha  occ. eigenvalues --   -0.47876  -0.47867  -0.47733  -0.47726  -0.47542
 Alpha  occ. eigenvalues --   -0.47538  -0.47453  -0.47379  -0.47363  -0.47331
 Alpha  occ. eigenvalues --   -0.47289  -0.47286  -0.47077  -0.46995  -0.46883
 Alpha  occ. eigenvalues --   -0.46859  -0.46832  -0.46825  -0.46813  -0.46623
 Alpha  occ. eigenvalues --   -0.46503  -0.45472  -0.45469  -0.45179  -0.45121
 Alpha  occ. eigenvalues --   -0.44575  -0.44573  -0.44553  -0.44551  -0.43557
 Alpha  occ. eigenvalues --   -0.43538  -0.43489  -0.43486  -0.43211  -0.43166
 Alpha  occ. eigenvalues --   -0.43056  -0.43051  -0.43022  -0.42970  -0.42904
 Alpha  occ. eigenvalues --   -0.42864  -0.42737  -0.42656  -0.42093  -0.42089
 Alpha  occ. eigenvalues --   -0.41675  -0.41671  -0.41457  -0.41453  -0.41387
 Alpha  occ. eigenvalues --   -0.41230  -0.41170  -0.41125  -0.40685  -0.40555
 Alpha  occ. eigenvalues --   -0.40421  -0.40417  -0.40312  -0.40129  -0.39845
 Alpha  occ. eigenvalues --   -0.39379  -0.39361  -0.39352  -0.39336  -0.39312
 Alpha  occ. eigenvalues --   -0.38849  -0.38773  -0.38246  -0.38242  -0.37961
 Alpha  occ. eigenvalues --   -0.37951  -0.37941  -0.37931  -0.37732  -0.37670
 Alpha  occ. eigenvalues --   -0.37450  -0.37384  -0.36889  -0.36836  -0.36698
 Alpha  occ. eigenvalues --   -0.36695  -0.36586  -0.36585  -0.36520  -0.36489
 Alpha  occ. eigenvalues --   -0.35594  -0.35420  -0.34416  -0.34191  -0.34145
 Alpha  occ. eigenvalues --   -0.34114  -0.33975  -0.33643  -0.33597  -0.33422
 Alpha  occ. eigenvalues --   -0.33396  -0.32874  -0.32795  -0.32677  -0.32421
 Alpha  occ. eigenvalues --   -0.32388  -0.32284  -0.31904  -0.31686  -0.31663
 Alpha  occ. eigenvalues --   -0.31428  -0.31419  -0.31197  -0.31188  -0.31054
 Alpha  occ. eigenvalues --   -0.31048  -0.30843  -0.30760  -0.30752  -0.30707
 Alpha  occ. eigenvalues --   -0.30049  -0.30043  -0.29685  -0.29592  -0.28820
 Alpha  occ. eigenvalues --   -0.28775  -0.27650  -0.27341  -0.27334  -0.26393
 Alpha  occ. eigenvalues --   -0.26054  -0.26031  -0.25924  -0.25885  -0.24695
 Alpha  occ. eigenvalues --   -0.24682  -0.24419  -0.24241  -0.23034  -0.23007
 Alpha  occ. eigenvalues --   -0.22970  -0.22348
 Alpha virt. eigenvalues --   -0.09920  -0.09918  -0.09683  -0.09678  -0.08644
 Alpha virt. eigenvalues --   -0.08565  -0.08281  -0.08105  -0.07273  -0.07239
 Alpha virt. eigenvalues --   -0.06714  -0.06658  -0.06542  -0.06503  -0.06110

 Mulliken charges:
               1
     1  Pd   0.489551
     2  Pd   0.488363
     3  C    0.028232
     4  C   -0.099339
     5  C   -0.013333
     6  C    0.006107
     7  C    0.013621
     8  C    0.006132
     9  C    0.034712
    10  C   -0.019365
    11  C    0.145993
    12  N   -0.329500
    13  C    0.178888
    14  C   -0.016228
    15  H    0.040042
    16  H    0.055038
    17  H    0.040346
    18  H    0.052914
    19  H    0.095320
    20  H    0.092591
    21  C   -0.088929
    22  C    0.002783
    23  C   -0.049961
    24  C    0.120803
    25  N   -0.121079
    26  C    0.120092
    27  C   -0.045767
    28  C    0.004008
    29  C   -0.082843
    30  C   -0.032578
    31  C    0.020499
    32  C    0.020723
    33  C   -0.028774
    34  H    0.032372
    35  H    0.025663
    36  H    0.167074
    37  H    0.026832
    38  H    0.033896
    39  H    0.021922
    40  H    0.020042
    41  C    0.012676
    42  C   -0.031763
    43  C   -0.117026
    44  C    0.100829
    45  C   -0.032436
    46  C    0.141852
    47  N   -0.316936
    48  C    0.180333
    49  H    0.061744
    50  H    0.070361
    51  H    0.107947
    52  H    0.096416
    53  C    0.034584
    54  C   -0.106954
    55  C   -0.010720
    56  C    0.005625
    57  C    0.012722
    58  C    0.005439
    59  C    0.037826
    60  C   -0.019767
    61  C    0.144103
    62  N   -0.331161
    63  C    0.176991
    64  C   -0.017718
    65  H    0.039833
    66  H    0.054874
    67  H    0.040018
    68  H    0.052670
    69  H    0.102888
    70  H    0.086786
    71  C   -0.080059
    72  C    0.000585
    73  C   -0.052603
    74  C    0.112778
    75  N   -0.119225
    76  C    0.113818
    77  C   -0.032764
    78  C    0.007644
    79  C   -0.082447
    80  C   -0.036071
    81  C    0.041995
    82  C    0.043466
    83  C   -0.032857
    84  H    0.029563
    85  H    0.021829
    86  H    0.162635
    87  H    0.019127
    88  H    0.026811
    89  H    0.013459
    90  H    0.014745
    91  C    0.034380
    92  C   -0.032389
    93  C   -0.122788
    94  C    0.103003
    95  C   -0.035123
    96  C    0.147804
    97  N   -0.317413
    98  C    0.168577
    99  H    0.059699
   100  H    0.069509
   101  H    0.111077
   102  H    0.092562
   103  C    0.032698
   104  C   -0.105643
   105  C   -0.010938
   106  C    0.005068
   107  C    0.012864
   108  C    0.005092
   109  C    0.037498
   110  C   -0.019537
   111  C    0.144245
   112  N   -0.331035
   113  C    0.175713
   114  C   -0.016198
   115  H    0.039827
   116  H    0.054900
   117  H    0.040009
   118  H    0.052642
   119  H    0.103146
   120  H    0.087214
   121  C   -0.079104
   122  C   -0.001909
   123  C   -0.051878
   124  C    0.110354
   125  N   -0.119889
   126  C    0.119142
   127  C   -0.040642
   128  C    0.011018
   129  C   -0.088216
   130  C   -0.029036
   131  C    0.036223
   132  C    0.045971
   133  C   -0.032221
   134  H    0.029817
   135  H    0.022097
   136  H    0.162893
   137  H    0.019353
   138  H    0.026820
   139  H    0.013393
   140  H    0.014602
   141  C    0.036081
   142  C   -0.030480
   143  C   -0.123457
   144  C    0.102276
   145  C   -0.035106
   146  C    0.147374
   147  N   -0.317791
   148  C    0.169321
   149  H    0.059455
   150  H    0.069441
   151  H    0.111340
   152  H    0.092160
   153  C    0.027639
   154  C   -0.098889
   155  C   -0.013456
   156  C    0.006270
   157  C    0.013470
   158  C    0.005941
   159  C    0.034941
   160  C   -0.019383
   161  C    0.145093
   162  N   -0.330003
   163  C    0.178813
   164  C   -0.015782
   165  H    0.039990
   166  H    0.055103
   167  H    0.040313
   168  H    0.052931
   169  H    0.096184
   170  H    0.092576
   171  C   -0.088765
   172  C    0.002943
   173  C   -0.050200
   174  C    0.121248
   175  N   -0.121199
   176  C    0.120281
   177  C   -0.045808
   178  C    0.004311
   179  C   -0.083121
   180  C   -0.032807
   181  C    0.020628
   182  C    0.020656
   183  C   -0.028963
   184  H    0.032330
   185  H    0.025613
   186  H    0.167059
   187  H    0.026899
   188  H    0.033857
   189  H    0.021883
   190  H    0.020109
   191  C    0.012643
   192  C   -0.031738
   193  C   -0.116799
   194  C    0.100882
   195  C   -0.032189
   196  C    0.141507
   197  N   -0.317031
   198  C    0.179733
   199  H    0.061796
   200  H    0.070389
   201  H    0.108485
   202  H    0.096419
 Sum of Mulliken charges =   4.00000

 Dipole moment (field-independent basis, Debye):
    X=              0.0599    Y=             -0.7538    Z=              0.0558  Tot=              0.7583
 Quadrupole moment (field-independent basis, Debye-Ang):
   XX=            167.1080   YY=           -417.1860   ZZ=           -415.8209
   XY=             23.2692   XZ=             78.5196   YZ=              7.6215

 Normal termination of Gaussian 16 at Fri Feb 26 13:16:37 2021.
