 Gaussian 16, Revision C.01,
 Gaussian 16:  ES64L-G16RevC.01  3-Jul-2019

 ------------------------------------------------------------------
 # SP PBE1PBE/def2svp empiricaldispersion=GD3BJ scrf=(solvent=dmso)
 ------------------------------------------------------------------

 ---------
 cis_l1_ld
 ---------
 Symbolic Z-matrix:
 Charge =  4 Multiplicity = 1

                         Standard orientation:
 ---------------------------------------------------------------------
 Center     Atomic      Atomic             Coordinates (Angstroms)
 Number     Number       Type             X           Y           Z
 ---------------------------------------------------------------------
      1         46           0       -7.549303   -0.114402   -0.041600
      2         46           0        7.549497   -0.113907   -0.041500
      3          6           0       -5.061402    1.563497   -0.477800
      4          7           0       -6.121702    1.304297    0.300200
      5          6           0       -6.216902    1.911998    1.496500
      6          6           0       -5.256702    2.792797    1.952800
      7          6           0       -4.122301    3.059497    1.171600
      8          6           0       -3.056801    3.939296    1.678800
      9          6           0       -3.385301    5.037397    2.503700
     10          6           0       -2.411500    5.855496    3.061900
     11          6           0       -1.091601    5.529996    2.786400
     12          8           0       -0.000200    6.180495    3.269800
     13          6           0        1.091199    5.529895    2.786600
     14          6           0        2.411100    5.855295    3.062300
     15          6           0        3.384899    5.037194    2.504200
     16          6           0        3.056399    3.939194    1.679200
     17          6           0        4.121999    3.059294    1.172000
     18          6           0        5.256398    2.792594    1.953400
     19          6           0        6.216598    1.911793    1.497000
     20          7           0        6.121598    1.304493    0.300600
     21          6           0        5.061298    1.563694   -0.477500
     22          6           0        4.049598    2.422294   -0.075900
     23          6           0        1.715599    3.653695    1.393300
     24          6           0        0.724399    4.448195    1.964700
     25          6           0       -0.724801    4.448196    1.964600
     26          6           0       -1.715901    3.653796    1.393100
     27          6           0       -4.049702    2.422197   -0.076300
     28          1           0       -5.030602    1.076097   -1.453800
     29          1           0       -7.090002    1.670698    2.106800
     30          1           0       -5.379301    3.234897    2.941500
     31          1           0       -4.435401    5.271397    2.688400
     32          1           0       -2.668200    6.711796    3.686100
     33          1           0        2.667700    6.711594    3.686500
     34          1           0        4.434999    5.271094    2.689100
     35          1           0        5.378799    3.234493    2.942200
     36          1           0        7.089598    1.670593    2.107400
     37          1           0        5.030598    1.076494   -1.453500
     38          1           0        3.216198    2.605394   -0.755100
     39          1           0        1.449298    2.795195    0.773900
     40          1           0       -1.449502    2.795296    0.773800
     41          1           0       -3.216302    2.605196   -0.755300
     42          6           0       -5.190903   -1.799603   -0.332200
     43          7           0       -6.147103   -1.465103    0.550600
     44          6           0       -6.138003   -2.026303    1.768500
     45          6           0       -5.164204   -2.938203    2.143500
     46          6           0       -4.139704   -3.281703    1.248600
     47          6           0       -3.063804   -4.212904    1.640000
     48          6           0       -3.384304   -5.373003    2.377100
     49          6           0       -2.405305   -6.260104    2.807500
     50          6           0       -1.090105   -5.928904    2.513900
     51          8           0        0.000295   -6.629305    2.921400
     52          6           0        1.090595   -5.928905    2.513900
     53          6           0        2.405795   -6.260105    2.807500
     54          6           0        3.384796   -5.373106    2.377100
     55          6           0        3.064296   -4.212906    1.640000
     56          6           0        4.140196   -3.281806    1.248600
     57          6           0        4.177497   -2.688706   -0.020800
     58          6           0        5.191297   -1.799506   -0.332200
     59          7           0        6.147497   -1.465007    0.550700
     60          6           0        6.138397   -2.026307    1.768500
     61          6           0        5.164696   -2.938206    2.143500
     62          6           0        1.729596   -3.922705    1.325500
     63          6           0        0.726896   -4.775905    1.791300
     64          6           0       -0.726404   -4.775904    1.791300
     65          6           0       -1.729004   -3.922704    1.325500
     66          6           0       -4.177003   -2.688703   -0.020800
     67          1           0       -5.253703   -1.349303   -1.324600
     68          1           0       -6.930203   -1.726802    2.457100
     69          1           0       -5.191204   -3.352403    3.152100
     70          1           0       -4.430504   -5.588903    2.603800
     71          1           0       -2.651705   -7.161904    3.368900
     72          1           0        2.652195   -7.161906    3.368800
     73          1           0        4.430996   -5.589006    2.603700
     74          1           0        3.436196   -2.938406   -0.781000
     75          1           0        5.254097   -1.349206   -1.324500
     76          1           0        6.930597   -1.726707    2.457100
     77          1           0        5.191796   -3.352506    3.152000
     78          1           0        1.476596   -3.015305    0.773400
     79          1           0       -1.476104   -3.015304    0.773400
     80          1           0       -3.435704   -2.938403   -0.781000
     81          6           0       11.069497   -2.265609    1.007200
     82          6           0       10.813096   -3.612308    0.646100
     83          6           0        9.571796   -3.895608    0.004100
     84          6           0        9.200996   -5.245908   -0.290600
     85          6           0       10.085995   -6.253808    0.033900
     86          6           0       11.338895   -5.966409    0.622900
     87          6           0       11.702196   -4.675309    0.931300
     88          6           0        7.843396   -5.520107   -0.816300
     89          6           0        6.909095   -6.170707    0.001000
     90          6           0        5.581895   -6.283607   -0.390400
     91          6           0        5.156995   -5.740406   -1.615700
     92          6           0        3.782595   -5.739306   -1.968800
     93          6           0        2.601095   -5.667306   -2.264700
     94          6           0        1.244696   -5.563305   -2.610900
     95          6           0        0.703396   -5.141805   -3.817700
     96          6           0       -0.702404   -5.141804   -3.817700
     97          6           0       -1.243704   -5.563304   -2.610900
     98          6           0       -2.600105   -5.667304   -2.264700
     99          6           0       -3.781605   -5.739403   -1.968800
    100          6           0       -5.156005   -5.740703   -1.615500
    101          6           0       -5.580705   -6.284003   -0.390200
    102          6           0       -6.907805   -6.171202    0.001300
    103          6           0       -7.842204   -5.520702   -0.815900
    104          6           0       -9.199904   -5.246801   -0.290000
    105          6           0       -9.570904   -3.896501    0.004600
    106          6           0      -10.812204   -3.613301    0.646700
    107          6           0      -11.068803   -2.266701    1.007600
    108          6           0      -10.142403   -1.294401    0.743900
    109          7           0       -8.972403   -1.572802    0.096600
    110          6           0       -8.702704   -2.816202   -0.256900
    111          6           0      -11.701004   -4.676501    0.932200
    112          6           0      -11.337505   -5.967501    0.623900
    113          6           0      -10.084605   -6.254801    0.034800
    114          6           0       -7.431304   -5.039802   -2.067600
    115          6           0       -6.106504   -5.145503   -2.466000
    116         16           0        0.000495   -5.959805   -1.468300
    117          6           0        6.107396   -5.145107   -2.466300
    118          6           0        7.432196   -5.039207   -2.068000
    119          6           0        8.703396   -2.815508   -0.257100
    120          7           0        8.972797   -1.572108    0.096500
    121          6           0       10.142797   -1.293408    0.743700
    122          1           0       11.995597   -2.000409    1.519400
    123          1           0        9.813195   -7.291708   -0.168800
    124          1           0       12.019295   -6.790409    0.848300
    125          1           0       12.660296   -4.459809    1.408200
    126          1           0        7.221395   -6.553707    0.975100
    127          1           0        4.854095   -6.765206    0.264400
    128          1           0        1.322696   -4.845905   -4.664500
    129          1           0       -1.321704   -4.845904   -4.664500
    130          1           0       -4.852705   -6.765403    0.264600
    131          1           0       -7.219905   -6.554202    0.975500
    132          1           0      -11.994903   -2.001500    1.519900
    133          1           0      -10.300303   -0.257001    1.040400
    134          1           0       -7.748704   -2.993702   -0.751200
    135          1           0      -12.659104   -4.461100    1.409100
    136          1           0      -12.017805   -6.791700    0.849400
    137          1           0       -9.811705   -7.292601   -0.167900
    138          1           0       -8.156104   -4.556002   -2.726700
    139          1           0       -5.789704   -4.744403   -3.430200
    140          1           0        5.790396   -4.744007   -3.430500
    141          1           0        8.156896   -4.555307   -2.727200
    142          1           0        7.749396   -2.993107   -0.751500
    143          1           0       10.300597   -0.256108    1.040300
    144          6           0       10.919198    1.693292   -2.023500
    145          6           0       10.701399    3.091092   -1.946600
    146          6           0        9.452299    3.521292   -1.412800
    147          6           0        9.104799    4.909792   -1.409800
    148          6           0       10.068099    5.819092   -1.806100
    149          6           0       11.333599    5.394291   -2.269200
    150          6           0       11.641699    4.056391   -2.374800
    151          6           0        7.728199    5.350093   -1.095200
    152          6           0        6.645999    4.773393   -1.781700
    153          6           0        5.350399    5.219893   -1.576100
    154          6           0        5.091100    6.259194   -0.663100
    155          6           0        3.757600    6.705894   -0.467300
    156          6           0        2.596700    7.044694   -0.302400
    157          6           0        1.246500    7.371695   -0.097400
    158          6           0        0.702800    8.339895    0.734500
    159          6           0       -0.704500    8.339996    0.734300
    160          6           0       -1.248000    7.371696   -0.097600
    161          6           0       -2.598200    7.044696   -0.302900
    162          6           0       -3.759100    6.705797   -0.467900
    163          6           0       -5.092500    6.258997   -0.663600
    164          6           0       -5.351701    5.219597   -1.576600
    165          6           0       -6.647301    4.772898   -1.782200
    166          6           0       -7.729501    5.349398   -1.095600
    167          6           0       -9.106001    4.908799   -1.410100
    168          6           0       -9.453201    3.520299   -1.413000
    169          6           0      -10.702201    3.089799   -1.946600
    170          6           0      -10.919602    1.691899   -2.023600
    171          6           0       -9.991002    0.819999   -1.523200
    172          7           0       -8.864402    1.246898   -0.877200
    173          6           0       -8.608102    2.544298   -0.847200
    174          6           0      -11.642801    4.054799   -2.374900
    175          6           0      -11.335001    5.392799   -2.269300
    176          6           0      -10.069601    5.817899   -1.806300
    177          6           0       -7.470300    6.384198   -0.185100
    178          6           0       -6.173000    6.830097    0.035900
    179         16           0       -0.000700    6.463295   -0.894100
    180          6           0        6.171500    6.830393    0.036500
    181          6           0        7.468900    6.384793   -0.184600
    182          6           0        8.607498    2.545092   -0.847100
    183          7           0        8.864198    1.247692   -0.877100
    184          6           0        9.990798    0.821092   -1.523100
    185          1           0       11.826198    1.301691   -2.486900
    186          1           0        9.827600    6.884392   -1.811900
    187          1           0       12.060300    6.145991   -2.585000
    188          1           0       12.601299    3.729591   -2.780100
    189          1           0        6.828099    3.983893   -2.514700
    190          1           0        4.523699    4.774294   -2.131500
    191          1           0        1.320301    9.009895    1.332600
    192          1           0       -1.322099    9.009896    1.332300
    193          1           0       -4.525001    4.774097   -2.132100
    194          1           0       -6.829301    3.983398   -2.515100
    195          1           0      -11.826502    1.299999   -2.486900
    196          1           0      -10.128003   -0.255601   -1.612600
    197          1           0       -7.703302    2.867698   -0.338300
    198          1           0      -12.602301    3.727700   -2.780100
    199          1           0      -12.061900    6.144200   -2.585100
    200          1           0       -9.829400    6.883299   -1.812200
    201          1           0       -8.297900    6.838498    0.364400
    202          1           0       -5.984900    7.630897    0.753300
    203          1           0        5.983400    7.631093    0.753900
    204          1           0        8.296400    6.839192    0.364900
    205          1           0        7.702598    2.868193   -0.338000
    206          1           0       10.128097   -0.254408   -1.612500
 ---------------------------------------------------------------------

 SCF Done:  E(RPBE1PBE) =  -6246.32801267     A.U. after   18 cycles

 The electronic state is 1-A.
 Alpha  occ. eigenvalues --  -89.06083 -89.05802 -19.30139 -19.30007 -14.48604
 Alpha  occ. eigenvalues --  -14.48602 -14.48405 -14.48405 -14.48366 -14.48366
 Alpha  occ. eigenvalues --  -14.48159 -14.48159 -10.32226 -10.32220 -10.32141
 Alpha  occ. eigenvalues --  -10.32140 -10.32026 -10.32021 -10.31978 -10.31977
 Alpha  occ. eigenvalues --  -10.31956 -10.31956 -10.31934 -10.31933 -10.31900
 Alpha  occ. eigenvalues --  -10.31899 -10.31820 -10.31819 -10.30951 -10.30950
 Alpha  occ. eigenvalues --  -10.30626 -10.30625 -10.30514 -10.30512 -10.30327
 Alpha  occ. eigenvalues --  -10.30325 -10.30278 -10.30278 -10.30214 -10.30214
 Alpha  occ. eigenvalues --  -10.29053 -10.29052 -10.28866 -10.28865 -10.28794
 Alpha  occ. eigenvalues --  -10.28793 -10.28608 -10.28607 -10.28535 -10.28534
 Alpha  occ. eigenvalues --  -10.28516 -10.28515 -10.28471 -10.28471 -10.28453
 Alpha  occ. eigenvalues --  -10.28453 -10.28174 -10.28174 -10.28172 -10.28171
 Alpha  occ. eigenvalues --  -10.28161 -10.28159 -10.28037 -10.28036 -10.27851
 Alpha  occ. eigenvalues --  -10.27849 -10.27701 -10.27700 -10.27613 -10.27612
 Alpha  occ. eigenvalues --  -10.27549 -10.27548 -10.27480 -10.27479 -10.27444
 Alpha  occ. eigenvalues --  -10.27443 -10.27416 -10.27405 -10.27353 -10.27337
 Alpha  occ. eigenvalues --  -10.27173 -10.27172 -10.27157 -10.27145 -10.27100
 Alpha  occ. eigenvalues --  -10.27099 -10.26995 -10.26994 -10.26990 -10.26971
 Alpha  occ. eigenvalues --  -10.26889 -10.26888 -10.26829 -10.26828 -10.26782
 Alpha  occ. eigenvalues --  -10.26781 -10.26759 -10.26758 -10.26690 -10.26686
 Alpha  occ. eigenvalues --  -10.26680 -10.26680 -10.26666 -10.26664 -10.26660
 Alpha  occ. eigenvalues --  -10.26629 -10.26537 -10.26536 -10.26492 -10.26458
 Alpha  occ. eigenvalues --  -10.26457 -10.26455 -10.26452 -10.26451 -10.26451
 Alpha  occ. eigenvalues --  -10.26448 -10.26435 -10.26434 -10.26419 -10.26418
 Alpha  occ. eigenvalues --  -10.26414 -10.26414 -10.26382 -10.26381 -10.26338
 Alpha  occ. eigenvalues --  -10.26338 -10.26277 -10.26276 -10.26259 -10.26259
 Alpha  occ. eigenvalues --  -10.26179 -10.26174  -8.06142  -8.05865  -6.00284
 Alpha  occ. eigenvalues --   -6.00012  -5.99897  -5.99624  -5.99569  -5.99287
 Alpha  occ. eigenvalues --   -3.56933  -3.56933  -2.24805  -2.24805  -2.24718
 Alpha  occ. eigenvalues --   -2.24717  -2.20557  -2.20557  -1.16461  -1.16208
 Alpha  occ. eigenvalues --   -1.03392  -1.03391  -1.02748  -1.02748  -1.02594
 Alpha  occ. eigenvalues --   -1.02594  -1.02208  -1.02207  -0.93812  -0.93572
 Alpha  occ. eigenvalues --   -0.92555  -0.92552  -0.92437  -0.92433  -0.91954
 Alpha  occ. eigenvalues --   -0.91821  -0.91545  -0.91393  -0.90477  -0.90464
 Alpha  occ. eigenvalues --   -0.90359  -0.90348  -0.87714  -0.87590  -0.87359
 Alpha  occ. eigenvalues --   -0.87213  -0.85592  -0.85500  -0.85429  -0.85341
 Alpha  occ. eigenvalues --   -0.83663  -0.83422  -0.83013  -0.82884  -0.82831
 Alpha  occ. eigenvalues --   -0.82768  -0.82678  -0.82598  -0.82533  -0.82453
 Alpha  occ. eigenvalues --   -0.82410  -0.82264  -0.82142  -0.81803  -0.81438
 Alpha  occ. eigenvalues --   -0.81162  -0.80577  -0.80397  -0.79578  -0.79356
 Alpha  occ. eigenvalues --   -0.78836  -0.78799  -0.78722  -0.78712  -0.78371
 Alpha  occ. eigenvalues --   -0.78241  -0.78177  -0.78157  -0.77999  -0.77906
 Alpha  occ. eigenvalues --   -0.77187  -0.76964  -0.76249  -0.76027  -0.73865
 Alpha  occ. eigenvalues --   -0.73685  -0.71072  -0.70930  -0.70918  -0.70805
 Alpha  occ. eigenvalues --   -0.70738  -0.70697  -0.70236  -0.70127  -0.69997
 Alpha  occ. eigenvalues --   -0.69634  -0.69607  -0.69296  -0.69064  -0.68873
 Alpha  occ. eigenvalues --   -0.68669  -0.68500  -0.68184  -0.68056  -0.67477
 Alpha  occ. eigenvalues --   -0.67399  -0.67338  -0.67107  -0.65002  -0.64941
 Alpha  occ. eigenvalues --   -0.64670  -0.64587  -0.64582  -0.64502  -0.64415
 Alpha  occ. eigenvalues --   -0.64299  -0.63233  -0.63174  -0.63124  -0.63052
 Alpha  occ. eigenvalues --   -0.62576  -0.62535  -0.62410  -0.62372  -0.61152
 Alpha  occ. eigenvalues --   -0.60992  -0.59942  -0.59303  -0.59241  -0.58399
 Alpha  occ. eigenvalues --   -0.58074  -0.58001  -0.57956  -0.57942  -0.57729
 Alpha  occ. eigenvalues --   -0.57698  -0.57276  -0.57146  -0.57006  -0.56946
 Alpha  occ. eigenvalues --   -0.56858  -0.56749  -0.56668  -0.56611  -0.56600
 Alpha  occ. eigenvalues --   -0.56571  -0.55961  -0.55806  -0.55741  -0.55654
 Alpha  occ. eigenvalues --   -0.55550  -0.55461  -0.55095  -0.54836  -0.54153
 Alpha  occ. eigenvalues --   -0.53765  -0.53096  -0.52902  -0.51857  -0.51633
 Alpha  occ. eigenvalues --   -0.51628  -0.51482  -0.51464  -0.51390  -0.51223
 Alpha  occ. eigenvalues --   -0.51208  -0.51190  -0.50972  -0.50934  -0.50801
 Alpha  occ. eigenvalues --   -0.50714  -0.50664  -0.50572  -0.50471  -0.50315
 Alpha  occ. eigenvalues --   -0.50097  -0.50010  -0.49750  -0.49676  -0.49605
 Alpha  occ. eigenvalues --   -0.49345  -0.49287  -0.48960  -0.48885  -0.48812
 Alpha  occ. eigenvalues --   -0.48739  -0.48665  -0.48650  -0.48612  -0.48505
 Alpha  occ. eigenvalues --   -0.48220  -0.48189  -0.48053  -0.47807  -0.47801
 Alpha  occ. eigenvalues --   -0.47721  -0.47561  -0.47553  -0.47478  -0.47437
 Alpha  occ. eigenvalues --   -0.47331  -0.47295  -0.47112  -0.46928  -0.46886
 Alpha  occ. eigenvalues --   -0.46677  -0.46602  -0.46493  -0.46421  -0.46320
 Alpha  occ. eigenvalues --   -0.45827  -0.45748  -0.45672  -0.45616  -0.45576
 Alpha  occ. eigenvalues --   -0.45555  -0.45511  -0.45417  -0.45354  -0.45193
 Alpha  occ. eigenvalues --   -0.44742  -0.44391  -0.44350  -0.44187  -0.44056
 Alpha  occ. eigenvalues --   -0.43894  -0.43617  -0.43430  -0.43407  -0.43329
 Alpha  occ. eigenvalues --   -0.43310  -0.43286  -0.42760  -0.42498  -0.42355
 Alpha  occ. eigenvalues --   -0.42319  -0.42292  -0.42132  -0.42092  -0.42055
 Alpha  occ. eigenvalues --   -0.41863  -0.41792  -0.41710  -0.41559  -0.41403
 Alpha  occ. eigenvalues --   -0.41357  -0.41242  -0.41222  -0.41181  -0.41150
 Alpha  occ. eigenvalues --   -0.41038  -0.40766  -0.40748  -0.40597  -0.40380
 Alpha  occ. eigenvalues --   -0.40149  -0.39934  -0.39695  -0.39676  -0.39544
 Alpha  occ. eigenvalues --   -0.38806  -0.38669  -0.38550  -0.38475  -0.38326
 Alpha  occ. eigenvalues --   -0.38261  -0.38097  -0.38079  -0.37904  -0.37763
 Alpha  occ. eigenvalues --   -0.37729  -0.37689  -0.37664  -0.37507  -0.37354
 Alpha  occ. eigenvalues --   -0.37211  -0.36953  -0.36853  -0.36581  -0.36318
 Alpha  occ. eigenvalues --   -0.36276  -0.35961  -0.35276  -0.35117  -0.35007
 Alpha  occ. eigenvalues --   -0.34981  -0.34861  -0.34423  -0.34116  -0.34034
 Alpha  occ. eigenvalues --   -0.33853  -0.33750  -0.33192  -0.33067  -0.32932
 Alpha  occ. eigenvalues --   -0.32900  -0.32322  -0.32295  -0.32216  -0.32107
 Alpha  occ. eigenvalues --   -0.31640  -0.31570  -0.31295  -0.31136  -0.31040
 Alpha  occ. eigenvalues --   -0.31002  -0.30686  -0.30608  -0.30520  -0.30513
 Alpha  occ. eigenvalues --   -0.30212  -0.30104  -0.29354  -0.29280  -0.29201
 Alpha  occ. eigenvalues --   -0.29177  -0.29140  -0.29051  -0.28887  -0.28857
 Alpha  occ. eigenvalues --   -0.28806  -0.28694  -0.28100  -0.27873  -0.27077
 Alpha  occ. eigenvalues --   -0.26854  -0.26325  -0.26183  -0.26070  -0.25891
 Alpha  occ. eigenvalues --   -0.25811  -0.25573  -0.22655  -0.22142
 Alpha virt. eigenvalues --   -0.10004  -0.09677  -0.09506  -0.09290  -0.09050
 Alpha virt. eigenvalues --   -0.08906  -0.08871  -0.08707  -0.08503  -0.08268
 Alpha virt. eigenvalues --   -0.08231  -0.07763  -0.06500  -0.06480  -0.06406

 Mulliken charges:
               1
     1  Pd   0.525558
     2  Pd   0.525568
     3  C    0.145045
     4  N   -0.350831
     5  C    0.133237
     6  C   -0.035909
     7  C    0.056830
     8  C    0.032117
     9  C   -0.026330
    10  C   -0.075781
    11  C    0.220899
    12  O   -0.269460
    13  C    0.220894
    14  C   -0.075761
    15  C   -0.026312
    16  C    0.032119
    17  C    0.056808
    18  C   -0.035884
    19  C    0.133280
    20  N   -0.350820
    21  C    0.145096
    22  C   -0.046407
    23  C   -0.055874
    24  C    0.025291
    25  C    0.025365
    26  C   -0.055893
    27  C   -0.046307
    28  H    0.094768
    29  H    0.117287
    30  H    0.064855
    31  H    0.049739
    32  H    0.042770
    33  H    0.042753
    34  H    0.049741
    35  H    0.064856
    36  H    0.117252
    37  H    0.094728
    38  H    0.067719
    39  H    0.035103
    40  H    0.035076
    41  H    0.067635
    42  C    0.144875
    43  N   -0.340817
    44  C    0.149378
    45  C   -0.036652
    46  C    0.041240
    47  C    0.009554
    48  C   -0.036234
    49  C   -0.068943
    50  C    0.200834
    51  O   -0.260617
    52  C    0.200812
    53  C   -0.068910
    54  C   -0.036147
    55  C    0.009550
    56  C    0.041233
    57  C   -0.024573
    58  C    0.144936
    59  N   -0.340813
    60  C    0.149346
    61  C   -0.036602
    62  C   -0.037886
    63  C    0.022501
    64  C    0.022573
    65  C   -0.037899
    66  C   -0.024551
    67  H    0.100367
    68  H    0.112598
    69  H    0.066332
    70  H    0.054180
    71  H    0.047198
    72  H    0.047162
    73  H    0.054165
    74  H    0.065267
    75  H    0.100322
    76  H    0.112593
    77  H    0.066290
    78  H    0.037485
    79  H    0.037475
    80  H    0.065273
    81  C   -0.023411
    82  C    0.036362
    83  C   -0.011181
    84  C    0.027574
    85  C   -0.022414
    86  C    0.003278
    87  C   -0.004636
    88  C   -0.080224
    89  C    0.016216
    90  C    0.005462
    91  C   -0.085120
    92  C   -0.032936
    93  C    0.032307
    94  C   -0.194454
    95  C    0.030479
    96  C    0.030479
    97  C   -0.194451
    98  C    0.032273
    99  C   -0.032929
   100  C   -0.085100
   101  C    0.005456
   102  C    0.016180
   103  C   -0.080169
   104  C    0.027632
   105  C   -0.011283
   106  C    0.036418
   107  C   -0.023448
   108  C    0.109378
   109  N   -0.343652
   110  C    0.163315
   111  C   -0.004604
   112  C    0.003237
   113  C   -0.022426
   114  C   -0.032408
   115  C    0.007680
   116  S    0.208422
   117  C    0.007669
   118  C   -0.032420
   119  C    0.163226
   120  N   -0.343632
   121  C    0.109426
   122  H    0.060344
   123  H    0.045684
   124  H    0.061007
   125  H    0.047175
   126  H    0.041799
   127  H    0.043650
   128  H    0.051972
   129  H    0.051972
   130  H    0.043670
   131  H    0.041816
   132  H    0.060365
   133  H    0.112258
   134  H    0.107572
   135  H    0.047157
   136  H    0.061056
   137  H    0.045642
   138  H    0.050320
   139  H    0.041299
   140  H    0.041330
   141  H    0.050342
   142  H    0.107597
   143  H    0.112227
   144  C   -0.031358
   145  C    0.037824
   146  C   -0.040493
   147  C    0.049604
   148  C   -0.020184
   149  C    0.003134
   150  C   -0.006321
   151  C   -0.051816
   152  C   -0.041997
   153  C    0.018916
   154  C   -0.094261
   155  C   -0.023296
   156  C    0.046510
   157  C   -0.205557
   158  C    0.037985
   159  C    0.038037
   160  C   -0.205568
   161  C    0.046536
   162  C   -0.023298
   163  C   -0.094310
   164  C    0.018898
   165  C   -0.041977
   166  C   -0.051819
   167  C    0.049575
   168  C   -0.040513
   169  C    0.037758
   170  C   -0.031312
   171  C    0.115082
   172  N   -0.317738
   173  C    0.151634
   174  C   -0.006293
   175  C    0.003155
   176  C   -0.020175
   177  C   -0.014377
   178  C    0.011434
   179  S    0.195488
   180  C    0.011453
   181  C   -0.014374
   182  C    0.151529
   183  N   -0.317762
   184  C    0.115138
   185  H    0.059729
   186  H    0.046840
   187  H    0.060162
   188  H    0.046364
   189  H    0.053374
   190  H    0.040011
   191  H    0.049210
   192  H    0.049179
   193  H    0.040024
   194  H    0.053335
   195  H    0.059724
   196  H    0.105913
   197  H    0.103213
   198  H    0.046347
   199  H    0.060121
   200  H    0.046857
   201  H    0.041761
   202  H    0.040274
   203  H    0.040237
   204  H    0.041749
   205  H    0.103249
   206  H    0.105894
 Sum of Mulliken charges =   4.00000

 Dipole moment (field-independent basis, Debye):
    X=              0.0016    Y=             -2.0199    Z=              4.6841  Tot=              5.1011
 Quadrupole moment (field-independent basis, Debye-Ang):
   XX=            515.5282   YY=           -519.3887   ZZ=           -711.8462
   XY=              0.0347   XZ=             -0.0046   YZ=            -17.7172

 Normal termination of Gaussian 16 at Fri Jun  2 05:45:55 2023.
