 Gaussian 16, Revision C.01,
 Gaussian 16:  ES64L-G16RevC.01  3-Jul-2019

 ----------------------------------------------------------------------
 #P PBE1PBE/Def2SVP SP SCF=(YQC,MaxCycle=900) int=(Grid=Superfinegrid)
 EmpiricalDispersion=GD3BJ SCRF=(PCM,Solvent=DiMethylSulfoxide)
 ----------------------------------------------------------------------

 --------
 _s_5a3_d
 --------
 Symbolic Z-matrix:
 Charge =  4 Multiplicity = 1

                         Standard orientation:
 ---------------------------------------------------------------------
 Center     Atomic      Atomic             Coordinates (Angstroms)
 Number     Number       Type             X           Y           Z
 ---------------------------------------------------------------------
      1         46           0        6.648328   -0.009899   -0.004370
      2         46           0       -6.648578   -0.008072    0.000136
      3          6           0       -3.442126   -5.035025   -4.964364
      4          6           0       -4.579570   -4.746581   -4.671517
      5          6           0       -5.887886   -4.381524   -4.301814
      6          6           0       -6.991899   -4.982446   -4.881159
      7          6           0       -8.290419   -4.615538   -4.509846
      8          6           0       -8.508338   -3.649622   -3.561043
      9          6           0       -7.409727   -3.012460   -2.946341
     10          6           0       -7.565968   -2.013622   -1.965512
     11          7           0       -6.544467   -1.418151   -1.390527
     12          6           0       -5.275290   -1.757536   -1.734516
     13          6           0       -5.015253   -2.713382   -2.674169
     14          6           0       -6.083088   -3.375357   -3.313747
     15          1           0       -6.846728   -5.745684   -5.630696
     16          1           0       -9.126515   -5.106600   -4.983671
     17          1           0       -9.511419   -3.371412   -3.279364
     18          1           0       -8.561020   -1.706813   -1.655804
     19          1           0       -4.478864   -1.221300   -1.215960
     20          1           0       -4.003865   -2.975438   -2.940158
     21          6           0       -2.112542   -5.362563   -5.298098
     22          6           0       -1.856089   -6.350303   -6.280134
     23          6           0       -0.571912   -6.673219   -6.609695
     24          6           0        0.522464   -6.036081   -5.985293
     25          6           0        1.859660   -6.353069   -6.309755
     26          6           0        2.900917   -5.723688   -5.692736
     27          6           0        2.652851   -4.734536   -4.708698
     28          6           0        1.356635   -4.404440   -4.371396
     29          6           0        0.269865   -5.043440   -4.998010
     30          6           0       -1.061635   -4.724403   -4.672080
     31          1           0       -2.689001   -6.841100   -6.761241
     32          1           0       -0.374882   -7.426730   -7.358952
     33          1           0        2.045216   -7.107875   -7.060395
     34          1           0        3.920930   -5.970733   -5.945628
     35          1           0        1.165994   -3.651283   -3.622388
     36          1           0       -1.252676   -3.971233   -3.923065
     37          6           0        3.744640   -4.099264   -4.085685
     38          6           0        4.686074   -3.557720   -3.553647
     39          6           0        5.815281   -2.959006   -2.965719
     40          6           0        7.109358   -3.333110   -3.354517
     41          6           0        8.195918   -2.723535   -2.753576
     42          6           0        7.977838   -1.759063   -1.782589
     43          7           0        6.741619   -1.404152   -1.414075
     44          6           0        5.683123   -1.976768   -1.978521
     45          1           0        7.244741   -4.087726   -4.113514
     46          1           0        9.201636   -2.992305   -3.033716
     47          1           0        8.804647   -1.253556   -1.283084
     48          1           0        4.703926   -1.650029   -1.640627
     49          6           0        3.441065   -5.023951    4.972547
     50          6           0        4.578592   -4.737769    4.677713
     51          6           0        5.886927   -4.374611    4.306327
     52          6           0        6.990824   -4.974757    4.886706
     53          6           0        8.289489   -4.609632    4.513746
     54          6           0        8.507548   -3.646189    3.562435
     55          6           0        7.408923   -3.009877    2.946685
     56          6           0        7.565369   -2.013322    1.963500
     57          7           0        6.544028   -1.418622    1.387630
     58          6           0        5.274789   -1.756580    1.732728
     59          6           0        5.014561   -2.710208    2.674714
     60          6           0        6.082195   -3.371095    3.315526
     61          1           0        6.845565   -5.735929    5.638165
     62          1           0        9.125457   -5.100034    4.988353
     63          1           0        9.510587   -3.369281    3.279574
     64          1           0        8.560459   -1.707685    1.652782
     65          1           0        4.478438   -1.221261    1.213188
     66          1           0        4.003163   -2.971141    2.941739
     67          6           0        2.111349   -5.348884    5.308358
     68          6           0        1.854589   -6.330894    6.296102
     69          6           0        0.570390   -6.651107    6.627913
     70          6           0       -0.523809   -6.016892    6.000182
     71          6           0       -1.861139   -6.331141    6.326863
     72          6           0       -2.902125   -5.704670    5.706572
     73          6           0       -2.653759   -4.721239    4.716892
     74          6           0       -1.357550   -4.393840    4.377312
     75          6           0       -0.270883   -5.030018    5.007214
     76          6           0        1.060681   -4.713783    4.679029
     77          1           0        2.687375   -6.819389    6.779772
     78          1           0        0.373032   -7.400062    7.381556
     79          1           0       -2.046913   -7.081565    7.081890
     80          1           0       -3.922325   -5.949666    5.961024
     81          1           0       -1.166604   -3.645237    3.623937
     82          1           0        1.252032   -3.965052    3.925644
     83          6           0       -3.745484   -4.088692    4.090646
     84          6           0       -4.686645   -3.549019    3.556585
     85          6           0       -5.815756   -2.952579    2.966153
     86          6           0       -7.110051   -3.326910    3.354560
     87          6           0       -8.196482   -2.719235    2.751659
     88          6           0       -7.978304   -1.756228    1.779275
     89          7           0       -6.742129   -1.401130    1.410978
     90          6           0       -5.683651   -1.972093    1.977332
     91          1           0       -7.245397   -4.080308    4.114758
     92          1           0       -9.202222   -2.988356    3.031391
     93          1           0       -8.805076   -1.252120    1.278241
     94          1           0       -4.704351   -1.645311    1.639456
     95          6           0       -3.438758    5.039795    4.940152
     96          6           0       -4.576598    4.748450    4.651674
     97          6           0       -5.885313    4.379932    4.286658
     98          6           0       -6.988779    4.982420    4.865335
     99          6           0       -8.287680    4.612185    4.498275
    100          6           0       -8.506326    3.641743    3.554245
    101          6           0       -7.408164    3.003010    2.940335
    102          6           0       -7.565100    1.999901    1.963998
    103          7           0       -6.544028    1.402961    1.390003
    104          6           0       -5.274646    1.744487    1.730704
    105          6           0       -5.013858    2.704830    2.665743
    106          6           0       -6.081253    3.368776    3.303819
    107          1           0       -6.843096    5.749392    5.610943
    108          1           0       -9.123405    5.104429    4.971489
    109          1           0       -9.509647    3.361187    3.275757
    110          1           0       -8.560339    1.691058    1.656895
    111          1           0       -4.478511    1.206397    1.213659
    112          1           0       -4.002340    2.968784    2.929030
    113          6           0       -2.108790    5.370622    5.269064
    114          6           0       -1.851264    6.366993    6.242045
    115          6           0       -0.566751    6.693093    6.566961
    116          6           0        0.526983    6.050930    5.946573
    117          6           0        1.864449    6.371076    6.266435
    118          6           0        2.905129    5.736498    5.653748
    119          6           0        2.655927    4.738672    4.678815
    120          6           0        1.359434    4.405452    4.345888
    121          6           0        0.273306    5.049618    4.968277
    122          6           0       -1.058546    4.727483    4.647020
    123          1           0       -2.683724    6.861601    6.720159
    124          1           0       -0.368911    7.453267    7.309320
    125          1           0        2.050848    7.132509    7.010244
    126          1           0        3.925435    5.985918    5.903111
    127          1           0        1.168017    3.645713    3.603753
    128          1           0       -1.250363    3.967757    3.904893
    129          6           0        3.747237    4.097843    4.060346
    130          6           0        4.688321    3.551600    3.532733
    131          6           0        5.817080    2.948083    2.948880
    132          6           0        7.111558    3.321525    3.337514
    133          6           0        8.197613    2.707558    2.740287
    134          6           0        7.978944    1.739667    1.772914
    135          7           0        6.742485    1.385356    1.404572
    136          6           0        5.684398    1.961912    1.965777
    137          1           0        7.247309    4.079190    4.093455
    138          1           0        9.203456    2.975622    3.020477
    139          1           0        8.805311    1.230810    1.276258
    140          1           0        4.704957    1.635107    1.628513
    141          6           0        3.440014    5.039991   -4.943255
    142          6           0        4.577871    4.748587   -4.654699
    143          6           0        5.886427    4.379434   -4.289796
    144          6           0        6.990074    4.982163   -4.867780
    145          6           0        8.288911    4.611539   -4.500821
    146          6           0        8.507257    3.640294   -3.557560
    147          6           0        7.408837    3.001200   -2.944251
    148          6           0        7.565443    1.997517   -1.968507
    149          7           0        6.544258    1.400353   -1.395008
    150          6           0        5.274848    1.742141   -1.735985
    151          6           0        5.014390    2.703096   -2.670421
    152          6           0        6.082001    3.367516   -3.307683
    153          1           0        6.844656    5.749783   -5.612826
    154          1           0        9.124791    5.103977   -4.973559
    155          1           0        9.510390    3.359340   -3.278989
    156          1           0        8.560645    1.688434   -1.661451
    157          1           0        4.478644    1.203605   -1.219590
    158          1           0        4.002966    2.967251   -2.933749
    159          6           0        2.110140    5.371402   -5.271744
    160          6           0        1.852835    6.369032   -6.243577
    161          6           0        0.568407    6.695755   -6.568173
    162          6           0       -0.525525    6.052933   -5.948691
    163          6           0       -1.862905    6.373570   -6.268479
    164          6           0       -2.903682    5.738379   -5.656610
    165          6           0       -2.654788    4.739450   -4.682679
    166          6           0       -1.358344    4.405691   -4.350120
    167          6           0       -0.272095    5.050331   -4.971703
    168          6           0        1.059737    4.727644   -4.650627
    169          1           0        2.685419    6.864138   -6.720995
    170          1           0        0.370699    7.456740   -7.309611
    171          1           0       -2.049089    7.135840   -7.011435
    172          1           0       -3.923940    5.988127   -5.905880
    173          1           0       -1.167032    3.645049   -3.608858
    174          1           0        1.251445    3.966916   -3.909441
    175          6           0       -3.746187    4.098414   -4.064776
    176          6           0       -4.687462    3.551977   -3.537596
    177          6           0       -5.816449    2.948592   -2.953967
    178          6           0       -7.110678    3.322001   -3.343158
    179          6           0       -8.197044    2.708192   -2.746093
    180          6           0       -7.978660    1.740440   -1.778447
    181          7           0       -6.742301    1.386107   -1.409719
    182          6           0       -5.684054    1.962523   -1.970821
    183          1           0       -7.246314    4.079451   -4.099219
    184          1           0       -9.202832    2.976300   -3.026538
    185          1           0       -8.805250    1.231790   -1.281818
    186          1           0       -4.704713    1.635677   -1.633147
 ---------------------------------------------------------------------

 SCF Done:  E(RPBE1PBE) =  -4990.85403598     a.u. after   26 cycles
 SCF Done:  E(RPBE1PBE) =  -4990.85412051     A.U. after   10 cycles

 The electronic state is 1-A.
 Alpha  occ. eigenvalues --  -14.49033 -14.49033 -14.49030 -14.49030 -14.48584
 Alpha  occ. eigenvalues --  -14.48584 -14.48581 -14.48581 -10.32500 -10.32500
 Alpha  occ. eigenvalues --  -10.32499 -10.32498 -10.32485 -10.32485 -10.32484
 Alpha  occ. eigenvalues --  -10.32484 -10.32002 -10.32001 -10.32000 -10.31999
 Alpha  occ. eigenvalues --  -10.31154 -10.31153 -10.31151 -10.31150 -10.30806
 Alpha  occ. eigenvalues --  -10.30805 -10.30805 -10.30804 -10.29424 -10.29423
 Alpha  occ. eigenvalues --  -10.29423 -10.29423 -10.29318 -10.29318 -10.29318
 Alpha  occ. eigenvalues --  -10.29317 -10.29307 -10.29307 -10.29306 -10.29305
 Alpha  occ. eigenvalues --  -10.28879 -10.28879 -10.28878 -10.28877 -10.28261
 Alpha  occ. eigenvalues --  -10.28260 -10.28260 -10.28260 -10.28224 -10.28223
 Alpha  occ. eigenvalues --  -10.28223 -10.28222 -10.28160 -10.28160 -10.28160
 Alpha  occ. eigenvalues --  -10.28159 -10.27855 -10.27854 -10.27854 -10.27853
 Alpha  occ. eigenvalues --  -10.27530 -10.27530 -10.27528 -10.27528 -10.27348
 Alpha  occ. eigenvalues --  -10.27347 -10.27347 -10.27347 -10.26818 -10.26818
 Alpha  occ. eigenvalues --  -10.26817 -10.26817 -10.26809 -10.26809 -10.26808
 Alpha  occ. eigenvalues --  -10.26807 -10.26791 -10.26790 -10.26790 -10.26789
 Alpha  occ. eigenvalues --  -10.26771 -10.26770 -10.26770 -10.26770 -10.26565
 Alpha  occ. eigenvalues --  -10.26565 -10.26564 -10.26564 -10.26411 -10.26410
 Alpha  occ. eigenvalues --  -10.26409 -10.26408 -10.26327 -10.26327 -10.26326
 Alpha  occ. eigenvalues --  -10.26325 -10.26205 -10.26204 -10.26204 -10.26203
 Alpha  occ. eigenvalues --  -10.26092 -10.26092 -10.26091 -10.26091 -10.26041
 Alpha  occ. eigenvalues --  -10.26040 -10.26040 -10.26040 -10.25869 -10.25868
 Alpha  occ. eigenvalues --  -10.25868 -10.25867 -10.25708 -10.25708 -10.25707
 Alpha  occ. eigenvalues --  -10.25707 -10.25680 -10.25680 -10.25680 -10.25679
 Alpha  occ. eigenvalues --   -3.57505  -3.57505  -2.25417  -2.25417  -2.25409
 Alpha  occ. eigenvalues --   -2.25409  -2.21230  -2.21230  -1.04316  -1.04316
 Alpha  occ. eigenvalues --   -1.03768  -1.03767  -1.03389  -1.03389  -1.03269
 Alpha  occ. eigenvalues --   -1.03269  -0.92942  -0.92939  -0.92932  -0.92931
 Alpha  occ. eigenvalues --   -0.92769  -0.92766  -0.92719  -0.92718  -0.89051
 Alpha  occ. eigenvalues --   -0.89040  -0.88973  -0.88972  -0.88412  -0.88400
 Alpha  occ. eigenvalues --   -0.88317  -0.88317  -0.85511  -0.85508  -0.85508
 Alpha  occ. eigenvalues --   -0.85504  -0.84480  -0.84478  -0.84460  -0.84460
 Alpha  occ. eigenvalues --   -0.83996  -0.83976  -0.83873  -0.83871  -0.83066
 Alpha  occ. eigenvalues --   -0.83024  -0.83021  -0.83019  -0.81365  -0.81364
 Alpha  occ. eigenvalues --   -0.81362  -0.81349  -0.80891  -0.80860  -0.80859
 Alpha  occ. eigenvalues --   -0.80803  -0.79167  -0.79131  -0.79131  -0.79088
 Alpha  occ. eigenvalues --   -0.76599  -0.76581  -0.76581  -0.76551  -0.75483
 Alpha  occ. eigenvalues --   -0.75478  -0.75478  -0.75467  -0.71662  -0.71569
 Alpha  occ. eigenvalues --   -0.71567  -0.71552  -0.71344  -0.71301  -0.71299
 Alpha  occ. eigenvalues --   -0.71222  -0.69619  -0.69608  -0.69279  -0.69279
 Alpha  occ. eigenvalues --   -0.69068  -0.69067  -0.68931  -0.68930  -0.68740
 Alpha  occ. eigenvalues --   -0.68707  -0.68707  -0.68688  -0.67208  -0.67178
 Alpha  occ. eigenvalues --   -0.67178  -0.67176  -0.65870  -0.65867  -0.65863
 Alpha  occ. eigenvalues --   -0.65863  -0.63910  -0.63910  -0.63909  -0.63909
 Alpha  occ. eigenvalues --   -0.61946  -0.61881  -0.60946  -0.60945  -0.60512
 Alpha  occ. eigenvalues --   -0.60366  -0.60131  -0.60130  -0.58596  -0.58464
 Alpha  occ. eigenvalues --   -0.58291  -0.58276  -0.58262  -0.58261  -0.58020
 Alpha  occ. eigenvalues --   -0.58019  -0.56961  -0.56915  -0.56723  -0.56722
 Alpha  occ. eigenvalues --   -0.56657  -0.56626  -0.56300  -0.56297  -0.56161
 Alpha  occ. eigenvalues --   -0.56139  -0.56009  -0.56008  -0.55258  -0.55256
 Alpha  occ. eigenvalues --   -0.55256  -0.55256  -0.54445  -0.54427  -0.54385
 Alpha  occ. eigenvalues --   -0.54384  -0.52621  -0.52606  -0.51856  -0.51856
 Alpha  occ. eigenvalues --   -0.51770  -0.51769  -0.51599  -0.51592  -0.51321
 Alpha  occ. eigenvalues --   -0.51321  -0.51114  -0.51109  -0.50319  -0.50318
 Alpha  occ. eigenvalues --   -0.50312  -0.50294  -0.49630  -0.49541  -0.49455
 Alpha  occ. eigenvalues --   -0.49454  -0.49334  -0.49298  -0.49130  -0.49128
 Alpha  occ. eigenvalues --   -0.48844  -0.48843  -0.48660  -0.48658  -0.48657
 Alpha  occ. eigenvalues --   -0.48629  -0.48153  -0.48152  -0.48152  -0.48151
 Alpha  occ. eigenvalues --   -0.48039  -0.48039  -0.47291  -0.47289  -0.47288
 Alpha  occ. eigenvalues --   -0.47286  -0.47177  -0.47171  -0.46895  -0.46895
 Alpha  occ. eigenvalues --   -0.45798  -0.45794  -0.45508  -0.45508  -0.45502
 Alpha  occ. eigenvalues --   -0.45500  -0.45417  -0.45416  -0.45414  -0.45413
 Alpha  occ. eigenvalues --   -0.44611  -0.44577  -0.44575  -0.44513  -0.44513
 Alpha  occ. eigenvalues --   -0.44488  -0.43903  -0.43901  -0.43539  -0.43501
 Alpha  occ. eigenvalues --   -0.43498  -0.43401  -0.43399  -0.43265  -0.42798
 Alpha  occ. eigenvalues --   -0.42797  -0.42184  -0.42183  -0.42125  -0.42116
 Alpha  occ. eigenvalues --   -0.41971  -0.41970  -0.41857  -0.41849  -0.41107
 Alpha  occ. eigenvalues --   -0.40696  -0.40696  -0.40458  -0.40203  -0.40202
 Alpha  occ. eigenvalues --   -0.39623  -0.39623  -0.39552  -0.39473  -0.39470
 Alpha  occ. eigenvalues --   -0.38708  -0.38707  -0.38705  -0.38702  -0.38584
 Alpha  occ. eigenvalues --   -0.38572  -0.38572  -0.37345  -0.37342  -0.37337
 Alpha  occ. eigenvalues --   -0.37030  -0.37030  -0.36960  -0.36960  -0.36697
 Alpha  occ. eigenvalues --   -0.36696  -0.36594  -0.36034  -0.36023  -0.35685
 Alpha  occ. eigenvalues --   -0.35635  -0.34627  -0.34614  -0.34276  -0.34179
 Alpha  occ. eigenvalues --   -0.34170  -0.34107  -0.34106  -0.33764  -0.33530
 Alpha  occ. eigenvalues --   -0.33529  -0.33279  -0.32992  -0.32675  -0.32674
 Alpha  occ. eigenvalues --   -0.32020  -0.32001  -0.31656  -0.31644  -0.31596
 Alpha  occ. eigenvalues --   -0.31585  -0.31383  -0.31376  -0.31109  -0.31070
 Alpha  occ. eigenvalues --   -0.31056  -0.31032  -0.31029  -0.30800  -0.30637
 Alpha  occ. eigenvalues --   -0.30405  -0.30403  -0.30167  -0.28958  -0.28956
 Alpha  occ. eigenvalues --   -0.28239  -0.28166  -0.28164  -0.28008  -0.25200
 Alpha  occ. eigenvalues --   -0.25138  -0.25137  -0.25053  -0.24123  -0.24104
 Alpha  occ. eigenvalues --   -0.24104  -0.24060
 Alpha virt. eigenvalues --   -0.10131  -0.10129  -0.10117  -0.09990  -0.09317
 Alpha virt. eigenvalues --   -0.09313  -0.09229  -0.08976  -0.07504  -0.07497
 Alpha virt. eigenvalues --   -0.07280  -0.07218  -0.07213  -0.07115  -0.06790

 Mulliken charges:
               1
     1  Pd   0.498213
     2  Pd   0.498241
     3  C    0.009277
     4  C   -0.063790
     5  C   -0.019667
     6  C    0.019264
     7  C   -0.001405
     8  C    0.020176
     9  C   -0.065437
    10  C    0.182206
    11  N   -0.321315
    12  C    0.145933
    13  C   -0.010148
    14  C    0.068182
    15  H    0.043604
    16  H    0.054410
    17  H    0.043927
    18  H    0.084009
    19  H    0.104785
    20  H    0.048852
    21  C   -0.063222
    22  C    0.025845
    23  C   -0.011446
    24  C    0.006027
    25  C   -0.011028
    26  C    0.025589
    27  C   -0.070383
    28  C   -0.008091
    29  C    0.035557
    30  C   -0.019322
    31  H    0.033028
    32  H    0.030376
    33  H    0.030454
    34  H    0.033429
    35  H    0.025504
    36  H    0.027393
    37  C    0.012394
    38  C   -0.009914
    39  C   -0.123812
    40  C    0.104187
    41  C   -0.030017
    42  C    0.145633
    43  N   -0.311771
    44  C    0.192152
    45  H    0.063926
    46  H    0.071100
    47  H    0.118387
    48  H    0.086145
    49  C    0.009279
    50  C   -0.063808
    51  C   -0.019660
    52  C    0.019328
    53  C   -0.001386
    54  C    0.020248
    55  C   -0.065518
    56  C    0.182181
    57  N   -0.321259
    58  C    0.145919
    59  C   -0.010172
    60  C    0.068225
    61  H    0.043549
    62  H    0.054390
    63  H    0.043897
    64  H    0.084030
    65  H    0.104768
    66  H    0.048841
    67  C   -0.063201
    68  C    0.025866
    69  C   -0.011373
    70  C    0.005955
    71  C   -0.011021
    72  C    0.025568
    73  C   -0.070291
    74  C   -0.008024
    75  C    0.035498
    76  C   -0.019371
    77  H    0.033026
    78  H    0.030333
    79  H    0.030474
    80  H    0.033467
    81  H    0.025458
    82  H    0.027387
    83  C    0.012413
    84  C   -0.009958
    85  C   -0.123787
    86  C    0.104228
    87  C   -0.029994
    88  C    0.145629
    89  N   -0.311832
    90  C    0.192030
    91  H    0.063917
    92  H    0.071101
    93  H    0.118397
    94  H    0.086194
    95  C    0.009266
    96  C   -0.063780
    97  C   -0.019615
    98  C    0.019254
    99  C   -0.001426
   100  C    0.020168
   101  C   -0.065347
   102  C    0.182150
   103  N   -0.321295
   104  C    0.145684
   105  C   -0.010073
   106  C    0.068207
   107  H    0.043616
   108  H    0.054412
   109  H    0.043928
   110  H    0.084136
   111  H    0.104716
   112  H    0.048812
   113  C   -0.063236
   114  C    0.025809
   115  C   -0.011460
   116  C    0.006062
   117  C   -0.011098
   118  C    0.025590
   119  C   -0.070352
   120  C   -0.008071
   121  C    0.035562
   122  C   -0.019309
   123  H    0.033064
   124  H    0.030402
   125  H    0.030491
   126  H    0.033441
   127  H    0.025505
   128  H    0.027368
   129  C    0.012346
   130  C   -0.009894
   131  C   -0.123777
   132  C    0.104207
   133  C   -0.029940
   134  C    0.145657
   135  N   -0.311910
   136  C    0.192018
   137  H    0.063956
   138  H    0.071071
   139  H    0.118351
   140  H    0.086121
   141  C    0.009253
   142  C   -0.063737
   143  C   -0.019590
   144  C    0.019203
   145  C   -0.001406
   146  C    0.020252
   147  C   -0.065441
   148  C    0.182144
   149  N   -0.321336
   150  C    0.145766
   151  C   -0.010032
   152  C    0.068195
   153  H    0.043640
   154  H    0.054417
   155  H    0.043901
   156  H    0.084111
   157  H    0.104722
   158  H    0.048783
   159  C   -0.063280
   160  C    0.025816
   161  C   -0.011391
   162  C    0.006004
   163  C   -0.011063
   164  C    0.025583
   165  C   -0.070368
   166  C   -0.008117
   167  C    0.035568
   168  C   -0.019305
   169  H    0.033076
   170  H    0.030353
   171  H    0.030477
   172  H    0.033438
   173  H    0.025504
   174  H    0.027400
   175  C    0.012342
   176  C   -0.009851
   177  C   -0.123709
   178  C    0.104223
   179  C   -0.029978
   180  C    0.145638
   181  N   -0.311914
   182  C    0.191996
   183  H    0.063915
   184  H    0.071094
   185  H    0.118397
   186  H    0.086141
 Sum of Mulliken charges =   4.00000

 Dipole moment (field-independent basis, Debye):
    X=             -0.0025    Y=             -0.0669    Z=             -0.0159  Tot=              0.0688
 Quadrupole moment (field-independent basis, Debye-Ang):
   XX=            343.1441   YY=           -469.1678   ZZ=           -475.2388
   XY=             -0.0538   XZ=             -0.1945   YZ=              0.0057

 Normal termination of Gaussian 16 at Fri Feb 26 13:54:11 2021.
