 Gaussian 16, Revision C.01,
 Gaussian 16:  ES64L-G16RevC.01  3-Jul-2019

 -----------------------------------------
 # SP HSEH1PBE/def2svp scrf=(solvent=dmso)
 -----------------------------------------

 -----
 m2_lb
 -----
 Symbolic Z-matrix:
 Charge =  4 Multiplicity = 1

                         Standard orientation:
 ---------------------------------------------------------------------
 Center     Atomic      Atomic             Coordinates (Angstroms)
 Number     Number       Type             X           Y           Z
 ---------------------------------------------------------------------
      1         46           0        9.173969   -0.540003    1.013008
      2         46           0       -9.141030   -1.333027    0.289008
      3          6           0       11.487972   -2.845000   -1.734992
      4          6           0       11.084971   -1.908000   -0.820992
      5          7           0        9.768971   -1.737002   -0.512992
      6          6           0        8.848972   -2.476003   -1.104992
      7          6           0        9.160973   -3.489003   -2.033992
      8          6           0        8.143974   -4.297004   -2.633992
      9          6           0        6.731974   -4.042006   -2.264992
     10          6           0        6.283974   -4.227007   -0.947992
     11          6           0        5.032973   -3.770008   -0.550992
     12          6           0        4.202973   -3.106009   -1.470992
     13          6           0        3.011972   -2.433011   -1.077992
     14          6           0        2.054971   -1.719012   -0.838992
     15          6           0        1.034969   -0.728014   -0.696992
     16          7           0        0.119970   -0.859015    0.271008
     17          6           0       -0.810032    0.096984    0.388008
     18          6           0       -1.790032   -0.010017    1.424008
     19          6           0       -2.694032    0.039981    2.238008
     20          6           0       -3.827032    0.225980    3.079008
     21          6           0       -4.164034    1.527980    3.490008
     22          6           0       -5.371034    1.770978    4.134008
     23          6           0       -6.272033    0.725977    4.377008
     24          6           0       -7.645033    1.021975    4.844008
     25          6           0       -7.901034    1.668975    6.036008
     26          6           0       -9.224034    1.950973    6.447008
     27          6           0      -10.304034    1.593971    5.672008
     28          6           0      -10.091033    0.947972    4.431008
     29          6           0      -11.146032    0.561970    3.565008
     30          6           0      -10.870031   -0.049029    2.370008
     31          7           0       -9.589031   -0.285028    1.973008
     32          6           0       -8.579032    0.076974    2.746008
     33          6           0       -8.756032    0.673973    4.010008
     34          6           0       -5.885031   -0.587023    4.060008
     35          6           0       -4.679030   -0.839021    3.421008
     36          6           0       -0.869033    1.213984   -0.459992
     37          6           0        0.089967    1.347985   -1.455992
     38          6           0        1.059968    0.363986   -1.581992
     39          6           0        4.614972   -3.005009   -2.812992
     40          6           0        5.862973   -3.470007   -3.202992
     41          6           0        8.521975   -5.234004   -3.571992
     42          6           0        9.881976   -5.417002   -3.913992
     43          6           0       10.874975   -4.663001   -3.328992
     44          6           0       10.533973   -3.676001   -2.374992
     45          1           0       12.549972   -2.951998   -1.964992
     46          1           0       11.794970   -1.262999   -0.300992
     47          1           0        7.810971   -2.279005   -0.832992
     48          1           0        6.940975   -4.702006   -0.214992
     49          1           0        4.712974   -3.884009    0.486008
     50          1           0       -3.490035    2.352980    3.247008
     51          1           0       -5.649035    2.793978    4.399008
     52          1           0       -7.067034    1.949976    6.683008
     53          1           0       -9.385035    2.453973    7.403008
     54          1           0      -11.324034    1.803970    5.998008
     55          1           0      -12.183033    0.747969    3.848008
     56          1           0      -11.659031   -0.369030    1.688008
     57          1           0       -7.576031   -0.111025    2.362008
     58          1           0       -6.556030   -1.419024    4.289008
     59          1           0       -4.411029   -1.859021    3.143008
     60          1           0       -1.649034    1.962983   -0.319992
     61          1           0        0.073965    2.231985   -2.099992
     62          1           0        1.826968    0.411987   -2.353992
     63          1           0        3.964972   -2.506010   -3.533992
     64          1           0        6.195973   -3.336007   -4.233992
     65          1           0        7.759976   -5.855005   -4.047992
     66          1           0       10.143977   -6.177002   -4.653992
     67          1           0       11.922975   -4.812999   -3.593992
     68          6           0        8.906974   -4.424003    2.773008
     69          6           0        9.357973   -3.267003    2.196008
     70          7           0        8.531971   -2.202004    2.000008
     71          6           0        7.274971   -2.253005    2.406008
     72          6           0        6.723973   -3.378006    3.054008
     73          6           0        5.363973   -3.415008    3.502008
     74          6           0        4.485971   -2.226009    3.419008
     75          6           0        4.861970   -0.996009    3.984008
     76          6           0        4.036968    0.116990    3.880008
     77          6           0        2.807968    0.029989    3.199008
     78          6           0        2.011967    1.190988    2.982008
     79          6           0        1.373966    2.192987    2.713008
     80          6           0        0.728964    3.400986    2.296008
     81          7           0       -0.539036    3.321984    1.879008
     82          6           0       -1.117037    4.422984    1.386008
     83          6           0       -2.470037    4.298982    0.927008
     84          6           0       -3.616037    4.207980    0.523008
     85          6           0       -4.947037    4.101979    0.023008
     86          6           0       -5.266038    4.602978   -1.250992
     87          6           0       -6.548037    4.459976   -1.762992
     88          6           0       -7.561037    3.831975   -1.019992
     89          6           0       -8.913036    3.692973   -1.606992
     90          6           0       -9.489038    4.768972   -2.257992
     91          6           0      -10.775038    4.692971   -2.832992
     92          6           0      -11.514036    3.535970   -2.758992
     93          6           0      -10.971035    2.401971   -2.109992
     94          6           0      -11.682033    1.180970   -2.001992
     95          6           0      -11.118032    0.111970   -1.359992
     96          7           0       -9.864032    0.183972   -0.836992
     97          6           0       -9.156033    1.294973   -0.943992
     98          6           0       -9.660035    2.469972   -1.541992
     99          6           0       -7.251036    3.380975    0.274008
    100          6           0       -5.964036    3.497977    0.783008
    101          6           0       -0.453039    5.657984    1.295008
    102          6           0        0.852961    5.740986    1.765008
    103          6           0        1.458962    4.602987    2.282008
    104          6           0        2.408970   -1.211012    2.670008
    105          6           0        3.238972   -2.318011    2.784008
    106          6           0        4.878975   -4.605008    4.012008
    107          6           0        5.701976   -5.746007    4.138008
    108          6           0        7.024976   -5.711006    3.761008
    109          6           0        7.560974   -4.526005    3.206008
    110          1           0        9.585975   -5.269002    2.892008
    111          1           0       10.387973   -3.155001    1.856008
    112          1           0        6.652970   -1.381006    2.200008
    113          1           0        5.807970   -0.911007    4.525008
    114          1           0        4.344967    1.067991    4.320008
    115          1           0       -4.492038    5.085979   -1.845992
    116          1           0       -6.764038    4.823976   -2.768992
    117          1           0       -8.945039    5.714973   -2.306992
    118          1           0      -11.188039    5.573970   -3.328992
    119          1           0      -12.515036    3.475968   -3.189992
    120          1           0      -12.683033    1.091968   -2.424992
    121          1           0      -11.640030   -0.840030   -1.245992
    122          1           0       -8.145033    1.272974   -0.535992
    123          1           0       -8.029035    2.949974    0.906008
    124          1           0       -5.742036    3.123977    1.783008
    125          1           0       -0.961040    6.521984    0.866008
    126          1           0        1.399960    6.684987    1.717008
    127          1           0        2.487962    4.619988    2.645008
    128          1           0        1.462970   -1.288013    2.129008
    129          1           0        2.926973   -3.267011    2.342008
    130          1           0        3.842975   -4.654010    4.354008
    131          1           0        5.278977   -6.660008    4.559008
    132          1           0        7.666977   -6.585005    3.877008
    133          6           0        8.697967    1.044997    4.915008
    134          6           0        9.093968    0.344997    3.809008
    135          7           0        8.565968    0.599996    2.579008
    136          6           0        7.641966    1.533995    2.431008
    137          6           0        7.144965    2.294995    3.510008
    138          6           0        6.141964    3.301993    3.346008
    139          6           0        5.446964    3.574992    2.066008
    140          6           0        5.328962    4.900992    1.620008
    141          6           0        4.498962    5.223991    0.556008
    142          6           0        3.744963    4.222990   -0.082992
    143          6           0        2.715962    4.590989   -0.993992
    144          6           0        1.740962    4.946987   -1.632992
    145          6           0        0.509961    5.351986   -2.235992
    146          7           0       -0.366037    4.379985   -2.507992
    147          6           0       -1.575038    4.705983   -2.978992
    148          6           0       -2.470036    3.611982   -3.196992
    149          6           0       -3.189035    2.637981   -3.323992
    150          6           0       -3.948033    1.442980   -3.477992
    151          6           0       -3.272032    0.210981   -3.544992
    152          6           0       -3.983030   -0.964020   -3.728992
    153          6           0       -5.381030   -0.960022   -3.827992
    154          6           0       -6.078029   -2.245023   -4.061992
    155          6           0       -5.644027   -3.076022   -5.079992
    156          6           0       -6.266026   -4.315023   -5.344992
    157          6           0       -7.334025   -4.744025   -4.591992
    158          6           0       -7.802026   -3.943025   -3.523992
    159          6           0       -8.875026   -4.341027   -2.689992
    160          6           0       -9.256027   -3.554027   -1.637992
    161          7           0       -8.615028   -2.385026   -1.358992
    162          6           0       -7.621029   -1.969025   -2.123992
    163          6           0       -7.168028   -2.691024   -3.248992
    164          6           0       -6.056032    0.268977   -3.746992
    165          6           0       -5.351033    1.454978   -3.579992
    166          6           0       -1.954040    6.034982   -3.226992
    167          6           0       -1.031041    7.042984   -2.963992
    168          6           0        0.220960    6.709985   -2.457992
    169          6           0        3.926965    2.883990    0.302008
    170          6           0        4.772965    2.566991    1.358008
    171          6           0        5.775963    4.038993    4.459008
    172          6           0        6.338963    3.801993    5.731008
    173          6           0        7.282965    2.818995    5.910008
    174          6           0        7.708966    2.052995    4.801008
    175          1           0        9.149967    0.827997    5.884008
    176          1           0        9.847969   -0.441002    3.863008
    177          1           0        7.268966    1.709995    1.421008
    178          1           0        5.875961    5.692993    2.136008
    179          1           0        4.385960    6.263991    0.245008
    180          1           0       -2.184032    0.184982   -3.452992
    181          1           0       -3.443029   -1.909020   -3.778992
    182          1           0       -4.812028   -2.754021   -5.709992
    183          1           0       -5.895025   -4.930023   -6.166992
    184          1           0       -7.824024   -5.697025   -4.798992
    185          1           0       -9.395025   -5.282027   -2.877992
    186          1           0      -10.073026   -3.831028   -0.970992
    187          1           0       -7.134030   -1.035024   -1.837992
    188          1           0       -7.143032    0.306976   -3.851992
    189          1           0       -5.886035    2.403977   -3.532992
    190          1           0       -2.946040    6.261981   -3.618992
    191          1           0       -1.291042    8.087983   -3.145992
    192          1           0        0.962959    7.473986   -2.225992
    193          1           0        3.352966    2.096989   -0.190992
    194          1           0        4.841966    1.527991    1.686008
    195          1           0        5.004962    4.805992    4.356008
    196          1           0        6.004963    4.402993    6.579008
    197          1           0        7.713965    2.620995    6.893008
    198          6           0       11.034964    3.085000   -0.207992
    199          6           0       10.782966    1.861999    0.352008
    200          7           0        9.681967    1.138998    0.005008
    201          6           0        8.847966    1.591997   -0.914992
    202          6           0        9.023965    2.832997   -1.561992
    203          6           0        8.089964    3.329996   -2.524992
    204          6           0        6.944965    2.514994   -2.989992
    205          6           0        7.137967    1.236994   -3.537992
    206          6           0        6.061968    0.492993   -4.003992
    207          6           0        4.755967    1.008991   -3.929992
    208          6           0        3.645968    0.242990   -4.394992
    209          6           0        2.689969   -0.415011   -4.762992
    210          6           0        1.543970   -1.206013   -5.113992
    211          7           0        0.809971   -1.656014   -4.091992
    212          6           0       -0.276028   -2.389015   -4.356992
    213          6           0       -1.054028   -2.826016   -3.237992
    214          6           0       -1.764027   -3.151017   -2.302992
    215          6           0       -2.619027   -3.487018   -1.214992
    216          6           0       -3.907026   -4.007020   -1.445992
    217          6           0       -4.740026   -4.317021   -0.379992
    218          6           0       -4.312026   -4.127021    0.945008
    219          6           0       -5.153026   -4.524022    2.096008
    220          6           0       -4.615025   -5.332021    3.082008
    221          6           0       -5.386024   -5.788022    4.173008
    222          6           0       -6.714024   -5.449024    4.289008
    223          6           0       -7.303025   -4.600025    3.324008
    224          6           0       -8.657026   -4.191026    3.399008
    225          6           0       -9.163027   -3.319027    2.475008
    226          7           0       -8.386028   -2.804026    1.480008
    227          6           0       -7.125027   -3.185024    1.359008
    228          6           0       -6.519026   -4.114024    2.233008
    229          6           0       -3.027027   -3.610019    1.167008
    230          6           0       -2.191027   -3.287018    0.109008
    231          6           0       -0.674028   -2.709016   -5.667992
    232          6           0        0.098971   -2.240015   -6.724992
    233          6           0        1.228970   -1.475013   -6.454992
    234          6           0        4.558965    2.286991   -3.378992
    235          6           0        5.641964    3.027993   -2.922992
    236          6           0        8.280962    4.607996   -3.015992
    237          6           0        9.385961    5.393997   -2.621992
    238          6           0       10.314962    4.914999   -1.727992
    239          6           0       10.145964    3.625998   -1.169992
    240          1           0       11.912964    3.652001    0.106008
    241          1           0       11.432967    1.423000    1.110008
    242          1           0        7.978967    0.971996   -1.139992
    243          1           0        8.146967    0.826996   -3.623992
    244          1           0        6.227969   -0.496007   -4.434992
    245          1           0       -4.248026   -4.176021   -2.469992
    246          1           0       -5.724025   -4.747023   -0.580992
    247          1           0       -3.576024   -5.655020    2.995008
    248          1           0       -4.920023   -6.436021    4.919008
    249          1           0       -7.320024   -5.817025    5.118008
    250          1           0       -9.298026   -4.562027    4.200008
    251          1           0      -10.199028   -2.984028    2.510008
    252          1           0       -6.544028   -2.726024    0.558008
    253          1           0       -2.680027   -3.443018    2.190008
    254          1           0       -1.206028   -2.853017    0.298008
    255          1           0       -1.569027   -3.309017   -5.838992
    256          1           0       -0.180028   -2.469015   -7.754992
    257          1           0        1.858970   -1.086012   -7.255992
    258          1           0        3.548965    2.696990   -3.305992
    259          1           0        5.473963    4.015992   -2.488992
    260          1           0        7.575962    5.006995   -3.747992
    261          1           0        9.503960    6.391998   -3.048992
    262          1           0       11.175961    5.517000   -1.433992
 ---------------------------------------------------------------------

 SCF Done:  E(RHSEH1PBE) =  -6900.15335574     A.U. after   19 cycles

 The electronic state is 1-A.
 Alpha  occ. eigenvalues --  -14.46823 -14.46754 -14.46741 -14.46700 -14.46688
 Alpha  occ. eigenvalues --  -14.46682 -14.46611 -14.46580 -14.40050 -14.39808
 Alpha  occ. eigenvalues --  -14.39646 -14.39628 -10.30976 -10.30902 -10.30843
 Alpha  occ. eigenvalues --  -10.30823 -10.30781 -10.30742 -10.30633 -10.30556
 Alpha  occ. eigenvalues --  -10.30191 -10.30174 -10.30047 -10.30020 -10.29769
 Alpha  occ. eigenvalues --  -10.29693 -10.29460 -10.29449 -10.29443 -10.29402
 Alpha  occ. eigenvalues --  -10.29392 -10.29391 -10.29387 -10.29379 -10.29163
 Alpha  occ. eigenvalues --  -10.29151 -10.27661 -10.27609 -10.27607 -10.27595
 Alpha  occ. eigenvalues --  -10.27595 -10.27564 -10.27559 -10.27557 -10.27553
 Alpha  occ. eigenvalues --  -10.27518 -10.27509 -10.27499 -10.27483 -10.27424
 Alpha  occ. eigenvalues --  -10.27325 -10.27257 -10.27222 -10.27187 -10.27171
 Alpha  occ. eigenvalues --  -10.27144 -10.27137 -10.27124 -10.27104 -10.27049
 Alpha  occ. eigenvalues --  -10.27048 -10.27017 -10.27015 -10.27013 -10.26956
 Alpha  occ. eigenvalues --  -10.26920 -10.26918 -10.26906 -10.26407 -10.26391
 Alpha  occ. eigenvalues --  -10.26378 -10.26355 -10.26350 -10.26349 -10.26348
 Alpha  occ. eigenvalues --  -10.26334 -10.26319 -10.26261 -10.26212 -10.26162
 Alpha  occ. eigenvalues --  -10.26121 -10.26120 -10.26108 -10.26050 -10.25964
 Alpha  occ. eigenvalues --  -10.25916 -10.25738 -10.25707 -10.25706 -10.25704
 Alpha  occ. eigenvalues --  -10.25687 -10.25672 -10.25652 -10.25637 -10.25623
 Alpha  occ. eigenvalues --  -10.25563 -10.25551 -10.25507 -10.25498 -10.25496
 Alpha  occ. eigenvalues --  -10.25492 -10.25488 -10.25446 -10.25435 -10.25432
 Alpha  occ. eigenvalues --  -10.25419 -10.25399 -10.25389 -10.25347 -10.25345
 Alpha  occ. eigenvalues --  -10.25334 -10.25300 -10.25297 -10.25290 -10.25269
 Alpha  occ. eigenvalues --  -10.25194 -10.25173 -10.25151 -10.25141 -10.25140
 Alpha  occ. eigenvalues --  -10.25130 -10.25109 -10.25105 -10.25096 -10.25069
 Alpha  occ. eigenvalues --  -10.25067 -10.25065 -10.25047 -10.25043 -10.25033
 Alpha  occ. eigenvalues --  -10.25021 -10.25016 -10.25008 -10.25002 -10.24987
 Alpha  occ. eigenvalues --  -10.24983 -10.24981 -10.24977 -10.24962 -10.24958
 Alpha  occ. eigenvalues --  -10.24955 -10.24929 -10.24904 -10.24892 -10.24854
 Alpha  occ. eigenvalues --  -10.24807 -10.24806 -10.24783 -10.24721 -10.24658
 Alpha  occ. eigenvalues --  -10.24658 -10.24650 -10.24641 -10.24546 -10.24511
 Alpha  occ. eigenvalues --  -10.24450 -10.24446 -10.24434 -10.24421 -10.24381
 Alpha  occ. eigenvalues --  -10.24363 -10.24351 -10.24332 -10.24323 -10.24148
 Alpha  occ. eigenvalues --  -10.24110 -10.23964 -10.23910  -3.55347  -3.55328
 Alpha  occ. eigenvalues --   -2.23201  -2.23145  -2.23124  -2.23117  -2.18990
 Alpha  occ. eigenvalues --   -2.18986  -1.01583  -1.01517  -1.00935  -1.00875
 Alpha  occ. eigenvalues --   -1.00855  -1.00851  -1.00704  -1.00670  -0.98308
 Alpha  occ. eigenvalues --   -0.98127  -0.97796  -0.97427  -0.90991  -0.90941
 Alpha  occ. eigenvalues --   -0.90868  -0.90856  -0.90838  -0.90832  -0.90811
 Alpha  occ. eigenvalues --   -0.90796  -0.88926  -0.88838  -0.88811  -0.88777
 Alpha  occ. eigenvalues --   -0.88746  -0.88720  -0.88706  -0.88673  -0.84119
 Alpha  occ. eigenvalues --   -0.84054  -0.83954  -0.83896  -0.83883  -0.83851
 Alpha  occ. eigenvalues --   -0.83801  -0.83759  -0.83060  -0.82967  -0.82827
 Alpha  occ. eigenvalues --   -0.82737  -0.82736  -0.82494  -0.82388  -0.81735
 Alpha  occ. eigenvalues --   -0.81194  -0.81124  -0.81074  -0.81049  -0.80975
 Alpha  occ. eigenvalues --   -0.80876  -0.80831  -0.80803  -0.80592  -0.80512
 Alpha  occ. eigenvalues --   -0.80470  -0.80300  -0.80278  -0.80221  -0.80165
 Alpha  occ. eigenvalues --   -0.79917  -0.77894  -0.77860  -0.77782  -0.77661
 Alpha  occ. eigenvalues --   -0.77320  -0.77283  -0.77254  -0.77180  -0.77143
 Alpha  occ. eigenvalues --   -0.77107  -0.77032  -0.76976  -0.76865  -0.76769
 Alpha  occ. eigenvalues --   -0.76727  -0.76661  -0.74782  -0.74751  -0.74679
 Alpha  occ. eigenvalues --   -0.74594  -0.73376  -0.73351  -0.73134  -0.72759
 Alpha  occ. eigenvalues --   -0.69136  -0.69093  -0.69001  -0.68958  -0.68920
 Alpha  occ. eigenvalues --   -0.68899  -0.68860  -0.68799  -0.68003  -0.67917
 Alpha  occ. eigenvalues --   -0.67849  -0.67810  -0.67699  -0.67574  -0.67540
 Alpha  occ. eigenvalues --   -0.67158  -0.66903  -0.66863  -0.66840  -0.66812
 Alpha  occ. eigenvalues --   -0.66745  -0.66719  -0.66647  -0.66503  -0.65306
 Alpha  occ. eigenvalues --   -0.65260  -0.65152  -0.65067  -0.65046  -0.64911
 Alpha  occ. eigenvalues --   -0.64856  -0.64497  -0.63092  -0.63083  -0.63019
 Alpha  occ. eigenvalues --   -0.62970  -0.62958  -0.62891  -0.62760  -0.62747
 Alpha  occ. eigenvalues --   -0.61681  -0.61582  -0.61485  -0.61446  -0.61370
 Alpha  occ. eigenvalues --   -0.61356  -0.61278  -0.61213  -0.58480  -0.58294
 Alpha  occ. eigenvalues --   -0.58063  -0.57454  -0.56862  -0.56832  -0.56581
 Alpha  occ. eigenvalues --   -0.56551  -0.56496  -0.56471  -0.56454  -0.56357
 Alpha  occ. eigenvalues --   -0.56240  -0.56087  -0.55752  -0.55699  -0.55695
 Alpha  occ. eigenvalues --   -0.55676  -0.55605  -0.55572  -0.55557  -0.55475
 Alpha  occ. eigenvalues --   -0.55417  -0.55360  -0.55046  -0.54784  -0.54629
 Alpha  occ. eigenvalues --   -0.54603  -0.54556  -0.54537  -0.54378  -0.54247
 Alpha  occ. eigenvalues --   -0.53781  -0.53768  -0.53758  -0.53755  -0.52628
 Alpha  occ. eigenvalues --   -0.52503  -0.52276  -0.51849  -0.50468  -0.50405
 Alpha  occ. eigenvalues --   -0.50352  -0.50223  -0.50176  -0.50090  -0.49997
 Alpha  occ. eigenvalues --   -0.49926  -0.49878  -0.49806  -0.49667  -0.49379
 Alpha  occ. eigenvalues --   -0.49369  -0.49302  -0.49223  -0.49132  -0.49057
 Alpha  occ. eigenvalues --   -0.49014  -0.48952  -0.48914  -0.48726  -0.48685
 Alpha  occ. eigenvalues --   -0.48612  -0.48545  -0.48490  -0.48445  -0.48420
 Alpha  occ. eigenvalues --   -0.48390  -0.48269  -0.48240  -0.48114  -0.47972
 Alpha  occ. eigenvalues --   -0.47886  -0.47845  -0.47655  -0.47612  -0.47583
 Alpha  occ. eigenvalues --   -0.47566  -0.47544  -0.47509  -0.47426  -0.46978
 Alpha  occ. eigenvalues --   -0.46347  -0.46347  -0.46296  -0.46284  -0.46277
 Alpha  occ. eigenvalues --   -0.46256  -0.46207  -0.46135  -0.45923  -0.45712
 Alpha  occ. eigenvalues --   -0.45618  -0.45553  -0.45341  -0.45303  -0.45221
 Alpha  occ. eigenvalues --   -0.45176  -0.45149  -0.45124  -0.45083  -0.45039
 Alpha  occ. eigenvalues --   -0.44809  -0.44754  -0.44695  -0.44549  -0.44441
 Alpha  occ. eigenvalues --   -0.44338  -0.44204  -0.44099  -0.44085  -0.43980
 Alpha  occ. eigenvalues --   -0.43874  -0.43771  -0.43706  -0.43657  -0.43637
 Alpha  occ. eigenvalues --   -0.43490  -0.43458  -0.43042  -0.42922  -0.42537
 Alpha  occ. eigenvalues --   -0.42534  -0.42523  -0.42495  -0.42427  -0.42234
 Alpha  occ. eigenvalues --   -0.41893  -0.41820  -0.41807  -0.41761  -0.41393
 Alpha  occ. eigenvalues --   -0.41085  -0.41077  -0.41044  -0.40933  -0.40870
 Alpha  occ. eigenvalues --   -0.40802  -0.40771  -0.40682  -0.40570  -0.40523
 Alpha  occ. eigenvalues --   -0.40437  -0.40361  -0.40272  -0.40182  -0.40138
 Alpha  occ. eigenvalues --   -0.40061  -0.40053  -0.39949  -0.39886  -0.39788
 Alpha  occ. eigenvalues --   -0.39733  -0.39699  -0.39660  -0.39649  -0.39266
 Alpha  occ. eigenvalues --   -0.39244  -0.39122  -0.39107  -0.39063  -0.38919
 Alpha  occ. eigenvalues --   -0.38821  -0.38700  -0.37990  -0.37963  -0.37926
 Alpha  occ. eigenvalues --   -0.37851  -0.36978  -0.36918  -0.36884  -0.36844
 Alpha  occ. eigenvalues --   -0.36733  -0.36700  -0.36668  -0.36625  -0.36448
 Alpha  occ. eigenvalues --   -0.36367  -0.36333  -0.36297  -0.36230  -0.36150
 Alpha  occ. eigenvalues --   -0.36101  -0.36030  -0.35798  -0.35396  -0.35312
 Alpha  occ. eigenvalues --   -0.35104  -0.34730  -0.34560  -0.34522  -0.34383
 Alpha  occ. eigenvalues --   -0.34345  -0.34165  -0.33863  -0.33648  -0.33564
 Alpha  occ. eigenvalues --   -0.33346  -0.33268  -0.33195  -0.32953  -0.32790
 Alpha  occ. eigenvalues --   -0.32511  -0.32448  -0.32311  -0.32256  -0.32137
 Alpha  occ. eigenvalues --   -0.31884  -0.31836  -0.31815  -0.31723  -0.31505
 Alpha  occ. eigenvalues --   -0.31140  -0.31014  -0.30833  -0.30768  -0.30491
 Alpha  occ. eigenvalues --   -0.30269  -0.29698  -0.29681  -0.29635  -0.29573
 Alpha  occ. eigenvalues --   -0.29558  -0.29527  -0.29431  -0.29375  -0.29165
 Alpha  occ. eigenvalues --   -0.29027  -0.28974  -0.28961  -0.28924  -0.28746
 Alpha  occ. eigenvalues --   -0.28277  -0.28201  -0.28024  -0.27926  -0.27882
 Alpha  occ. eigenvalues --   -0.27831  -0.27813  -0.27735  -0.27715  -0.27563
 Alpha  occ. eigenvalues --   -0.27495  -0.27362  -0.27245  -0.27178  -0.27098
 Alpha  occ. eigenvalues --   -0.27040  -0.26691  -0.26648  -0.26536  -0.26207
 Alpha  occ. eigenvalues --   -0.25881  -0.25749  -0.25638  -0.25522  -0.24265
 Alpha  occ. eigenvalues --   -0.24236  -0.24166  -0.23991  -0.23352  -0.23040
 Alpha  occ. eigenvalues --   -0.23018  -0.22722
 Alpha virt. eigenvalues --   -0.11116  -0.11038  -0.10904  -0.10816  -0.10788
 Alpha virt. eigenvalues --   -0.10702  -0.10603  -0.10453  -0.09335  -0.09133
 Alpha virt. eigenvalues --   -0.09017  -0.08989  -0.08926  -0.08789  -0.08455

 Mulliken charges:
               1
     1  Pd   0.452471
     2  Pd   0.465073
     3  C   -0.032308
     4  C    0.129568
     5  N   -0.310725
     6  C    0.142743
     7  C   -0.004484
     8  C    0.031660
     9  C   -0.071573
    10  C   -0.040122
    11  C    0.004399
    12  C   -0.061032
    13  C   -0.001605
    14  C    0.025432
    15  C   -0.039084
    16  N   -0.172700
    17  C   -0.036868
    18  C    0.022529
    19  C   -0.002536
    20  C   -0.060846
    21  C   -0.012284
    22  C    0.009875
    23  C   -0.056105
    24  C    0.040116
    25  C   -0.025071
    26  C    0.006295
    27  C   -0.007438
    28  C    0.039441
    29  C   -0.028292
    30  C    0.124947
    31  N   -0.313259
    32  C    0.129193
    33  C   -0.000450
    34  C   -0.048674
    35  C    0.012680
    36  C    0.017666
    37  C    0.025486
    38  C    0.028658
    39  C   -0.002211
    40  C    0.016414
    41  C   -0.022711
    42  C    0.005054
    43  C   -0.007922
    44  C    0.043389
    45  H    0.058546
    46  H    0.096817
    47  H    0.118357
    48  H    0.045103
    49  H    0.032308
    50  H    0.038923
    51  H    0.047652
    52  H    0.043644
    53  H    0.058566
    54  H    0.044765
    55  H    0.057888
    56  H    0.099588
    57  H    0.122878
    58  H    0.046663
    59  H    0.027067
    60  H    0.030163
    61  H    0.042306
    62  H    0.021826
    63  H    0.035789
    64  H    0.042688
    65  H    0.042591
    66  H    0.058603
    67  H    0.044421
    68  C   -0.026503
    69  C    0.126979
    70  N   -0.317874
    71  C    0.126214
    72  C   -0.001293
    73  C    0.029558
    74  C   -0.029781
    75  C   -0.041458
    76  C   -0.014250
    77  C   -0.076156
    78  C   -0.011625
    79  C    0.044521
    80  C   -0.067820
    81  N   -0.151867
    82  C   -0.072780
    83  C    0.030352
    84  C   -0.005897
    85  C   -0.065135
    86  C    0.021508
    87  C   -0.038666
    88  C   -0.005958
    89  C    0.061964
    90  C   -0.041190
    91  C    0.009256
    92  C   -0.006781
    93  C    0.031177
    94  C   -0.029410
    95  C    0.130003
    96  N   -0.306173
    97  C    0.120004
    98  C    0.000080
    99  C   -0.053583
   100  C    0.010991
   101  C    0.020909
   102  C    0.034513
   103  C    0.026827
   104  C    0.015249
   105  C   -0.018835
   106  C   -0.022660
   107  C    0.008729
   108  C   -0.004710
   109  C    0.033541
   110  H    0.058182
   111  H    0.105651
   112  H    0.114904
   113  H    0.045718
   114  H    0.041831
   115  H    0.022093
   116  H    0.047320
   117  H    0.047151
   118  H    0.057623
   119  H    0.045242
   120  H    0.057909
   121  H    0.100404
   122  H    0.099761
   123  H    0.049966
   124  H    0.019677
   125  H    0.044018
   126  H    0.054560
   127  H    0.043116
   128  H    0.028789
   129  H    0.040571
   130  H    0.045988
   131  H    0.057971
   132  H    0.044531
   133  C   -0.027918
   134  C    0.131790
   135  N   -0.312039
   136  C    0.131794
   137  C   -0.009757
   138  C    0.032898
   139  C   -0.018794
   140  C   -0.031318
   141  C    0.006802
   142  C   -0.115211
   143  C   -0.014229
   144  C    0.082345
   145  C   -0.064319
   146  N   -0.160985
   147  C   -0.043696
   148  C    0.039282
   149  C   -0.021198
   150  C   -0.065090
   151  C    0.000585
   152  C   -0.012371
   153  C   -0.015344
   154  C    0.035503
   155  C   -0.039100
   156  C    0.011885
   157  C   -0.007252
   158  C    0.035383
   159  C   -0.028881
   160  C    0.134264
   161  N   -0.309798
   162  C    0.130268
   163  C   -0.003675
   164  C   -0.036527
   165  C    0.005550
   166  C    0.004668
   167  C    0.040124
   168  C    0.011269
   169  C    0.022647
   170  C   -0.029711
   171  C   -0.035444
   172  C    0.014294
   173  C   -0.006054
   174  C    0.037706
   175  H    0.059073
   176  H    0.107904
   177  H    0.095678
   178  H    0.041927
   179  H    0.040328
   180  H    0.039193
   181  H    0.022731
   182  H    0.049136
   183  H    0.057415
   184  H    0.045277
   185  H    0.058874
   186  H    0.106592
   187  H    0.095566
   188  H    0.046771
   189  H    0.033725
   190  H    0.056109
   191  H    0.060766
   192  H    0.047493
   193  H    0.034835
   194  H    0.052106
   195  H    0.051136
   196  H    0.057627
   197  H    0.045586
   198  C   -0.029126
   199  C    0.133768
   200  N   -0.311535
   201  C    0.126965
   202  C   -0.007602
   203  C    0.048487
   204  C   -0.041172
   205  C   -0.034927
   206  C    0.006465
   207  C   -0.072798
   208  C   -0.027285
   209  C    0.046816
   210  C   -0.067318
   211  N   -0.149497
   212  C   -0.067698
   213  C    0.051303
   214  C   -0.024879
   215  C   -0.072895
   216  C   -0.000700
   217  C   -0.037773
   218  C   -0.021773
   219  C    0.023232
   220  C   -0.022274
   221  C    0.008846
   222  C   -0.003470
   223  C    0.030371
   224  C   -0.026314
   225  C    0.130391
   226  N   -0.311205
   227  C    0.123796
   228  C   -0.002354
   229  C   -0.028651
   230  C    0.015818
   231  C    0.009168
   232  C    0.038730
   233  C    0.019092
   234  C   -0.001618
   235  C   -0.003085
   236  C   -0.028042
   237  C    0.007516
   238  C   -0.006279
   239  C    0.033062
   240  H    0.058987
   241  H    0.101979
   242  H    0.108330
   243  H    0.049080
   244  H    0.036091
   245  H    0.038877
   246  H    0.046988
   247  H    0.047256
   248  H    0.058285
   249  H    0.044836
   250  H    0.058047
   251  H    0.104607
   252  H    0.105966
   253  H    0.044068
   254  H    0.031561
   255  H    0.050318
   256  H    0.059829
   257  H    0.048209
   258  H    0.038511
   259  H    0.043205
   260  H    0.045553
   261  H    0.057958
   262  H    0.044827
 Sum of Mulliken charges =   4.00000

 Dipole moment (field-independent basis, Debye):
    X=             -0.1747    Y=             -7.1853    Z=              7.4693  Tot=             10.3658
 Quadrupole moment (field-independent basis, Debye-Ang):
   XX=            666.5892   YY=           -631.5170   ZZ=           -705.9191
   XY=             28.2094   XZ=             33.5494   YZ=             -3.9967

 Normal termination of Gaussian 16 at Tue Jul 25 19:58:54 2023.
