                         Program Version 4.2.1 -  RELEASE  -
|  1> # closed shell KS, PBE0/def2-SVP/D4
|  2> ! DFT OPT RKS PBE0 RIJCOSX GridX6 def2-SVP def2/J D4 Grid6 NOFINALGRID SlowConv TightSCF XYZFILE PDBFILE
|  3>
|  4> %base "_binolB"
|  5>
|  6> %scf
|  7>    MaxIter 2000
|  8> end
|  9>
| 10> %geom
| 11>    MaxIter 1000
| 12> end
| 13>
| 14> %pal
| 15>    nprocs 128
| 16> end
| 17>
| 18> * xyzfile 0 1 binolB_opt.xyz
| 19>
| 20>                          ****END OF INPUT****
 Total Charge           Charge          ....    0
 Multiplicity           Mult            ....    1
 Number of Electrons    NEL             ....  354
Dispersion correction           -0.123010713
FINAL SINGLE POINT ENERGY     -2138.917674357079
Dispersion correction            ...
Dispersion correction           -0.121998536
FINAL SINGLE POINT ENERGY     -2138.926067705529
Dispersion correction            ...
Dispersion correction           -0.121853579
FINAL SINGLE POINT ENERGY     -2138.926801968296
Dispersion correction            ...
FINAL SINGLE POINT ENERGY     -2138.926844299577
FINAL SINGLE POINT ENERGY     -2138.927011571891
FINAL SINGLE POINT ENERGY     -2138.927014195649
FINAL SINGLE POINT ENERGY     -2138.927049590303
FINAL SINGLE POINT ENERGY     -2138.927075887515
FINAL SINGLE POINT ENERGY     -2138.927150132276
ORCA finished by error termination in GTOInt
                         Program Version 4.2.1 -  RELEASE  -
|  1> # closed shell KS, PBE0/def2-SVP/D4
|  2> ! DFT OPT RKS PBE0 RIJCOSX GridX6 def2-SVP def2/J D4 Grid6 NOFINALGRID SlowConv TightSCF XYZFILE PDBFILE
|  3>
|  4> %base "_binolB"
|  5>
|  6> %scf
|  7>    MaxIter 2000
|  8> end
|  9>
| 10> %geom
| 11>    MaxIter 1000
| 12> end
| 13>
| 14> %pal
| 15>    nprocs 128
| 16> end
| 17>
| 18> * xyzfile 0 1 binolB_opt.xyz
| 19>
| 20>                          ****END OF INPUT****
FINAL SINGLE POINT ENERGY     -2138.917674357079
FINAL SINGLE POINT ENERGY     -2138.927571134290
FINAL SINGLE POINT ENERGY     -2138.928188404444
FINAL SINGLE POINT ENERGY     -2138.928507110993
FINAL SINGLE POINT ENERGY     -2138.928528383013
FINAL SINGLE POINT ENERGY     -2138.928937543530
FINAL SINGLE POINT ENERGY     -2138.928961892201
FINAL SINGLE POINT ENERGY     -2138.928986987742
Dispersion correction            ...
Dispersion correction           -0.122035894
FINAL SINGLE POINT ENERGY     -2138.928995251481
Dispersion correction            ...
Dispersion correction           -0.122037730
FINAL SINGLE POINT ENERGY     -2138.928996775695
Dispersion correction            ...
                    ***********************HURRAY********************

CARTESIAN COORDINATES (ANGSTROEM)
---------------------------------
  H     -7.658158   -1.977307   -0.150147
  C     -6.636512   -2.376201   -0.009594
  N     -6.351145   -3.616942   -0.028343
  C     -7.347625   -4.582698   -0.158587
  C     -8.626119   -4.454613    0.409366
  C     -9.566247   -5.469078    0.255745
  C     -9.252578   -6.620183   -0.466571
  C     -7.980365   -6.758388   -1.023454
  C     -7.030405   -5.756969   -0.858079
  H     -6.025141   -5.853257   -1.272899
  H     -7.722885   -7.661307   -1.582483
  H     -9.993772   -7.414106   -0.583669
  H    -10.553075   -5.362974    0.713036
  H     -8.868962   -3.568362    1.000034
  C     -5.608227   -1.347225    0.191026
  N     -6.039276   -0.082250    0.201102
  C     -5.149846    0.881094    0.387180
  C     -3.776283    0.660792    0.581156
  C     -3.336245   -0.672382    0.557006
  C     -4.259262   -1.685896    0.362530
  H     -3.975670   -2.739538    0.344037
  H     -2.278306   -0.898736    0.694439
  C     -2.863668    1.794398    0.821894
  C     -3.226758    2.824848    1.666248
  C     -2.366507    3.916506    1.927418
  C     -2.741005    4.962223    2.809872
  C     -1.882562    6.003137    3.072317
  C     -0.606056    6.035682    2.466950
  C     -0.214289    5.036446    1.605946
  C     -1.082795    3.956076    1.305691
  C     -0.710909    2.904421    0.416167
  C     -1.584101    1.854713    0.190916
  O     -1.209587    0.838925   -0.631598
  C     -1.568800    1.000901   -1.987229
  H     -1.195227    0.121049   -2.526631
  H     -1.108985    1.908140   -2.413707
  H     -2.665015    1.058203   -2.106769
  C      0.593087    2.890682   -0.291658
  C      1.541231    1.923332    0.009783
  C      2.725525    1.776858   -0.782178
  C      2.940447    2.662132   -1.817443
  C      2.024274    3.690808   -2.131573
  C      2.256138    4.587291   -3.205114
  C      1.331407    5.550231   -3.532331
  C      0.127677    5.642505   -2.799406
  C     -0.124348    4.787708   -1.750245
  C      0.821091    3.797904   -1.373108
  H     -1.061211    4.867828   -1.196745
  H     -0.612897    6.399388   -3.068631
  H      1.520439    6.237090   -4.360413
  H      3.185974    4.493928   -3.772240
  H      3.833466    2.552886   -2.437406
  C      3.704968    0.706452   -0.515977
  C      5.082044    0.967529   -0.614968
  N      6.026757    0.050195   -0.480798
  C      5.655077   -1.207055   -0.220114
  C      4.313012   -1.578837   -0.066441
  C      3.331305   -0.613305   -0.216244
  H      2.275920   -0.869588   -0.117852
  H      4.077493   -2.621821    0.151934
  C      6.743960   -2.185478   -0.115287
  N      6.530513   -3.417047    0.129266
  C      7.592695   -4.311194    0.257171
  C      8.826038   -3.968306    0.836155
  C      9.841736   -4.914398    0.934550
  C      9.649067   -6.211119    0.458306
  C      8.420390   -6.562744   -0.102419
  C      7.395621   -5.627128   -0.188259
  H      6.423764   -5.886474   -0.612713
  H      8.256886   -7.579571   -0.467596
  H     10.449246   -6.950526    0.538754
  H     10.792804   -4.637526    1.396288
  H      8.973873   -2.962575    1.236074
  H      7.749927   -1.760406   -0.289022
  H      5.421745    1.992746   -0.804380
  O      1.409773    1.046996    1.027239
  C      1.014113    1.479583    2.309563
  H      1.282057    2.534748    2.475817
  H      1.552674    0.853634    3.035433
  H     -0.068704    1.361715    2.467904
  H      0.771868    5.066473    1.138294
  H      0.075027    6.861570    2.684952
  H     -2.182078    6.803890    3.752370
  H     -3.726834    4.923194    3.280278
  H     -4.192514    2.787201    2.176297
  H     -5.531164    1.909188    0.367042

 Multiplicity           Mult            ....    1
 Number of Electrons    NEL             ....  354
 Basis Dimension        Dim             ....  898

ORBITAL ENERGIES
----------------

  NO   OCC          E(Eh)            E(eV)
   0   2.0000     -19.245316      -523.6917
   1   2.0000     -19.239842      -523.5427
   2   2.0000     -14.397153      -391.7665
   3   2.0000     -14.396516      -391.7491
   4   2.0000     -14.392967      -391.6525
   5   2.0000     -14.390957      -391.5978
   6   2.0000     -10.309478      -280.5352
   7   2.0000     -10.307296      -280.4758
   8   2.0000     -10.289353      -279.9875
   9   2.0000     -10.287984      -279.9503
  10   2.0000     -10.283118      -279.8179
  11   2.0000     -10.279980      -279.7325
  12   2.0000     -10.278956      -279.7046
  13   2.0000     -10.278815      -279.7008
  14   2.0000     -10.274359      -279.5795
  15   2.0000     -10.272555      -279.5304
  16   2.0000     -10.271068      -279.4900
  17   2.0000     -10.268023      -279.4071
  18   2.0000     -10.266868      -279.3757
  19   2.0000     -10.265421      -279.3363
  20   2.0000     -10.262461      -279.2557
  21   2.0000     -10.261396      -279.2268
  22   2.0000     -10.260725      -279.2085
  23   2.0000     -10.260686      -279.2075
  24   2.0000     -10.259919      -279.1866
  25   2.0000     -10.259073      -279.1636
  26   2.0000     -10.258825      -279.1568
  27   2.0000     -10.258028      -279.1351
  28   2.0000     -10.256460      -279.0925
  29   2.0000     -10.254624      -279.0425
  30   2.0000     -10.252893      -278.9954
  31   2.0000     -10.252793      -278.9927
  32   2.0000     -10.251954      -278.9698
  33   2.0000     -10.251784      -278.9652
  34   2.0000     -10.251134      -278.9475
  35   2.0000     -10.250706      -278.9359
  36   2.0000     -10.249587      -278.9054
  37   2.0000     -10.247644      -278.8526
  38   2.0000     -10.246854      -278.8311
  39   2.0000     -10.245862      -278.8041
  40   2.0000     -10.244755      -278.7740
  41   2.0000     -10.244412      -278.7646
  42   2.0000     -10.242247      -278.7057
  43   2.0000     -10.241074      -278.6738
  44   2.0000     -10.241005      -278.6719
  45   2.0000     -10.239672      -278.6357
  46   2.0000     -10.239660      -278.6353
  47   2.0000     -10.238476      -278.6031
  48   2.0000     -10.238110      -278.5931
  49   2.0000     -10.237344      -278.5723
  50   2.0000     -10.237029      -278.5637
  51   2.0000     -10.234523      -278.4955
  52   2.0000      -1.097597       -29.8671
  53   2.0000      -1.091572       -29.7032
  54   2.0000      -0.982365       -26.7315
  55   2.0000      -0.977110       -26.5885
  56   2.0000      -0.959277       -26.1032
  57   2.0000      -0.955139       -25.9907
  58   2.0000      -0.917527       -24.9672
  59   2.0000      -0.905132       -24.6299
  60   2.0000      -0.870825       -23.6963
  61   2.0000      -0.867623       -23.6092
  62   2.0000      -0.866211       -23.5708
  63   2.0000      -0.861898       -23.4534
  64   2.0000      -0.846103       -23.0236
  65   2.0000      -0.826737       -22.4966
  66   2.0000      -0.817909       -22.2564
  67   2.0000      -0.805334       -21.9142
  68   2.0000      -0.800221       -21.7751
  69   2.0000      -0.789965       -21.4960
  70   2.0000      -0.776973       -21.1425
  71   2.0000      -0.774511       -21.0755
  72   2.0000      -0.766538       -20.8585
  73   2.0000      -0.764203       -20.7950
  74   2.0000      -0.762726       -20.7548
  75   2.0000      -0.758329       -20.6352
  76   2.0000      -0.749103       -20.3841
  77   2.0000      -0.739018       -20.1097
  78   2.0000      -0.722699       -19.6657
  79   2.0000      -0.705841       -19.2069
  80   2.0000      -0.692750       -18.8507
  81   2.0000      -0.687592       -18.7103
  82   2.0000      -0.667550       -18.1650
  83   2.0000      -0.658585       -17.9210
  84   2.0000      -0.646482       -17.5917
  85   2.0000      -0.642541       -17.4844
  86   2.0000      -0.640358       -17.4250
  87   2.0000      -0.631760       -17.1911
  88   2.0000      -0.628356       -17.0984
  89   2.0000      -0.625939       -17.0327
  90   2.0000      -0.622364       -16.9354
  91   2.0000      -0.617577       -16.8051
  92   2.0000      -0.613770       -16.7015
  93   2.0000      -0.600562       -16.3421
  94   2.0000      -0.584568       -15.9069
  95   2.0000      -0.580633       -15.7998
  96   2.0000      -0.558811       -15.2060
  97   2.0000      -0.555554       -15.1174
  98   2.0000      -0.552075       -15.0227
  99   2.0000      -0.550755       -14.9868
 100   2.0000      -0.549387       -14.9496
 101   2.0000      -0.546192       -14.8626
 102   2.0000      -0.542657       -14.7665
 103   2.0000      -0.530397       -14.4328
 104   2.0000      -0.517118       -14.0715
 105   2.0000      -0.512102       -13.9350
 106   2.0000      -0.509702       -13.8697
 107   2.0000      -0.503086       -13.6897
 108   2.0000      -0.497209       -13.5297
 109   2.0000      -0.494128       -13.4459
 110   2.0000      -0.490038       -13.3346
 111   2.0000      -0.484477       -13.1833
 112   2.0000      -0.482746       -13.1362
 113   2.0000      -0.480055       -13.0630
 114   2.0000      -0.478320       -13.0157
 115   2.0000      -0.475912       -12.9502
 116   2.0000      -0.474567       -12.9136
 117   2.0000      -0.471771       -12.8375
 118   2.0000      -0.469564       -12.7775
 119   2.0000      -0.463831       -12.6215
 120   2.0000      -0.459451       -12.5023
 121   2.0000      -0.454619       -12.3708
 122   2.0000      -0.451416       -12.2837
 123   2.0000      -0.450762       -12.2659
 124   2.0000      -0.450209       -12.2508
 125   2.0000      -0.447078       -12.1656
 126   2.0000      -0.445390       -12.1197
 127   2.0000      -0.443305       -12.0630
 128   2.0000      -0.439823       -11.9682
 129   2.0000      -0.436386       -11.8747
 130   2.0000      -0.433914       -11.8074
 131   2.0000      -0.433719       -11.8021
 132   2.0000      -0.430783       -11.7222
 133   2.0000      -0.423398       -11.5212
 134   2.0000      -0.419615       -11.4183
 135   2.0000      -0.418518       -11.3884
 136   2.0000      -0.417190       -11.3523
 137   2.0000      -0.412223       -11.2172
 138   2.0000      -0.405708       -11.0399
 139   2.0000      -0.401032       -10.9126
 140   2.0000      -0.398906       -10.8548
 141   2.0000      -0.392116       -10.6700
 142   2.0000      -0.387195       -10.5361
 143   2.0000      -0.383709       -10.4413
 144   2.0000      -0.379384       -10.3236
 145   2.0000      -0.375897       -10.2287
 146   2.0000      -0.373305       -10.1581
 147   2.0000      -0.370192       -10.0734
 148   2.0000      -0.366894        -9.9837
 149   2.0000      -0.366539        -9.9740
 150   2.0000      -0.364489        -9.9183
 151   2.0000      -0.362750        -9.8709
 152   2.0000      -0.357848        -9.7375
 153   2.0000      -0.354671        -9.6511
 154   2.0000      -0.351239        -9.5577
 155   2.0000      -0.346506        -9.4289
 156   2.0000      -0.344224        -9.3668
 157   2.0000      -0.323607        -8.8058
 158   2.0000      -0.311887        -8.4869
 159   2.0000      -0.309949        -8.4342
 160   2.0000      -0.304763        -8.2930
 161   2.0000      -0.303233        -8.2514
 162   2.0000      -0.299822        -8.1586
 163   2.0000      -0.296189        -8.0597
 164   2.0000      -0.295245        -8.0340
 165   2.0000      -0.282611        -7.6902
 166   2.0000      -0.279397        -7.6028
 167   2.0000      -0.277812        -7.5596
 168   2.0000      -0.270092        -7.3496
 169   2.0000      -0.269984        -7.3466
 170   2.0000      -0.266701        -7.2573
 171   2.0000      -0.257599        -7.0096
 172   2.0000      -0.250231        -6.8091
 173   2.0000      -0.242682        -6.6037
 174   2.0000      -0.235932        -6.4200
 175   2.0000      -0.233587        -6.3562
 176   2.0000      -0.228660        -6.2221
 177   0.0000      -0.078748        -2.1429
 178   0.0000      -0.073613        -2.0031
 179   0.0000      -0.056169        -1.5284
 180   0.0000      -0.046182        -1.2567
 181   0.0000      -0.026798        -0.7292

MULLIKEN ATOMIC CHARGES
-----------------------
   0 H :    0.015775
   1 C :    0.082125
   2 N :   -0.140752
   3 C :    0.048615
   4 C :   -0.027831
   5 C :   -0.025934
   6 C :   -0.008619
   7 C :   -0.027592
   8 C :    0.008129
   9 H :    0.011406
  10 H :    0.023460
  11 H :    0.023072
  12 H :    0.022190
  13 H :    0.015427
  14 C :   -0.040471
  15 N :   -0.156204
  16 C :    0.057996
  17 C :   -0.093630
  18 C :    0.068422
  19 C :   -0.001429
  20 H :    0.035173
  21 H :    0.039497
  22 C :    0.056004
  23 C :   -0.065650
  24 C :    0.028537
  25 C :   -0.027662
  26 C :   -0.005943
  27 C :   -0.006233
  28 C :   -0.027949
  29 C :    0.007308
  30 C :   -0.107075
  31 C :    0.123309
  32 O :   -0.371093
  33 C :    0.144883
  34 H :    0.058410
  35 H :    0.054422
  36 H :    0.041748
  37 C :   -0.080712
  38 C :    0.190661
  39 C :    0.014649
  40 C :   -0.059831
  41 C :    0.018626
  42 C :   -0.026247
  43 C :   -0.009486
  44 C :   -0.008053
  45 C :   -0.031336
  46 C :    0.023363
  47 H :    0.030784
  48 H :    0.021542
  49 H :    0.021891
  50 H :    0.009743
  51 H :    0.007414
  52 C :   -0.054245
  53 C :    0.049938
  54 N :   -0.156754
  55 C :   -0.040365
  56 C :   -0.000921
  57 C :    0.067042
  58 H :    0.036972
  59 H :    0.032384
  60 C :    0.080762
  61 N :   -0.141650
  62 C :    0.048516
  63 C :   -0.027186
  64 C :   -0.026631
  65 C :   -0.009738
  66 C :   -0.027111
  67 C :    0.007309
  68 H :    0.011166
  69 H :    0.022389
  70 H :    0.022092
  71 H :    0.021206
  72 H :    0.015227
  73 H :    0.014821
  74 H :    0.030402
  75 O :   -0.368162
  76 C :    0.151462
  77 H :    0.041246
  78 H :    0.058880
  79 H :    0.055826
  80 H :    0.032838
  81 H :    0.024200
  82 H :    0.024627
  83 H :    0.011088
  84 H :    0.005811
  85 H :    0.031715
Sum of atomic charges:   -0.0000000

LOEWDIN ATOMIC CHARGES
----------------------
   0 H :    0.015105
   1 C :    0.047353
   2 N :   -0.068765
   3 C :   -0.008425
   4 C :   -0.043676
   5 C :   -0.028411
   6 C :   -0.037346
   7 C :   -0.029604
   8 C :   -0.027250
   9 H :    0.036425
  10 H :    0.035325
  11 H :    0.034095
  12 H :    0.035077
  13 H :    0.034110
  14 C :   -0.021614
  15 N :   -0.077556
  16 C :    0.018386
  17 C :   -0.042039
  18 C :    0.012084
  19 C :   -0.014404
  20 H :    0.043322
  21 H :    0.041733
  22 C :   -0.043604
  23 C :   -0.005361
  24 C :   -0.028173
  25 C :   -0.017736
  26 C :   -0.034096
  27 C :   -0.026118
  28 C :   -0.024617
  29 C :   -0.017813
  30 C :   -0.042055
  31 C :    0.049983
  32 O :   -0.117209
  33 C :    0.072845
  34 H :    0.031099
  35 H :    0.021484
  36 H :    0.016563
  37 C :   -0.062217
  38 C :    0.064201
  39 C :   -0.042846
  40 C :   -0.003419
  41 C :   -0.033005
  42 C :   -0.017463
  43 C :   -0.039573
  44 C :   -0.027704
  45 C :   -0.030670
  46 C :   -0.013151
  47 H :    0.038374
  48 H :    0.035925
  49 H :    0.035300
  50 H :    0.034780
  51 H :    0.036662
  52 C :   -0.035479
  53 C :    0.017934
  54 N :   -0.078358
  55 C :   -0.023464
  56 C :   -0.015790
  57 C :    0.014239
  58 H :    0.040993
  59 H :    0.042304
  60 C :    0.047533
  61 N :   -0.071256
  62 C :   -0.007710
  63 C :   -0.044105
  64 C :   -0.028966
  65 C :   -0.038645
  66 C :   -0.030137
  67 C :   -0.028032
  68 H :    0.036236
  69 H :    0.034842
  70 H :    0.033625
  71 H :    0.034640
  72 H :    0.034055
  73 H :    0.014592
  74 H :    0.026169
  75 O :   -0.098474
  76 C :    0.073367
  77 H :    0.022663
  78 H :    0.029164
  79 H :    0.021425
  80 H :    0.039675
  81 H :    0.037197
  82 H :    0.036528
  83 H :    0.035365
  84 H :    0.036599
  85 H :    0.026960

  Mayer bond orders larger than 0.100000
B(  0-H ,  1-C ) :   0.9360 B(  1-C ,  2-N ) :   1.8830 B(  1-C , 14-C ) :   1.0310
B(  2-N ,  3-C ) :   1.1152 B(  3-C ,  4-C ) :   1.3364 B(  3-C ,  8-C ) :   1.3675
B(  4-C ,  5-C ) :   1.3937 B(  4-C , 13-H ) :   0.9840 B(  5-C ,  6-C ) :   1.3888
B(  5-C , 12-H ) :   0.9796 B(  6-C ,  7-C ) :   1.3802 B(  6-C , 11-H ) :   0.9868
B(  7-C ,  8-C ) :   1.3907 B(  7-C , 10-H ) :   0.9821 B(  8-C ,  9-H ) :   0.9881
B( 14-C , 15-N ) :   1.4843 B( 14-C , 19-C ) :   1.3520 B( 15-N , 16-C ) :   1.5380
B( 16-C , 17-C ) :   1.3472 B( 16-C , 85-H ) :   0.9751 B( 17-C , 18-C ) :   1.3730
B( 17-C , 22-C ) :   0.9789 B( 18-C , 19-C ) :   1.4143 B( 18-C , 21-H ) :   0.9823
B( 19-C , 20-H ) :   0.9643 B( 22-C , 23-C ) :   1.4532 B( 22-C , 31-C ) :   1.2458
B( 23-C , 24-C ) :   1.2238 B( 23-C , 84-H ) :   0.9872 B( 24-C , 25-C ) :   1.2468
B( 24-C , 29-C ) :   1.2440 B( 25-C , 26-C ) :   1.4950 B( 25-C , 83-H ) :   0.9863
B( 26-C , 27-C ) :   1.2594 B( 26-C , 82-H ) :   0.9831 B( 27-C , 28-C ) :   1.4887
B( 27-C , 81-H ) :   0.9809 B( 28-C , 29-C ) :   1.2882 B( 28-C , 80-H ) :   0.9669
B( 29-C , 30-C ) :   1.2587 B( 30-C , 31-C ) :   1.4973 B( 30-C , 37-C ) :   0.9506
B( 31-C , 32-O ) :   1.1096 B( 32-O , 33-C ) :   0.9115 B( 33-C , 34-H ) :   0.9790
B( 33-C , 35-H ) :   0.9648 B( 33-C , 36-H ) :   0.9626 B( 37-C , 38-C ) :   1.4381
B( 37-C , 46-C ) :   1.2653 B( 38-C , 39-C ) :   1.2444 B( 38-C , 75-O ) :   1.1388
B( 39-C , 40-C ) :   1.4769 B( 39-C , 52-C ) :   0.9824 B( 40-C , 41-C ) :   1.2249
B( 40-C , 51-H ) :   0.9877 B( 41-C , 42-C ) :   1.2526 B( 41-C , 46-C ) :   1.2470
B( 42-C , 43-C ) :   1.4899 B( 42-C , 50-H ) :   0.9856 B( 43-C , 44-C ) :   1.2630
B( 43-C , 49-H ) :   0.9836 B( 44-C , 45-C ) :   1.4921 B( 44-C , 48-H ) :   0.9799
B( 45-C , 46-C ) :   1.2824 B( 45-C , 47-H ) :   0.9670 B( 52-C , 53-C ) :   1.3484
B( 52-C , 57-C ) :   1.3755 B( 53-C , 54-N ) :   1.5393 B( 53-C , 74-H ) :   0.9737
B( 54-N , 55-C ) :   1.4833 B( 55-C , 56-C ) :   1.3527 B( 55-C , 60-C ) :   1.0337
B( 56-C , 57-C ) :   1.4177 B( 56-C , 59-H ) :   0.9640 B( 57-C , 58-H ) :   0.9789
B( 60-C , 61-N ) :   1.8815 B( 60-C , 73-H ) :   0.9348 B( 61-N , 62-C ) :   1.1153
B( 62-C , 63-C ) :   1.3357 B( 62-C , 67-C ) :   1.3695 B( 63-C , 64-C ) :   1.3940
B( 63-C , 72-H ) :   0.9841 B( 64-C , 65-C ) :   1.3882 B( 64-C , 71-H ) :   0.9794
B( 65-C , 66-C ) :   1.3806 B( 65-C , 70-H ) :   0.9870 B( 66-C , 67-C ) :   1.3901
B( 66-C , 69-H ) :   0.9821 B( 67-C , 68-H ) :   0.9875 B( 75-O , 76-C ) :   0.9191
B( 76-C , 77-H ) :   0.9646 B( 76-C , 78-H ) :   0.9743 B( 76-C , 79-H ) :   0.9633

Dispersion correction           -0.122037844
FINAL SINGLE POINT ENERGY     -2138.928994105843

DIPOLE MOMENT
-------------
                                X             Y             Z
Electronic contribution:      1.30196       6.32337       0.35908
Nuclear contribution   :     -1.81566      -5.17198      -0.22892
                        -----------------------------------------
Total Dipole Moment    :     -0.51370       1.15139       0.13015
                        -----------------------------------------
Magnitude (a.u.)       :      1.26749
Magnitude (Debye)      :      3.22171

Rotational constants in cm-1:     0.001525     0.000865     0.000603
Rotational constants in MHz :    45.707693    25.928445    18.069796

                             ****ORCA TERMINATED NORMALLY****
TOTAL RUN TIME: 0 days 0 hours 41 minutes 25 seconds 508 msec
