                         Program Version 4.2.1 -  RELEASE  -
|  1> # closed shell KS, PBE0/def2-SVP/D4
|  2> ! DFT OPT RKS PBE0 RIJCOSX GridX6 def2-SVP def2/J D4 Grid6 NOFINALGRID SlowConv TightSCF XYZFILE PDBFILE
|  3>
|  4> %base "_binolA"
|  5>
|  6> %scf
|  7>    MaxIter 2000
|  8> end
|  9>
| 10> %geom
| 11>    MaxIter 1000
| 12> end
| 13>
| 14> %pal
| 15>    nprocs 128
| 16> end
| 17>
| 18> * xyzfile 0 1 binolA_opt.xyz
| 19>
| 20>                          ****END OF INPUT****
 Total Charge           Charge          ....    0
 Multiplicity           Mult            ....    1
 Number of Electrons    NEL             ....  338
Dispersion correction           -0.112132451
FINAL SINGLE POINT ENERGY     -2060.486632714625
Dispersion correction            ...
Dispersion correction           -0.111313071
FINAL SINGLE POINT ENERGY     -2060.494853170323
Dispersion correction            ...
Dispersion correction           -0.111219727
FINAL SINGLE POINT ENERGY     -2060.495396857309
Dispersion correction            ...
FINAL SINGLE POINT ENERGY     -2060.495488704682
Dispersion correction            ...
Dispersion correction           -0.111245222
FINAL SINGLE POINT ENERGY     -2060.495490304016
Dispersion correction            ...
Dispersion correction           -0.111241775
FINAL SINGLE POINT ENERGY     -2060.495502156574
Dispersion correction            ...
                    ***********************HURRAY********************

CARTESIAN COORDINATES (ANGSTROEM)
---------------------------------
  H     -1.073702   -0.707575    1.401196
  O     -1.860462   -0.578457    0.849309
  C     -1.684948   -1.244318   -0.301530
  C     -0.526210   -1.972338   -0.542948
  C     -0.358563   -2.658016   -1.784210
  C      0.794167   -3.431823   -2.075085
  C      0.925442   -4.065307   -3.290056
  C     -0.086876   -3.963703   -4.270052
  C     -1.221102   -3.230657   -4.010179
  C     -1.385717   -2.563208   -2.770840
  C     -2.548759   -1.813044   -2.477092
  C     -2.727860   -1.160630   -1.274458
  C     -3.951326   -0.378915   -1.016039
  C     -4.483066    0.453962   -2.014086
  N     -5.597967    1.155359   -1.881642
  C     -6.263255    1.072498   -0.725876
  C     -5.819097    0.287253    0.345946
  C     -4.650765   -0.440483    0.198798
  H     -4.276789   -1.060683    1.014075
  H     -6.408446    0.267878    1.264057
  C     -7.499486    1.859654   -0.636460
  N     -8.240061    1.833592    0.398814
  C     -9.381520    2.628710    0.480260
  C     -9.439788    3.940155   -0.019315
  C    -10.605931    4.688256    0.111562
  C    -11.729332    4.142212    0.731463
  C    -11.673427    2.843622    1.239632
  C    -10.505429    2.097973    1.131065
  H    -10.438173    1.086546    1.536329
  H    -12.546401    2.412584    1.735829
  H    -12.642847    4.732739    0.831746
  H    -10.634731    5.711893   -0.269785
  H     -8.553540    4.380037   -0.482514
  H     -7.730759    2.450790   -1.541841
  H     -3.948076    0.560807   -2.965391
  H     -3.343373   -1.770233   -3.226264
  H     -2.014620   -3.150300   -4.757876
  H      0.031676   -4.472323   -5.229186
  H      1.819028   -4.659169   -3.496659
  H      1.572935   -3.527097   -1.315379
  C      0.529580   -1.981587    0.500402
  C      1.687426   -1.247432    0.274104
  C      2.727867   -1.178594    1.250798
  C      2.547577   -1.851906    2.441591
  C      1.385993   -2.610445    2.719207
  C      1.220580   -3.300664    3.945893
  C      0.088155   -4.041940    4.189720
  C     -0.921361   -4.129268    3.205476
  C     -0.789326   -3.473357    2.002555
  C      0.361434   -2.690473    1.728599
  H     -1.565877   -3.557728    1.239290
  H     -1.813357   -4.729919    3.398950
  H     -0.031041   -4.568195    5.139230
  H      2.012144   -3.231418    4.696775
  H      3.340273   -1.819775    3.193345
  C      3.950422   -0.390470    1.008159
  C      4.476402    0.430125    2.019262
  N      5.590127    1.135901    1.900252
  C      6.260094    1.069390    0.746151
  C      5.822182    0.296930   -0.337499
  C      4.654609   -0.434698   -0.204623
  H      4.284950   -1.044890   -1.029396
  H      6.415447    0.290413   -1.253265
  C      7.494671    1.860744    0.671232
  N      8.240612    1.846700   -0.360377
  C      9.380015    2.645899   -0.428724
  C      9.430122    3.954415    0.079273
  C     10.594387    4.707538   -0.039400
  C     11.723895    4.169337   -0.655002
  C     11.676222    2.873536   -1.171100
  C     10.510227    2.123084   -1.074995
  H     10.449405    1.113894   -1.486798
  H     12.554094    2.448552   -1.663864
  H     12.635852    4.763805   -0.745700
  H     10.616897    5.728957    0.348256
  H      8.539145    4.388129    0.539231
  H      7.719730    2.443662    1.583484
  H      3.937578    0.522939    2.969888
  O      1.864405   -0.561284   -0.864579
  H      1.079066   -0.681907   -1.420385

 Multiplicity           Mult            ....    1
 Number of Electrons    NEL             ....  338
 Basis Dimension        Dim             ....  850

ORBITAL ENERGIES
----------------

  NO   OCC          E(Eh)            E(eV)
   0   2.0000     -19.260592      -524.1074
   1   2.0000     -19.260525      -524.1055
   2   2.0000     -14.396394      -391.7458
   3   2.0000     -14.396357      -391.7448
   4   2.0000     -14.395334      -391.7170
   5   2.0000     -14.395299      -391.7160
   6   2.0000     -10.321790      -280.8702
   7   2.0000     -10.321773      -280.8697
   8   2.0000     -10.282400      -279.7983
   9   2.0000     -10.282343      -279.7968
  10   2.0000     -10.278858      -279.7019
  11   2.0000     -10.278826      -279.7011
  12   2.0000     -10.277647      -279.6690
  13   2.0000     -10.277619      -279.6682
  14   2.0000     -10.270174      -279.4657
  15   2.0000     -10.270163      -279.4653
  16   2.0000     -10.268086      -279.4088
  17   2.0000     -10.268060      -279.4081
  18   2.0000     -10.267671      -279.3975
  19   2.0000     -10.267664      -279.3973
  20   2.0000     -10.266202      -279.3576
  21   2.0000     -10.266197      -279.3574
  22   2.0000     -10.263368      -279.2805
  23   2.0000     -10.263130      -279.2740
  24   2.0000     -10.261923      -279.2411
  25   2.0000     -10.261906      -279.2407
  26   2.0000     -10.260570      -279.2043
  27   2.0000     -10.260519      -279.2029
  28   2.0000     -10.260089      -279.1912
  29   2.0000     -10.260079      -279.1909
  30   2.0000     -10.254136      -279.0292
  31   2.0000     -10.254133      -279.0291
  32   2.0000     -10.253362      -279.0082
  33   2.0000     -10.253347      -279.0077
  34   2.0000     -10.251165      -278.9484
  35   2.0000     -10.251138      -278.9476
  36   2.0000     -10.250284      -278.9244
  37   2.0000     -10.250252      -278.9235
  38   2.0000     -10.250054      -278.9182
  39   2.0000     -10.250051      -278.9181
  40   2.0000     -10.241150      -278.6759
  41   2.0000     -10.241137      -278.6755
  42   2.0000     -10.240148      -278.6486
  43   2.0000     -10.240143      -278.6485
  44   2.0000     -10.239885      -278.6414
  45   2.0000     -10.239879      -278.6413
  46   2.0000     -10.238421      -278.6016
  47   2.0000     -10.238392      -278.6008
  48   2.0000     -10.236393      -278.5464
  49   2.0000     -10.236383      -278.5461
  50   2.0000      -1.108839       -30.1730
  51   2.0000      -1.105556       -30.0837
  52   2.0000      -0.981555       -26.7095
  53   2.0000      -0.981527       -26.7087
  54   2.0000      -0.958777       -26.0896
  55   2.0000      -0.958736       -26.0885
  56   2.0000      -0.920529       -25.0489
  57   2.0000      -0.911151       -24.7937
  58   2.0000      -0.870394       -23.6846
  59   2.0000      -0.870357       -23.6836
  60   2.0000      -0.866926       -23.5902
  61   2.0000      -0.866869       -23.5887
  62   2.0000      -0.849953       -23.1284
  63   2.0000      -0.829568       -22.5737
  64   2.0000      -0.821390       -22.3512
  65   2.0000      -0.806529       -21.9468
  66   2.0000      -0.803322       -21.8595
  67   2.0000      -0.794691       -21.6247
  68   2.0000      -0.775044       -21.0900
  69   2.0000      -0.774171       -21.0663
  70   2.0000      -0.764255       -20.7964
  71   2.0000      -0.764241       -20.7961
  72   2.0000      -0.760264       -20.6878
  73   2.0000      -0.755106       -20.5475
  74   2.0000      -0.750678       -20.4270
  75   2.0000      -0.737727       -20.0746
  76   2.0000      -0.693981       -18.8842
  77   2.0000      -0.693703       -18.8766
  78   2.0000      -0.689644       -18.7662
  79   2.0000      -0.668701       -18.1963
  80   2.0000      -0.653533       -17.7835
  81   2.0000      -0.650311       -17.6959
  82   2.0000      -0.646555       -17.5936
  83   2.0000      -0.644589       -17.5402
  84   2.0000      -0.640128       -17.4188
  85   2.0000      -0.627715       -17.0810
  86   2.0000      -0.625574       -17.0227
  87   2.0000      -0.618202       -16.8221
  88   2.0000      -0.617015       -16.7898
  89   2.0000      -0.611209       -16.6319
  90   2.0000      -0.587939       -15.9986
  91   2.0000      -0.585492       -15.9320
  92   2.0000      -0.582493       -15.8504
  93   2.0000      -0.582064       -15.8388
  94   2.0000      -0.557724       -15.1764
  95   2.0000      -0.557212       -15.1625
  96   2.0000      -0.551234       -14.9998
  97   2.0000      -0.548720       -14.9314
  98   2.0000      -0.546344       -14.8668
  99   2.0000      -0.534330       -14.5399
 100   2.0000      -0.517958       -14.0943
 101   2.0000      -0.516110       -14.0441
 102   2.0000      -0.510110       -13.8808
 103   2.0000      -0.506125       -13.7724
 104   2.0000      -0.492505       -13.4017
 105   2.0000      -0.490451       -13.3458
 106   2.0000      -0.489717       -13.3259
 107   2.0000      -0.489282       -13.3140
 108   2.0000      -0.481816       -13.1109
 109   2.0000      -0.480722       -13.0811
 110   2.0000      -0.475197       -12.9308
 111   2.0000      -0.474970       -12.9246
 112   2.0000      -0.474507       -12.9120
 113   2.0000      -0.465452       -12.6656
 114   2.0000      -0.465105       -12.6561
 115   2.0000      -0.460294       -12.5252
 116   2.0000      -0.458240       -12.4693
 117   2.0000      -0.453013       -12.3271
 118   2.0000      -0.452964       -12.3258
 119   2.0000      -0.447559       -12.1787
 120   2.0000      -0.447396       -12.1743
 121   2.0000      -0.445480       -12.1221
 122   2.0000      -0.439423       -11.9573
 123   2.0000      -0.435957       -11.8630
 124   2.0000      -0.435732       -11.8569
 125   2.0000      -0.433423       -11.7940
 126   2.0000      -0.432516       -11.7694
 127   2.0000      -0.427769       -11.6402
 128   2.0000      -0.426744       -11.6123
 129   2.0000      -0.424005       -11.5378
 130   2.0000      -0.420204       -11.4343
 131   2.0000      -0.413265       -11.2455
 132   2.0000      -0.406840       -11.0707
 133   2.0000      -0.403526       -10.9805
 134   2.0000      -0.401768       -10.9327
 135   2.0000      -0.401091       -10.9142
 136   2.0000      -0.398024       -10.8308
 137   2.0000      -0.390980       -10.6391
 138   2.0000      -0.390444       -10.6245
 139   2.0000      -0.375010       -10.2045
 140   2.0000      -0.374968       -10.2034
 141   2.0000      -0.373651       -10.1675
 142   2.0000      -0.371323       -10.1042
 143   2.0000      -0.369189       -10.0461
 144   2.0000      -0.364420        -9.9164
 145   2.0000      -0.364299        -9.9131
 146   2.0000      -0.355308        -9.6684
 147   2.0000      -0.354583        -9.6487
 148   2.0000      -0.352600        -9.5947
 149   2.0000      -0.344063        -9.3624
 150   2.0000      -0.342040        -9.3074
 151   2.0000      -0.323667        -8.8074
 152   2.0000      -0.313927        -8.5424
 153   2.0000      -0.309589        -8.4244
 154   2.0000      -0.305102        -8.3022
 155   2.0000      -0.300763        -8.1842
 156   2.0000      -0.300582        -8.1793
 157   2.0000      -0.285024        -7.7559
 158   2.0000      -0.284692        -7.7469
 159   2.0000      -0.273942        -7.4543
 160   2.0000      -0.273492        -7.4421
 161   2.0000      -0.268804        -7.3145
 162   2.0000      -0.268773        -7.3137
 163   2.0000      -0.255065        -6.9407
 164   2.0000      -0.255030        -6.9397
 165   2.0000      -0.244485        -6.6528
 166   2.0000      -0.236840        -6.4447
 167   2.0000      -0.235499        -6.4082
 168   2.0000      -0.232104        -6.3159
 169   0.0000      -0.079070        -2.1516
 170   0.0000      -0.077261        -2.1024
 171   0.0000      -0.057034        -1.5520
 172   0.0000      -0.048842        -1.3291
 173   0.0000      -0.026149        -0.7116

MULLIKEN ATOMIC CHARGES
-----------------------
   0 H :    0.207262
   1 O :   -0.188560
   2 C :    0.153485
   3 C :   -0.176689
   4 C :    0.012287
   5 C :   -0.045780
   6 C :    0.001839
   7 C :   -0.008594
   8 C :   -0.025687
   9 C :    0.021600
  10 C :   -0.049689
  11 C :   -0.001141
  12 C :   -0.050506
  13 C :    0.057521
  14 N :   -0.156812
  15 C :   -0.039761
  16 C :   -0.001076
  17 C :    0.072138
  18 H :    0.029276
  19 H :    0.035119
  20 C :    0.083024
  21 N :   -0.141166
  22 C :    0.047949
  23 C :   -0.026647
  24 C :   -0.025790
  25 C :   -0.008978
  26 C :   -0.028171
  27 C :    0.007456
  28 H :    0.010919
  29 H :    0.022895
  30 H :    0.022055
  31 H :    0.022332
  32 H :    0.015564
  33 H :    0.016668
  34 H :    0.031275
  35 H :    0.010934
  36 H :    0.013123
  37 H :    0.024425
  38 H :    0.024836
  39 H :    0.031037
  40 C :   -0.176483
  41 C :    0.153588
  42 C :   -0.001734
  43 C :   -0.049403
  44 C :    0.021795
  45 C :   -0.025681
  46 C :   -0.008703
  47 C :    0.001733
  48 C :   -0.045230
  49 C :    0.011486
  50 H :    0.031151
  51 H :    0.024886
  52 H :    0.024477
  53 H :    0.013160
  54 H :    0.010901
  55 C :   -0.050828
  56 C :    0.057845
  57 N :   -0.156834
  58 C :   -0.039735
  59 C :   -0.001224
  60 C :    0.072575
  61 H :    0.029131
  62 H :    0.035200
  63 C :    0.083198
  64 N :   -0.141243
  65 C :    0.047831
  66 C :   -0.026587
  67 C :   -0.025750
  68 C :   -0.009073
  69 C :   -0.028161
  70 C :    0.007484
  71 H :    0.010895
  72 H :    0.022872
  73 H :    0.022069
  74 H :    0.022330
  75 H :    0.015538
  76 H :    0.016701
  77 H :    0.031235
  78 O :   -0.188583
  79 H :    0.207194
Sum of atomic charges:   -0.0000000

LOEWDIN ATOMIC CHARGES
----------------------
   0 H :    0.095820
   1 O :   -0.022308
   2 C :    0.064842
   3 C :   -0.102066
   4 C :   -0.020746
   5 C :   -0.034910
   6 C :   -0.022229
   7 C :   -0.038660
   8 C :   -0.014724
   9 C :   -0.036855
  10 C :    0.004383
  11 C :   -0.049741
  12 C :   -0.037607
  13 C :    0.020774
  14 N :   -0.076580
  15 C :   -0.021141
  16 C :   -0.013068
  17 C :    0.014858
  18 H :    0.038910
  19 H :    0.043308
  20 C :    0.048435
  21 N :   -0.068389
  22 C :   -0.007763
  23 C :   -0.044325
  24 C :   -0.028276
  25 C :   -0.038528
  26 C :   -0.029647
  27 C :   -0.028724
  28 H :    0.036211
  29 H :    0.035052
  30 H :    0.033765
  31 H :    0.035124
  32 H :    0.034300
  33 H :    0.015638
  34 H :    0.026914
  35 H :    0.038994
  36 H :    0.036110
  37 H :    0.036512
  38 H :    0.037408
  39 H :    0.038894
  40 C :   -0.102062
  41 C :    0.064724
  42 C :   -0.049774
  43 C :    0.004379
  44 C :   -0.036872
  45 C :   -0.014759
  46 C :   -0.038650
  47 C :   -0.022243
  48 C :   -0.034781
  49 C :   -0.020748
  50 H :    0.038932
  51 H :    0.037420
  52 H :    0.036524
  53 H :    0.036116
  54 H :    0.039011
  55 C :   -0.037592
  56 C :    0.020780
  57 N :   -0.076564
  58 C :   -0.021149
  59 C :   -0.013071
  60 C :    0.014916
  61 H :    0.038909
  62 H :    0.043322
  63 C :    0.048526
  64 N :   -0.068314
  65 C :   -0.007735
  66 C :   -0.044390
  67 C :   -0.028265
  68 C :   -0.038604
  69 C :   -0.029618
  70 C :   -0.028814
  71 H :    0.036204
  72 H :    0.035047
  73 H :    0.033765
  74 H :    0.035122
  75 H :    0.034298
  76 H :    0.015670
  77 H :    0.026930
  78 O :   -0.022394
  79 H :    0.095841

  Mayer bond orders larger than 0.100000
B(  0-H ,  1-O ) :   0.9336 B(  1-O ,  2-C ) :   1.2781 B(  2-C ,  3-C ) :   1.3976
B(  2-C , 11-C ) :   1.2398 B(  3-C ,  4-C ) :   1.2715 B(  3-C , 40-C ) :   0.9317
B(  4-C ,  5-C ) :   1.2899 B(  4-C ,  9-C ) :   1.2296 B(  5-C ,  6-C ) :   1.4838
B(  5-C , 39-H ) :   0.9709 B(  6-C ,  7-C ) :   1.2676 B(  6-C , 38-H ) :   0.9790
B(  7-C ,  8-C ) :   1.4897 B(  7-C , 37-H ) :   0.9822 B(  8-C ,  9-C ) :   1.2561
B(  8-C , 36-H ) :   0.9865 B(  9-C , 10-C ) :   1.2233 B( 10-C , 11-C ) :   1.4881
B( 10-C , 35-H ) :   0.9892 B( 11-C , 12-C ) :   0.9771 B( 12-C , 13-C ) :   1.3526
B( 12-C , 17-C ) :   1.3752 B( 13-C , 14-N ) :   1.5383 B( 13-C , 34-H ) :   0.9743
B( 14-N , 15-C ) :   1.4843 B( 15-C , 16-C ) :   1.3549 B( 15-C , 20-C ) :   1.0310
B( 16-C , 17-C ) :   1.4229 B( 16-C , 19-H ) :   0.9624 B( 17-C , 18-H ) :   0.9785
B( 20-C , 21-N ) :   1.8861 B( 20-C , 33-H ) :   0.9362 B( 21-N , 22-C ) :   1.1099
B( 22-C , 23-C ) :   1.3400 B( 22-C , 27-C ) :   1.3671 B( 23-C , 24-C ) :   1.3906
B( 23-C , 32-H ) :   0.9842 B( 24-C , 25-C ) :   1.3901 B( 24-C , 31-H ) :   0.9798
B( 25-C , 26-C ) :   1.3800 B( 25-C , 30-H ) :   0.9870 B( 26-C , 27-C ) :   1.3915
B( 26-C , 29-H ) :   0.9820 B( 27-C , 28-H ) :   0.9883 B( 40-C , 41-C ) :   1.3977
B( 40-C , 49-C ) :   1.2712 B( 41-C , 42-C ) :   1.2398 B( 41-C , 78-O ) :   1.2782
B( 42-C , 43-C ) :   1.4885 B( 42-C , 55-C ) :   0.9768 B( 43-C , 44-C ) :   1.2230
B( 43-C , 54-H ) :   0.9893 B( 44-C , 45-C ) :   1.2562 B( 44-C , 49-C ) :   1.2296
B( 45-C , 46-C ) :   1.4896 B( 45-C , 53-H ) :   0.9865 B( 46-C , 47-C ) :   1.2675
B( 46-C , 52-H ) :   0.9823 B( 47-C , 48-C ) :   1.4838 B( 47-C , 51-H ) :   0.9790
B( 48-C , 49-C ) :   1.2902 B( 48-C , 50-H ) :   0.9708 B( 55-C , 56-C ) :   1.3529
B( 55-C , 60-C ) :   1.3753 B( 56-C , 57-N ) :   1.5380 B( 56-C , 77-H ) :   0.9743
B( 57-N , 58-C ) :   1.4844 B( 58-C , 59-C ) :   1.3548 B( 58-C , 63-C ) :   1.0309
B( 59-C , 60-C ) :   1.4230 B( 59-C , 62-H ) :   0.9624 B( 60-C , 61-H ) :   0.9785
B( 63-C , 64-N ) :   1.8863 B( 63-C , 76-H ) :   0.9363 B( 64-N , 65-C ) :   1.1095
B( 65-C , 66-C ) :   1.3403 B( 65-C , 70-C ) :   1.3670 B( 66-C , 67-C ) :   1.3904
B( 66-C , 75-H ) :   0.9842 B( 67-C , 68-C ) :   1.3902 B( 67-C , 74-H ) :   0.9797
B( 68-C , 69-C ) :   1.3799 B( 68-C , 73-H ) :   0.9870 B( 69-C , 70-C ) :   1.3917
B( 69-C , 72-H ) :   0.9820 B( 70-C , 71-H ) :   0.9883 B( 78-O , 79-H ) :   0.9336

Dispersion correction           -0.111238913
FINAL SINGLE POINT ENERGY     -2060.495503292478

DIPOLE MOMENT
-------------
                                X             Y             Z
Electronic contribution:      0.00497      -5.30330      -0.04527
Nuclear contribution   :     -0.00425       4.22804       0.03404
                        -----------------------------------------
Total Dipole Moment    :      0.00072      -1.07527      -0.01123
                        -----------------------------------------
Magnitude (a.u.)       :      1.07533
Magnitude (Debye)      :      2.73326

Rotational constants in cm-1:     0.002616     0.000606     0.000563
Rotational constants in MHz :    78.424099    18.182089    16.891296

                             ****ORCA TERMINATED NORMALLY****
TOTAL RUN TIME: 0 days 0 hours 12 minutes 51 seconds 713 msec
