                         Program Version 4.2.1 -  RELEASE  -
|  1> # closed shell KS, PBE0/def2-SVP/D4
|  2> ! DFT OPT RKS PBE0 RIJCOSX GridX6 def2-SVP def2/J D4 Grid6 NOFINALGRID SlowConv TightSCF XYZFILE PDBFILE
|  3>
|  4> %base "_longC"
|  5>
|  6> %scf
|  7>    MaxIter 2000
|  8> end
|  9>
| 10> %geom
| 11>    MaxIter 1000
| 12> end
| 13>
| 14> %pal
| 15>    nprocs 128
| 16> end
| 17>
| 18> * xyzfile 0 1 longC_opt.xyz
| 19>
| 20>                          ****END OF INPUT****
 Total Charge           Charge          ....    0
 Multiplicity           Mult            ....    1
 Number of Electrons    NEL             ....  190
Dispersion correction           -0.053830990
FINAL SINGLE POINT ENERGY     -1142.283014319606
Dispersion correction            ...
Dispersion correction           -0.053506718
FINAL SINGLE POINT ENERGY     -1142.287886296992
Dispersion correction            ...
Dispersion correction           -0.053485649
FINAL SINGLE POINT ENERGY     -1142.288210179995
Dispersion correction            ...
FINAL SINGLE POINT ENERGY     -1142.288284934650
FINAL SINGLE POINT ENERGY     -1142.288293079161
Dispersion correction            ...
Dispersion correction           -0.053503139
FINAL SINGLE POINT ENERGY     -1142.288296045369
Dispersion correction            ...
Dispersion correction           -0.053500119
FINAL SINGLE POINT ENERGY     -1142.288300356061
Dispersion correction            ...
                    ***********************HURRAY********************

CARTESIAN COORDINATES (ANGSTROEM)
---------------------------------
  H     -5.230590    1.537973    0.389160
  C     -4.922778    0.513920    0.108893
  N     -5.739320   -0.416972   -0.187693
  C     -7.116474   -0.218147   -0.105392
  C     -7.929430   -0.896996   -1.025647
  C     -9.310268   -0.738184   -0.998326
  C     -9.905187    0.074516   -0.032493
  C     -9.106270    0.727886    0.905726
  C     -7.722435    0.587675    0.872911
  H     -7.104549    1.077872    1.628722
  H     -9.566815    1.347490    1.679295
  H    -10.991492    0.186145   -0.001601
  H     -9.930168   -1.262285   -1.729867
  H     -7.446305   -1.539824   -1.764226
  C     -3.470014    0.303904    0.087190
  N     -2.719630    1.356572    0.427598
  C     -1.403473    1.221108    0.417958
  C     -0.734317    0.037628    0.060430
  C     -1.536819   -1.060042   -0.289103
  C     -2.915250   -0.932031   -0.271753
  H     -3.584409   -1.750601   -0.541501
  H     -1.076098   -2.001589   -0.597258
  C      0.734323   -0.037053    0.060552
  C      1.403309   -1.223814    0.407335
  N      2.719465   -1.359308    0.416406
  C      3.469995   -0.303497    0.086217
  C      2.915401    0.935795   -0.261213
  C      1.536976    1.063926   -0.278051
  H      1.076387    2.008335   -0.577515
  H      3.584672    1.756863   -0.522985
  C      4.922712   -0.514009    0.106014
  N      5.739526    0.419159   -0.182562
  C      7.116598    0.218588   -0.102774
  C      7.929484    0.903598   -1.018503
  C      9.310168    0.743055   -0.993608
  C      9.905025   -0.077635   -0.034520
  C      9.106211   -0.737246    0.899401
  C      7.722492   -0.595339    0.868826
  H      7.104695   -1.090669    1.621360
  H      9.566730   -1.363259    1.667812
  H     10.991231   -0.190722   -0.005515
  H      9.930006    1.271974   -1.721728
  H      7.446429    1.552518   -1.751783
  H      5.230259   -1.540625    0.377071
  H      0.823659   -2.102628    0.713011
  H     -0.823967    2.096992    0.732189

 Multiplicity           Mult            ....    1
 Number of Electrons    NEL             ....  190
 Basis Dimension        Dim             ....  482

ORBITAL ENERGIES
----------------

  NO   OCC          E(Eh)            E(eV)
   0   2.0000     -14.402416      -391.9097
   1   2.0000     -14.402411      -391.9095
   2   2.0000     -14.401114      -391.8742
   3   2.0000     -14.401107      -391.8740
   4   2.0000     -10.286725      -279.9160
   5   2.0000     -10.286723      -279.9160
   6   2.0000     -10.285894      -279.8934
   7   2.0000     -10.285891      -279.8933
   8   2.0000     -10.285357      -279.8788
   9   2.0000     -10.285348      -279.8785
  10   2.0000     -10.273808      -279.5645
  11   2.0000     -10.273803      -279.5644
  12   2.0000     -10.273284      -279.5503
  13   2.0000     -10.273157      -279.5468
  14   2.0000     -10.270202      -279.4664
  15   2.0000     -10.270200      -279.4663
  16   2.0000     -10.258484      -279.1475
  17   2.0000     -10.258475      -279.1473
  18   2.0000     -10.244698      -278.7724
  19   2.0000     -10.244689      -278.7722
  20   2.0000     -10.243736      -278.7462
  21   2.0000     -10.243727      -278.7460
  22   2.0000     -10.243471      -278.7390
  23   2.0000     -10.243464      -278.7388
  24   2.0000     -10.242232      -278.7053
  25   2.0000     -10.242217      -278.7049
  26   2.0000     -10.240149      -278.6486
  27   2.0000     -10.240141      -278.6484
  28   2.0000      -0.989650       -26.9297
  29   2.0000      -0.986652       -26.8482
  30   2.0000      -0.963858       -26.2279
  31   2.0000      -0.962757       -26.1979
  32   2.0000      -0.874442       -23.7948
  33   2.0000      -0.872928       -23.7536
  34   2.0000      -0.866746       -23.5854
  35   2.0000      -0.829528       -22.5726
  36   2.0000      -0.813978       -22.1495
  37   2.0000      -0.798362       -21.7245
  38   2.0000      -0.769497       -20.9391
  39   2.0000      -0.767951       -20.8970
  40   2.0000      -0.764764       -20.8103
  41   2.0000      -0.754836       -20.5401
  42   2.0000      -0.710369       -19.3301
  43   2.0000      -0.681581       -18.5468
  44   2.0000      -0.669250       -18.2112
  45   2.0000      -0.655326       -17.8323
  46   2.0000      -0.639112       -17.3911
  47   2.0000      -0.632319       -17.2063
  48   2.0000      -0.622205       -16.9311
  49   2.0000      -0.621986       -16.9251
  50   2.0000      -0.590807       -16.0767
  51   2.0000      -0.587847       -15.9961
  52   2.0000      -0.557621       -15.1736
  53   2.0000      -0.557053       -15.1582
  54   2.0000      -0.544859       -14.8264
  55   2.0000      -0.531136       -14.4529
  56   2.0000      -0.513920       -13.9845
  57   2.0000      -0.510314       -13.8863
  58   2.0000      -0.500015       -13.6061
  59   2.0000      -0.490232       -13.3399
  60   2.0000      -0.483835       -13.1658
  61   2.0000      -0.478836       -13.0298
  62   2.0000      -0.477054       -12.9813
  63   2.0000      -0.466346       -12.6899
  64   2.0000      -0.458279       -12.4704
  65   2.0000      -0.454546       -12.3688
  66   2.0000      -0.452008       -12.2998
  67   2.0000      -0.447084       -12.1658
  68   2.0000      -0.440337       -11.9822
  69   2.0000      -0.438368       -11.9286
  70   2.0000      -0.438339       -11.9278
  71   2.0000      -0.430265       -11.7081
  72   2.0000      -0.425148       -11.5689
  73   2.0000      -0.422650       -11.5009
  74   2.0000      -0.405292       -11.0286
  75   2.0000      -0.397527       -10.8173
  76   2.0000      -0.388674       -10.5764
  77   2.0000      -0.378452       -10.2982
  78   2.0000      -0.378407       -10.2970
  79   2.0000      -0.371502       -10.1091
  80   2.0000      -0.367101        -9.9893
  81   2.0000      -0.361264        -9.8305
  82   2.0000      -0.354708        -9.6521
  83   2.0000      -0.331896        -9.0313
  84   2.0000      -0.314183        -8.5493
  85   2.0000      -0.306647        -8.3443
  86   2.0000      -0.303173        -8.2497
  87   2.0000      -0.290304        -7.8996
  88   2.0000      -0.287512        -7.8236
  89   2.0000      -0.275332        -7.4922
  90   2.0000      -0.272970        -7.4279
  91   2.0000      -0.272068        -7.4034
  92   2.0000      -0.268204        -7.2982
  93   2.0000      -0.245961        -6.6929
  94   2.0000      -0.236737        -6.4419
  95   0.0000      -0.091478        -2.4892
  96   0.0000      -0.062729        -1.7069
  97   0.0000      -0.038381        -1.0444
  98   0.0000      -0.030963        -0.8425
  99   0.0000      -0.011459        -0.3118

MULLIKEN ATOMIC CHARGES
-----------------------
   0 H :    0.017263
   1 C :    0.083425
   2 N :   -0.140698
   3 C :    0.047197
   4 C :    0.007518
   5 C :   -0.027505
   6 C :   -0.007755
   7 C :   -0.027496
   8 C :   -0.026406
   9 H :    0.017354
  10 H :    0.023732
  11 H :    0.024502
  12 H :    0.024770
  13 H :    0.012835
  14 C :   -0.039675
  15 N :   -0.152699
  16 C :    0.054185
  17 C :   -0.031914
  18 C :    0.028782
  19 C :    0.009397
  20 H :    0.037823
  21 H :    0.031566
  22 C :   -0.031915
  23 C :    0.054207
  24 N :   -0.152695
  25 C :   -0.039740
  26 C :    0.009464
  27 C :    0.028741
  28 H :    0.031565
  29 H :    0.037839
  30 C :    0.083360
  31 N :   -0.140715
  32 C :    0.047141
  33 C :    0.007534
  34 C :   -0.027521
  35 C :   -0.007765
  36 C :   -0.027509
  37 C :   -0.026349
  38 H :    0.017362
  39 H :    0.023737
  40 H :    0.024495
  41 H :    0.024773
  42 H :    0.012841
  43 H :    0.017316
  44 H :    0.033820
  45 H :    0.033811
Sum of atomic charges:   -0.0000000

LOEWDIN ATOMIC CHARGES
----------------------
   0 H :    0.015975
   1 C :    0.046701
   2 N :   -0.067127
   3 C :   -0.009187
   4 C :   -0.026559
   5 C :   -0.029226
   6 C :   -0.035822
   7 C :   -0.027975
   8 C :   -0.042660
   9 H :    0.034642
  10 H :    0.035653
  11 H :    0.034663
  12 H :    0.035823
  13 H :    0.036791
  14 C :   -0.018580
  15 N :   -0.072944
  16 C :    0.023507
  17 C :   -0.042472
  18 C :    0.004997
  19 C :   -0.009074
  20 H :    0.044694
  21 H :    0.040242
  22 C :   -0.042469
  23 C :    0.023507
  24 N :   -0.072933
  25 C :   -0.018588
  26 C :   -0.009074
  27 C :    0.005002
  28 H :    0.040242
  29 H :    0.044700
  30 C :    0.046692
  31 N :   -0.067120
  32 C :   -0.009168
  33 C :   -0.026589
  34 C :   -0.029219
  35 C :   -0.035849
  36 C :   -0.027973
  37 C :   -0.042684
  38 H :    0.034646
  39 H :    0.035654
  40 H :    0.034660
  41 H :    0.035823
  42 H :    0.036791
  43 H :    0.015991
  44 H :    0.027951
  45 H :    0.027947

  Mayer bond orders larger than 0.100000
B(  0-H ,  1-C ) :   0.9360 B(  1-C ,  2-N ) :   1.8827 B(  1-C , 14-C ) :   1.0318
B(  2-N ,  3-C ) :   1.1158 B(  3-C ,  4-C ) :   1.3672 B(  3-C ,  8-C ) :   1.3344
B(  4-C ,  5-C ) :   1.3897 B(  4-C , 13-H ) :   0.9886 B(  5-C ,  6-C ) :   1.3807
B(  5-C , 12-H ) :   0.9825 B(  6-C ,  7-C ) :   1.3872 B(  6-C , 11-H ) :   0.9869
B(  7-C ,  8-C ) :   1.3952 B(  7-C , 10-H ) :   0.9802 B(  8-C ,  9-H ) :   0.9843
B( 14-C , 15-N ) :   1.4810 B( 14-C , 19-C ) :   1.3553 B( 15-N , 16-C ) :   1.5471
B( 16-C , 17-C ) :   1.3390 B( 16-C , 45-H ) :   0.9742 B( 17-C , 18-C ) :   1.3716
B( 17-C , 22-C ) :   1.0116 B( 18-C , 19-C ) :   1.4240 B( 18-C , 21-H ) :   0.9782
B( 19-C , 20-H ) :   0.9618 B( 22-C , 23-C ) :   1.3390 B( 22-C , 27-C ) :   1.3716
B( 23-C , 24-N ) :   1.5470 B( 23-C , 44-H ) :   0.9742 B( 24-N , 25-C ) :   1.4810
B( 25-C , 26-C ) :   1.3552 B( 25-C , 30-C ) :   1.0318 B( 26-C , 27-C ) :   1.4240
B( 26-C , 29-H ) :   0.9618 B( 27-C , 28-H ) :   0.9783 B( 30-C , 31-N ) :   1.8828
B( 30-C , 43-H ) :   0.9360 B( 31-N , 32-C ) :   1.1156 B( 32-C , 33-C ) :   1.3672
B( 32-C , 37-C ) :   1.3344 B( 33-C , 34-C ) :   1.3897 B( 33-C , 42-H ) :   0.9886
B( 34-C , 35-C ) :   1.3807 B( 34-C , 41-H ) :   0.9825 B( 35-C , 36-C ) :   1.3872
B( 35-C , 40-H ) :   0.9869 B( 36-C , 37-C ) :   1.3951 B( 36-C , 39-H ) :   0.9802
B( 37-C , 38-H ) :   0.9843

Dispersion correction           -0.053497368
FINAL SINGLE POINT ENERGY     -1142.288303732979

DIPOLE MOMENT
-------------
                                X             Y             Z
Electronic contribution:     -0.00046       0.00388       0.26389
Nuclear contribution   :     -0.00030      -0.00369      -0.37126
                        -----------------------------------------
Total Dipole Moment    :     -0.00076       0.00020      -0.10737
                        -----------------------------------------
Magnitude (a.u.)       :      0.10737
Magnitude (Debye)      :      0.27292

Rotational constants in cm-1:     0.045136     0.001207     0.001197
Rotational constants in MHz :  1353.141055    36.187842    35.881069

                             ****ORCA TERMINATED NORMALLY****
TOTAL RUN TIME: 0 days 0 hours 7 minutes 44 seconds 70 msec
