                         Program Version 4.2.1 -  RELEASE  -
|  1> # closed shell KS, PBE0/def2-SVP/D4
|  2> ! DFT OPT RKS PBE0 RIJCOSX GridX6 def2-SVP def2/J D4 Grid6 NOFINALGRID SlowConv TightSCF XYZFILE PDBFILE
|  3>
|  4> %base "_longD"
|  5>
|  6> %scf
|  7>    MaxIter 2000
|  8> end
|  9>
| 10> %geom
| 11>    MaxIter 1000
| 12> end
| 13>
| 14> %pal
| 15>    nprocs 128
| 16> end
| 17>
| 18> * xyzfile 0 1 longD_opt.xyz
| 19>
| 20>                          ****END OF INPUT****
 Total Charge           Charge          ....    0
 Multiplicity           Mult            ....    1
 Number of Electrons    NEL             ....  230
Dispersion correction           -0.068031183
FINAL SINGLE POINT ENERGY     -1372.919643638130
Dispersion correction            ...
Dispersion correction           -0.067583051
FINAL SINGLE POINT ENERGY     -1372.925400887063
Dispersion correction            ...
Dispersion correction           -0.067538392
FINAL SINGLE POINT ENERGY     -1372.925780866876
Dispersion correction            ...
Dispersion correction           -0.067547609
FINAL SINGLE POINT ENERGY     -1372.925898289184
Dispersion correction            ...
Dispersion correction           -0.067557692
FINAL SINGLE POINT ENERGY     -1372.925920670127
Dispersion correction            ...
                    ***********************HURRAY********************

CARTESIAN COORDINATES (ANGSTROEM)
---------------------------------
  H     -7.446550   -0.841890   -1.283927
  C     -7.091984   -0.229864   -0.434236
  N     -7.867105    0.402843    0.353133
  C     -9.251209    0.295538    0.230475
  C     -9.901297   -0.908891   -0.085150
  C    -11.289234   -0.952528   -0.176357
  C    -12.047548    0.198077    0.037105
  C    -11.407573    1.394626    0.363398
  C    -10.022941    1.440784    0.477298
  H     -9.505998    2.363702    0.747228
  H    -11.995470    2.298031    0.543077
  H    -13.136796    0.159308   -0.036117
  H    -11.784455   -1.898136   -0.410542
  H     -9.311829   -1.817577   -0.227807
  C     -5.631814   -0.181598   -0.287217
  N     -4.925621   -0.857531   -1.198669
  C     -3.604785   -0.839441   -1.111249
  C     -2.889519   -0.150339   -0.116859
  C     -3.646676    0.547423    0.836249
  C     -5.028710    0.534186    0.755436
  H     -5.663787    1.067338    1.464687
  H     -3.145272    1.116501    1.623037
  C     -1.416855   -0.169418   -0.077985
  C     -0.659607   -0.140879   -1.258435
  C      0.728239   -0.145749   -1.217318
  C      1.415967   -0.186662    0.004319
  C      0.658573   -0.223007    1.184463
  C     -0.729050   -0.211109    1.143567
  H     -1.292316   -0.250357    2.078786
  H      1.166035   -0.239499    2.151561
  C      2.888588   -0.183192    0.047524
  C      3.593589   -0.935806    1.002446
  N      4.913383   -0.962944    1.100305
  C      5.629360   -0.233574    0.239133
  C      5.037346    0.542868   -0.765799
  C      3.656008    0.565690   -0.857296
  H      3.163086    1.183027   -1.612470
  H      5.679950    1.116155   -1.435881
  C      7.087329   -0.284976    0.404958
  N      7.870678    0.398733   -0.329865
  C      9.253421    0.298874   -0.185640
  C     10.015675    1.463478   -0.360671
  C     11.398112    1.428219   -0.219489
  C     12.046315    0.225075    0.062870
  C     11.298300   -0.943321    0.204363
  C      9.912203   -0.911678    0.085331
  H      9.331948   -1.833312    0.171581
  H     11.800515   -1.893287    0.403384
  H     13.134166    0.195678    0.157948
  H     11.977958    2.346205   -0.342652
  H      9.492685    2.392356   -0.596362
  H      7.431659   -0.943571    1.223473
  H      3.040403   -1.565608    1.708940
  H      1.291450   -0.132432   -2.153321
  H     -1.166985   -0.092536   -2.224526
  H     -3.059596   -1.425539   -1.860297

 Multiplicity           Mult            ....    1
 Number of Electrons    NEL             ....  230
 Basis Dimension        Dim             ....  586

ORBITAL ENERGIES
----------------

  NO   OCC          E(Eh)            E(eV)
   0   2.0000     -14.399414      -391.8280
   1   2.0000     -14.399358      -391.8265
   2   2.0000     -14.399146      -391.8207
   3   2.0000     -14.399090      -391.8192
   4   2.0000     -10.285167      -279.8736
   5   2.0000     -10.285084      -279.8714
   6   2.0000     -10.282563      -279.8028
   7   2.0000     -10.282522      -279.8017
   8   2.0000     -10.281310      -279.7687
   9   2.0000     -10.281223      -279.7663
  10   2.0000     -10.272225      -279.5215
  11   2.0000     -10.272220      -279.5213
  12   2.0000     -10.268659      -279.4244
  13   2.0000     -10.268614      -279.4232
  14   2.0000     -10.267113      -279.3823
  15   2.0000     -10.267077      -279.3814
  16   2.0000     -10.266533      -279.3666
  17   2.0000     -10.266515      -279.3661
  18   2.0000     -10.258049      -279.1357
  19   2.0000     -10.257952      -279.1331
  20   2.0000     -10.257575      -279.1228
  21   2.0000     -10.257491      -279.1205
  22   2.0000     -10.255668      -279.0709
  23   2.0000     -10.255657      -279.0706
  24   2.0000     -10.243055      -278.7277
  25   2.0000     -10.242976      -278.7255
  26   2.0000     -10.241987      -278.6986
  27   2.0000     -10.241924      -278.6969
  28   2.0000     -10.241922      -278.6969
  29   2.0000     -10.241852      -278.6950
  30   2.0000     -10.240304      -278.6528
  31   2.0000     -10.240188      -278.6497
  32   2.0000     -10.238381      -278.6005
  33   2.0000     -10.238347      -278.5996
  34   2.0000      -0.985162       -26.8076
  35   2.0000      -0.985068       -26.8051
  36   2.0000      -0.961539       -26.1648
  37   2.0000      -0.961433       -26.1619
  38   2.0000      -0.905737       -24.6463
  39   2.0000      -0.871609       -23.7177
  40   2.0000      -0.871202       -23.7066
  41   2.0000      -0.858261       -23.3545
  42   2.0000      -0.833695       -22.6860
  43   2.0000      -0.815224       -22.1834
  44   2.0000      -0.806688       -21.9511
  45   2.0000      -0.782508       -21.2931
  46   2.0000      -0.779280       -21.2053
  47   2.0000      -0.766779       -20.8651
  48   2.0000      -0.765919       -20.8417
  49   2.0000      -0.760256       -20.6876
  50   2.0000      -0.748250       -20.3609
  51   2.0000      -0.704333       -19.1659
  52   2.0000      -0.679645       -18.4941
  53   2.0000      -0.672552       -18.3011
  54   2.0000      -0.660330       -17.9685
  55   2.0000      -0.647508       -17.6196
  56   2.0000      -0.634848       -17.2751
  57   2.0000      -0.629484       -17.1291
  58   2.0000      -0.622764       -16.9463
  59   2.0000      -0.620922       -16.8962
  60   2.0000      -0.610737       -16.6190
  61   2.0000      -0.587188       -15.9782
  62   2.0000      -0.586653       -15.9636
  63   2.0000      -0.563775       -15.3411
  64   2.0000      -0.553224       -15.0540
  65   2.0000      -0.549574       -14.9547
  66   2.0000      -0.536970       -14.6117
  67   2.0000      -0.521060       -14.1787
  68   2.0000      -0.517614       -14.0850
  69   2.0000      -0.507891       -13.8204
  70   2.0000      -0.500776       -13.6268
  71   2.0000      -0.492682       -13.4066
  72   2.0000      -0.486056       -13.2263
  73   2.0000      -0.480075       -13.0635
  74   2.0000      -0.475875       -12.9492
  75   2.0000      -0.475475       -12.9383
  76   2.0000      -0.465304       -12.6616
  77   2.0000      -0.464249       -12.6328
  78   2.0000      -0.457175       -12.4404
  79   2.0000      -0.452713       -12.3189
  80   2.0000      -0.452531       -12.3140
  81   2.0000      -0.449008       -12.2181
  82   2.0000      -0.443831       -12.0772
  83   2.0000      -0.438563       -11.9339
  84   2.0000      -0.437019       -11.8919
  85   2.0000      -0.435971       -11.8634
  86   2.0000      -0.428163       -11.6509
  87   2.0000      -0.423680       -11.5289
  88   2.0000      -0.421985       -11.4828
  89   2.0000      -0.409340       -11.1387
  90   2.0000      -0.404312       -11.0019
  91   2.0000      -0.395590       -10.7646
  92   2.0000      -0.392564       -10.6822
  93   2.0000      -0.382091       -10.3972
  94   2.0000      -0.376874       -10.2553
  95   2.0000      -0.376799       -10.2532
  96   2.0000      -0.370132       -10.0718
  97   2.0000      -0.367634       -10.0038
  98   2.0000      -0.365305        -9.9404
  99   2.0000      -0.357131        -9.7180
 100   2.0000      -0.353508        -9.6194
 101   2.0000      -0.329441        -8.9646
 102   2.0000      -0.315008        -8.5718
 103   2.0000      -0.306388        -8.3373
 104   2.0000      -0.303477        -8.2580
 105   2.0000      -0.295491        -8.0407
 106   2.0000      -0.286838        -7.8053
 107   2.0000      -0.281691        -7.6652
 108   2.0000      -0.278053        -7.5662
 109   2.0000      -0.276046        -7.5116
 110   2.0000      -0.270835        -7.3698
 111   2.0000      -0.270537        -7.3617
 112   2.0000      -0.256849        -6.9892
 113   2.0000      -0.241546        -6.5728
 114   2.0000      -0.234056        -6.3690
 115   0.0000      -0.085955        -2.3389
 116   0.0000      -0.069871        -1.9013
 117   0.0000      -0.033295        -0.9060
 118   0.0000      -0.031646        -0.8611
 119   0.0000      -0.027101        -0.7374

MULLIKEN ATOMIC CHARGES
-----------------------
   0 H :    0.018067
   1 C :    0.083601
   2 N :   -0.142503
   3 C :    0.047737
   4 C :   -0.026851
   5 C :   -0.026306
   6 C :   -0.009244
   7 C :   -0.028039
   8 C :    0.007402
   9 H :    0.011508
  10 H :    0.023785
  11 H :    0.023691
  12 H :    0.022576
  13 H :    0.016090
  14 C :   -0.042641
  15 N :   -0.152853
  16 C :    0.054036
  17 C :   -0.037368
  18 C :    0.027977
  19 C :    0.008983
  20 H :    0.036689
  21 H :    0.028501
  22 C :    0.032777
  23 C :   -0.025613
  24 C :   -0.026918
  25 C :    0.033247
  26 C :   -0.026062
  27 C :   -0.026886
  28 H :    0.019487
  29 H :    0.021815
  30 C :   -0.037489
  31 C :    0.053359
  32 N :   -0.152725
  33 C :   -0.042458
  34 C :    0.009453
  35 C :    0.027772
  36 H :    0.028518
  37 H :    0.036640
  38 C :    0.083182
  39 N :   -0.142702
  40 C :    0.047961
  41 C :    0.007587
  42 C :   -0.028182
  43 C :   -0.009057
  44 C :   -0.026431
  45 C :   -0.026856
  46 H :    0.016069
  47 H :    0.022659
  48 H :    0.023781
  49 H :    0.023813
  50 H :    0.011658
  51 H :    0.018018
  52 H :    0.033966
  53 H :    0.019378
  54 H :    0.021686
  55 H :    0.033717
Sum of atomic charges:   -0.0000000

LOEWDIN ATOMIC CHARGES
----------------------
   0 H :    0.016232
   1 C :    0.048038
   2 N :   -0.068123
   3 C :   -0.008041
   4 C :   -0.044317
   5 C :   -0.028101
   6 C :   -0.037954
   7 C :   -0.029212
   8 C :   -0.028604
   9 H :    0.036381
  10 H :    0.035408
  11 H :    0.034278
  12 H :    0.035274
  13 H :    0.034365
  14 C :   -0.021776
  15 N :   -0.073538
  16 C :    0.021814
  17 C :   -0.038572
  18 C :    0.002566
  19 C :   -0.010287
  20 H :    0.043969
  21 H :    0.039096
  22 C :   -0.025190
  23 C :   -0.017300
  24 C :   -0.018266
  25 C :   -0.025166
  26 C :   -0.017295
  27 C :   -0.018241
  28 H :    0.036527
  29 H :    0.037430
  30 C :   -0.038642
  31 C :    0.021685
  32 N :   -0.073490
  33 C :   -0.021703
  34 C :   -0.010285
  35 C :    0.002595
  36 H :    0.039091
  37 H :    0.043947
  38 C :    0.047796
  39 N :   -0.068284
  40 C :   -0.008137
  41 C :   -0.028314
  42 C :   -0.029287
  43 C :   -0.037744
  44 C :   -0.028098
  45 C :   -0.044155
  46 H :    0.034373
  47 H :    0.035284
  48 H :    0.034309
  49 H :    0.035416
  50 H :    0.036413
  51 H :    0.016167
  52 H :    0.027900
  53 H :    0.036500
  54 H :    0.037405
  55 H :    0.027865

  Mayer bond orders larger than 0.100000
B(  0-H ,  1-C ) :   0.9368 B(  1-C ,  2-N ) :   1.8860 B(  1-C , 14-C ) :   1.0314
B(  2-N ,  3-C ) :   1.1090 B(  3-C ,  4-C ) :   1.3391 B(  3-C ,  8-C ) :   1.3682
B(  4-C ,  5-C ) :   1.3906 B(  4-C , 13-H ) :   0.9849 B(  5-C ,  6-C ) :   1.3892
B(  5-C , 12-H ) :   0.9800 B(  6-C ,  7-C ) :   1.3797 B(  6-C , 11-H ) :   0.9875
B(  7-C ,  8-C ) :   1.3910 B(  7-C , 10-H ) :   0.9823 B(  8-C ,  9-H ) :   0.9883
B( 14-C , 15-N ) :   1.4830 B( 14-C , 19-C ) :   1.3553 B( 15-N , 16-C ) :   1.5431
B( 16-C , 17-C ) :   1.3424 B( 16-C , 55-H ) :   0.9744 B( 17-C , 18-C ) :   1.3761
B( 17-C , 22-C ) :   1.0066 B( 18-C , 19-C ) :   1.4210 B( 18-C , 21-H ) :   0.9795
B( 19-C , 20-H ) :   0.9623 B( 22-C , 23-C ) :   1.3648 B( 22-C , 27-C ) :   1.3642
B( 23-C , 24-C ) :   1.4052 B( 23-C , 54-H ) :   0.9827 B( 24-C , 25-C ) :   1.3641
B( 24-C , 53-H ) :   0.9833 B( 25-C , 26-C ) :   1.3644 B( 25-C , 30-C ) :   1.0068
B( 26-C , 27-C ) :   1.4055 B( 26-C , 29-H ) :   0.9827 B( 27-C , 28-H ) :   0.9832
B( 30-C , 31-C ) :   1.3420 B( 30-C , 35-C ) :   1.3763 B( 31-C , 32-N ) :   1.5432
B( 31-C , 52-H ) :   0.9745 B( 32-N , 33-C ) :   1.4830 B( 33-C , 34-C ) :   1.3550
B( 33-C , 38-C ) :   1.0317 B( 34-C , 35-C ) :   1.4210 B( 34-C , 37-H ) :   0.9624
B( 35-C , 36-H ) :   0.9796 B( 38-C , 39-N ) :   1.8853 B( 38-C , 51-H ) :   0.9368
B( 39-N , 40-C ) :   1.1097 B( 40-C , 41-C ) :   1.3680 B( 40-C , 45-C ) :   1.3382
B( 41-C , 42-C ) :   1.3905 B( 41-C , 50-H ) :   0.9885 B( 42-C , 43-C ) :   1.3799
B( 42-C , 49-H ) :   0.9826 B( 43-C , 44-C ) :   1.3884 B( 43-C , 48-H ) :   0.9875
B( 44-C , 45-C ) :   1.3909 B( 44-C , 47-H ) :   0.9803 B( 45-C , 46-H ) :   0.9853

Dispersion correction           -0.067559772
FINAL SINGLE POINT ENERGY     -1372.925926188376

DIPOLE MOMENT
-------------
                                X             Y             Z
Electronic contribution:      0.00169      -0.98785      -0.16272
Nuclear contribution   :      0.00626       1.20467       0.17144
                        -----------------------------------------
Total Dipole Moment    :      0.00794       0.21683       0.00872
                        -----------------------------------------
Magnitude (a.u.)       :      0.21715
Magnitude (Debye)      :      0.55194

Rotational constants in cm-1:     0.035131     0.000699     0.000698
Rotational constants in MHz :  1053.196442    20.960518    20.929379

                             ****ORCA TERMINATED NORMALLY****
TOTAL RUN TIME: 0 days 0 hours 7 minutes 4 seconds 611 msec
