 Gaussian 16, Revision C.01,
 Gaussian 16:  ES64L-G16RevC.01  3-Jul-2019

 ----------------------------------------------------------------------
 #P PBE1PBE/Def2SVP SP SCF=(YQC,MaxCycle=900) int=(Grid=Superfinegrid)
 EmpiricalDispersion=GD3BJ SCRF=(PCM,Solvent=DiMethylSulfoxide)
 ----------------------------------------------------------------------

 --------
 _s_4b3_b
 --------
 Symbolic Z-matrix:
 Charge =  4 Multiplicity = 1

                         Standard orientation:
 ---------------------------------------------------------------------
 Center     Atomic      Atomic             Coordinates (Angstroms)
 Number     Number       Type             X           Y           Z
 ---------------------------------------------------------------------
      1         46           0       -6.366213    0.196872    1.090051
      2         46           0        7.414415   -0.127125   -0.954205
      3          6           0        4.725284    0.544662    4.340033
      4          6           0        5.935338    0.556236    4.344986
      5          6           0        7.341725    0.573244    4.388491
      6          6           0        8.001353    0.740821    5.592662
      7          6           0        9.398969    0.753249    5.652210
      8          6           0       10.158630    0.600523    4.518754
      9          6           0        9.532303    0.431506    3.270351
     10          6           0       10.252232    0.272724    2.063824
     11          6           0        9.580649    0.118159    0.885159
     12          7           0        8.225817    0.113620    0.829322
     13          6           0        7.519064    0.256248    1.932062
     14          6           0        8.109260    0.417902    3.194454
     15          1           0        7.428240    0.860488    6.499324
     16          1           0        9.880234    0.884581    6.609308
     17          1           0       11.235996    0.609302    4.571243
     18          1           0       11.330267    0.276186    2.087242
     19          1           0       10.099419   -0.007577   -0.064950
     20          1           0        6.434997    0.248729    1.837735
     21          6           0        3.317091    0.541717    4.315815
     22          6           0        2.630880    0.053183    3.197638
     23          6           0        1.254698    0.067926    3.166236
     24          6           0        0.532856    0.572250    4.254412
     25          6           0        1.216771    1.048989    5.378634
     26          6           0        2.594270    1.033900    5.408838
     27          1           0        3.191797   -0.340033    2.364467
     28          1           0        0.722056   -0.309086    2.306982
     29          1           0        0.660352    1.432378    6.220413
     30          1           0        3.123848    1.404960    6.273230
     31          6           0       -0.874078    0.602037    4.213927
     32          6           0       -2.081494    0.625283    4.150087
     33          6           0       -3.488256    0.658833    4.111079
     34          6           0       -4.239816    0.904738    5.269669
     35          6           0       -5.619506    0.925172    5.183822
     36          6           0       -6.226017    0.706693    3.955468
     37          7           0       -5.508421    0.477300    2.854145
     38          6           0       -4.176936    0.448461    2.912806
     39          1           0       -3.738932    1.072391    6.210413
     40          1           0       -6.223537    1.108826    6.057572
     41          1           0       -7.306584    0.714387    3.846320
     42          1           0       -3.648452    0.252867    1.978876
     43          6           0       -2.426059   -4.726899    0.655881
     44          6           0       -3.617412   -4.835402    0.838001
     45          6           0       -4.967070   -5.112980    1.128061
     46          6           0       -5.366594   -6.434130    1.234632
     47          6           0       -6.673008   -6.767611    1.603151
     48          6           0       -7.594824   -5.790558    1.886265
     49          6           0       -7.237290   -4.435409    1.774194
     50          6           0       -8.138946   -3.384974    2.058887
     51          6           0       -7.743582   -2.090622    1.897491
     52          7           0       -6.505658   -1.763172    1.441019
     53          6           0       -5.626029   -2.713271    1.196791
     54          6           0       -5.918986   -4.077715    1.365921
     55          1           0       -4.650016   -7.218521    1.044682
     56          1           0       -6.947502   -7.808566    1.678792
     57          1           0       -8.596054   -6.047373    2.194290
     58          1           0       -9.134243   -3.619686    2.400967
     59          1           0       -8.410875   -1.259131    2.130827
     60          1           0       -4.647339   -2.404302    0.842312
     61          6           0       -1.032687   -4.610484    0.479848
     62          6           0       -0.303763   -3.671894    1.218844
     63          6           0        1.062915   -3.588235    1.071263
     64          6           0        1.727935   -4.437428    0.178534
     65          6           0        1.000594   -5.381971   -0.553539
     66          6           0       -0.366662   -5.467550   -0.403618
     67          1           0       -0.819464   -3.030760    1.916515
     68          1           0        1.631430   -2.877480    1.650672
     69          1           0        1.514820   -6.040166   -1.237209
     70          1           0       -0.930871   -6.195799   -0.966081
     71          6           0        3.117764   -4.302522   -0.005544
     72          6           0        4.303687   -4.145823   -0.184163
     73          6           0        5.648401   -3.828950   -0.457503
     74          6           0        6.593129   -4.771845   -0.886361
     75          6           0        7.870155   -4.342740   -1.201115
     76          6           0        8.179738   -2.991476   -1.119352
     77          7           0        7.280266   -2.097969   -0.705981
     78          6           0        6.056408   -2.496952   -0.358354
     79          1           0        6.318745   -5.811768   -0.971561
     80          1           0        8.620081   -5.045143   -1.527323
     81          1           0        9.159296   -2.609500   -1.385684
     82          1           0        5.367948   -1.731433    0.004670
     83          6           0       -3.460285   -0.741105   -4.121743
     84          6           0       -4.670403   -0.729076   -4.110875
     85          6           0       -6.073802   -0.735347   -4.203109
     86          6           0       -6.669582   -0.950878   -5.433887
     87          6           0       -8.060822   -0.968775   -5.571015
     88          6           0       -8.878516   -0.772325   -4.486166
     89          6           0       -8.317967   -0.546922   -3.215837
     90          6           0       -9.104465   -0.336732   -2.061731
     91          6           0       -8.500059   -0.121405   -0.857861
     92          7           0       -7.152399   -0.098005   -0.720574
     93          6           0       -6.382478   -0.291129   -1.775284
     94          6           0       -6.901122   -0.524387   -3.058761
     95          1           0       -6.047131   -1.109717   -6.301147
     96          1           0       -8.489494   -1.140589   -6.546426
     97          1           0       -9.951733   -0.787280   -4.592614
     98          1           0      -10.179517   -0.348365   -2.142940
     99          1           0       -9.081454    0.041344    0.044750
    100          1           0       -5.305921   -0.261103   -1.615649
    101          6           0       -2.053027   -0.745953   -4.154062
    102          6           0       -1.395100   -0.757331   -5.390845
    103          6           0       -0.018723   -0.752315   -5.445083
    104          6           0        0.727789   -0.735224   -4.261752
    105          6           0        0.070310   -0.732566   -3.025001
    106          6           0       -1.305166   -0.738051   -2.971007
    107          1           0       -1.974966   -0.767095   -6.301344
    108          1           0        0.487840   -0.758180   -6.398337
    109          1           0        0.654109   -0.727020   -2.118942
    110          1           0       -1.814725   -0.740263   -2.020752
    111          6           0        2.134319   -0.712189   -4.294725
    112          6           0        3.343369   -0.681989   -4.292840
    113          6           0        4.746112   -0.634509   -4.198486
    114          6           0        5.595636   -0.780417   -5.303554
    115          6           0        6.964540   -0.722785   -5.108209
    116          6           0        7.465081   -0.524124   -3.830178
    117          7           0        6.651239   -0.383430   -2.779345
    118          6           0        5.332220   -0.433820   -2.945957
    119          1           0        5.180819   -0.935936   -6.287273
    120          1           0        7.642693   -0.832011   -5.939103
    121          1           0        8.532071   -0.473854   -3.627857
    122          1           0        4.712216   -0.310613   -2.060924
    123          6           0       -2.370262    4.808736   -0.699967
    124          6           0       -3.560427    4.960432   -0.539610
    125          6           0       -4.905808    5.313774   -0.329056
    126          6           0       -5.286916    6.626117   -0.557063
    127          6           0       -6.590135    7.058527   -0.299399
    128          6           0       -7.529409    6.194027    0.205880
    129          6           0       -7.190303    4.850462    0.442419
    130          6           0       -8.110760    3.919173    0.974205
    131          6           0       -7.731858    2.623458    1.160215
    132          7           0       -6.492840    2.174806    0.825109
    133          6           0       -5.598912    3.019044    0.350686
    134          6           0       -5.874408    4.383466    0.153734
    135          1           0       -4.557353    7.328532   -0.929880
    136          1           0       -6.849357    8.088756   -0.489333
    137          1           0       -8.529920    6.531375    0.426155
    138          1           0       -9.106254    4.245598    1.229435
    139          1           0       -8.415828    1.889354    1.590327
    140          1           0       -4.621071    2.618369    0.102920
    141          6           0       -0.980472    4.645302   -0.853961
    142          6           0       -0.333335    3.508124   -0.357304
    143          6           0        1.030667    3.381103   -0.485336
    144          6           0        1.779038    4.384271   -1.115005
    145          6           0        1.133453    5.520740   -1.613181
    146          6           0       -0.232453    5.649205   -1.482694
    147          1           0       -0.910741    2.742007    0.134046
    148          1           0        1.538277    2.512131   -0.099602
    149          1           0        1.708396    6.295429   -2.097585
    150          1           0       -0.733404    6.526291   -1.863662
    151          6           0        3.169017    4.207870   -1.247414
    152          6           0        4.354607    3.991480   -1.351698
    153          6           0        5.697988    3.598466   -1.498316
    154          6           0        6.675979    4.390046   -2.116967
    155          6           0        7.950157    3.875033   -2.276011
    156          6           0        8.226233    2.582683   -1.849467
    157          7           0        7.296589    1.836046   -1.251990
    158          6           0        6.072942    2.327051   -1.055576
    159          1           0        6.428637    5.380251   -2.466760
    160          1           0        8.724296    4.461245   -2.744184
    161          1           0        9.203516    2.131170   -1.982274
    162          1           0        5.357495    1.691189   -0.530618
 ---------------------------------------------------------------------

 SCF Done:  E(RPBE1PBE) =  -4377.38035200     a.u. after   20 cycles
 SCF Done:  E(RPBE1PBE) =  -4377.38046221     A.U. after    9 cycles

 The electronic state is 1-A.
 Alpha  occ. eigenvalues --  -14.49154 -14.49126 -14.49094 -14.49083 -14.48667
 Alpha  occ. eigenvalues --  -14.48577 -14.48543 -14.48521 -10.32717 -10.32667
 Alpha  occ. eigenvalues --  -10.32628 -10.32604 -10.32524 -10.32497 -10.32441
 Alpha  occ. eigenvalues --  -10.32435 -10.32152 -10.32117 -10.32089 -10.32081
 Alpha  occ. eigenvalues --  -10.31071 -10.31063 -10.31055 -10.31051 -10.30989
 Alpha  occ. eigenvalues --  -10.30964 -10.30932 -10.30922 -10.29894 -10.29891
 Alpha  occ. eigenvalues --  -10.29885 -10.29877 -10.29522 -10.29502 -10.29471
 Alpha  occ. eigenvalues --  -10.29418 -10.29238 -10.29238 -10.29198 -10.29195
 Alpha  occ. eigenvalues --  -10.29161 -10.29148 -10.29146 -10.29129 -10.28777
 Alpha  occ. eigenvalues --  -10.28762 -10.28737 -10.28729 -10.28718 -10.28712
 Alpha  occ. eigenvalues --  -10.28707 -10.28694 -10.28396 -10.28379 -10.28356
 Alpha  occ. eigenvalues --  -10.28305 -10.27886 -10.27859 -10.27852 -10.27839
 Alpha  occ. eigenvalues --  -10.27363 -10.27342 -10.27331 -10.27319 -10.27130
 Alpha  occ. eigenvalues --  -10.27116 -10.27116 -10.27097 -10.27065 -10.27054
 Alpha  occ. eigenvalues --  -10.27039 -10.27038 -10.26929 -10.26917 -10.26915
 Alpha  occ. eigenvalues --  -10.26902 -10.26788 -10.26707 -10.26702 -10.26697
 Alpha  occ. eigenvalues --  -10.26665 -10.26660 -10.26658 -10.26644 -10.26639
 Alpha  occ. eigenvalues --  -10.26631 -10.26628 -10.26624 -10.26622 -10.26620
 Alpha  occ. eigenvalues --  -10.26619 -10.26614 -10.26613 -10.26612 -10.26608
 Alpha  occ. eigenvalues --  -10.26583 -10.26583 -10.26547 -10.26541 -10.26539
 Alpha  occ. eigenvalues --  -10.26358 -10.26316 -10.26305 -10.26294  -3.57726
 Alpha  occ. eigenvalues --   -3.57466  -2.25660  -2.25602  -2.25389  -2.25306
 Alpha  occ. eigenvalues --   -2.21457  -2.21210  -1.04624  -1.04183  -1.03915
 Alpha  occ. eigenvalues --   -1.03823  -1.03493  -1.03369  -1.03121  -1.03072
 Alpha  occ. eigenvalues --   -0.92826  -0.92788  -0.92749  -0.92739  -0.92136
 Alpha  occ. eigenvalues --   -0.92091  -0.92084  -0.92070  -0.88988  -0.88808
 Alpha  occ. eigenvalues --   -0.88805  -0.88757  -0.86259  -0.86226  -0.86203
 Alpha  occ. eigenvalues --   -0.86198  -0.85117  -0.85008  -0.84997  -0.84976
 Alpha  occ. eigenvalues --   -0.84273  -0.84149  -0.84132  -0.84069  -0.83159
 Alpha  occ. eigenvalues --   -0.83078  -0.82996  -0.82987  -0.81488  -0.81411
 Alpha  occ. eigenvalues --   -0.81371  -0.81286  -0.79746  -0.79687  -0.79665
 Alpha  occ. eigenvalues --   -0.79660  -0.78961  -0.78943  -0.78888  -0.78832
 Alpha  occ. eigenvalues --   -0.76227  -0.76220  -0.76160  -0.76118  -0.72099
 Alpha  occ. eigenvalues --   -0.71964  -0.71941  -0.71796  -0.71478  -0.71265
 Alpha  occ. eigenvalues --   -0.71226  -0.71040  -0.69815  -0.69585  -0.69537
 Alpha  occ. eigenvalues --   -0.69498  -0.69459  -0.69257  -0.69219  -0.69211
 Alpha  occ. eigenvalues --   -0.68337  -0.68264  -0.68199  -0.68173  -0.66199
 Alpha  occ. eigenvalues --   -0.66164  -0.66128  -0.66114  -0.65588  -0.65545
 Alpha  occ. eigenvalues --   -0.65541  -0.65521  -0.62225  -0.61625  -0.61441
 Alpha  occ. eigenvalues --   -0.61001  -0.60322  -0.60124  -0.60042  -0.59997
 Alpha  occ. eigenvalues --   -0.58603  -0.58558  -0.58453  -0.58398  -0.58312
 Alpha  occ. eigenvalues --   -0.58079  -0.58074  -0.57910  -0.57325  -0.57104
 Alpha  occ. eigenvalues --   -0.56777  -0.56765  -0.56672  -0.56589  -0.56451
 Alpha  occ. eigenvalues --   -0.56183  -0.55901  -0.55821  -0.55800  -0.55702
 Alpha  occ. eigenvalues --   -0.54380  -0.54186  -0.54167  -0.54028  -0.52747
 Alpha  occ. eigenvalues --   -0.52583  -0.52421  -0.52373  -0.52107  -0.51566
 Alpha  occ. eigenvalues --   -0.51535  -0.51497  -0.51482  -0.51459  -0.51397
 Alpha  occ. eigenvalues --   -0.51145  -0.51064  -0.50991  -0.50516  -0.50146
 Alpha  occ. eigenvalues --   -0.50060  -0.50011  -0.49891  -0.49522  -0.49478
 Alpha  occ. eigenvalues --   -0.49461  -0.49390  -0.49139  -0.49119  -0.48998
 Alpha  occ. eigenvalues --   -0.48461  -0.48417  -0.48334  -0.48320  -0.48134
 Alpha  occ. eigenvalues --   -0.47820  -0.47771  -0.47620  -0.47576  -0.47569
 Alpha  occ. eigenvalues --   -0.47543  -0.47256  -0.47072  -0.47016  -0.46679
 Alpha  occ. eigenvalues --   -0.46499  -0.46447  -0.46305  -0.45939  -0.44872
 Alpha  occ. eigenvalues --   -0.44765  -0.44451  -0.44231  -0.43916  -0.43864
 Alpha  occ. eigenvalues --   -0.43820  -0.43800  -0.43717  -0.43641  -0.43613
 Alpha  occ. eigenvalues --   -0.43579  -0.43489  -0.43350  -0.43233  -0.42927
 Alpha  occ. eigenvalues --   -0.42418  -0.42129  -0.42107  -0.41826  -0.41813
 Alpha  occ. eigenvalues --   -0.41748  -0.41712  -0.41666  -0.40872  -0.40778
 Alpha  occ. eigenvalues --   -0.40698  -0.40161  -0.39871  -0.39720  -0.39593
 Alpha  occ. eigenvalues --   -0.39585  -0.39531  -0.39424  -0.39318  -0.39283
 Alpha  occ. eigenvalues --   -0.39269  -0.39210  -0.39120  -0.38653  -0.37904
 Alpha  occ. eigenvalues --   -0.37801  -0.37249  -0.37181  -0.37004  -0.36993
 Alpha  occ. eigenvalues --   -0.36688  -0.36481  -0.35778  -0.35481  -0.35113
 Alpha  occ. eigenvalues --   -0.34950  -0.34657  -0.34569  -0.34210  -0.34179
 Alpha  occ. eigenvalues --   -0.33985  -0.33585  -0.33519  -0.33320  -0.32949
 Alpha  occ. eigenvalues --   -0.32145  -0.31894  -0.31831  -0.31805  -0.31737
 Alpha  occ. eigenvalues --   -0.31584  -0.31547  -0.31427  -0.31330  -0.31321
 Alpha  occ. eigenvalues --   -0.31191  -0.31045  -0.30931  -0.30804  -0.30665
 Alpha  occ. eigenvalues --   -0.30228  -0.30013  -0.29981  -0.29920  -0.29858
 Alpha  occ. eigenvalues --   -0.29197  -0.28992  -0.27939  -0.27708  -0.27650
 Alpha  occ. eigenvalues --   -0.27324  -0.24732  -0.24461  -0.24386  -0.24274
 Alpha virt. eigenvalues --   -0.11097  -0.10880  -0.10823  -0.10451  -0.09272
 Alpha virt. eigenvalues --   -0.09107  -0.08685  -0.08402  -0.08085  -0.07909
 Alpha virt. eigenvalues --   -0.07246  -0.06950  -0.06602  -0.06446  -0.06256

 Mulliken charges:
               1
     1  Pd   0.503444
     2  Pd   0.495180
     3  C    0.014400
     4  C   -0.062304
     5  C   -0.008146
     6  C    0.005948
     7  C    0.014824
     8  C    0.007394
     9  C    0.032421
    10  C   -0.015091
    11  C    0.144446
    12  N   -0.315640
    13  C    0.184921
    14  C   -0.016989
    15  H    0.042637
    16  H    0.056428
    17  H    0.041992
    18  H    0.054127
    19  H    0.107905
    20  H    0.080884
    21  C   -0.069680
    22  C    0.008266
    23  C    0.014287
    24  C   -0.074516
    25  C    0.019162
    26  C    0.015605
    27  H    0.040798
    28  H    0.036505
    29  H    0.040561
    30  H    0.040421
    31  C    0.009314
    32  C   -0.003437
    33  C   -0.119695
    34  C    0.108286
    35  C   -0.035751
    36  C    0.157148
    37  N   -0.310130
    38  C    0.187778
    39  H    0.064692
    40  H    0.072255
    41  H    0.103806
    42  H    0.099483
    43  C    0.027804
    44  C   -0.073881
    45  C   -0.017026
    46  C    0.008236
    47  C    0.014893
    48  C    0.007798
    49  C    0.028816
    50  C   -0.011428
    51  C    0.133447
    52  N   -0.322867
    53  C    0.181317
    54  C   -0.008731
    55  H    0.042636
    56  H    0.056334
    57  H    0.042086
    58  H    0.054106
    59  H    0.106873
    60  H    0.078803
    61  C   -0.077035
    62  C    0.017190
    63  C    0.013710
    64  C   -0.076339
    65  C    0.019566
    66  C    0.016561
    67  H    0.036089
    68  H    0.032678
    69  H    0.040075
    70  H    0.040131
    71  C    0.021844
    72  C   -0.010971
    73  C   -0.117362
    74  C    0.115472
    75  C   -0.038345
    76  C    0.159178
    77  N   -0.313624
    78  C    0.166507
    79  H    0.064741
    80  H    0.073202
    81  H    0.104654
    82  H    0.102059
    83  C    0.020163
    84  C   -0.068317
    85  C   -0.011749
    86  C    0.004420
    87  C    0.015807
    88  C    0.007692
    89  C    0.029907
    90  C   -0.017676
    91  C    0.146724
    92  N   -0.318259
    93  C    0.179345
    94  C   -0.004902
    95  H    0.042503
    96  H    0.056209
    97  H    0.041938
    98  H    0.053677
    99  H    0.084249
   100  H    0.090581
   101  C   -0.071090
   102  C    0.013178
   103  C    0.020825
   104  C   -0.077628
   105  C    0.017624
   106  C    0.013651
   107  H    0.040511
   108  H    0.040241
   109  H    0.033916
   110  H    0.036756
   111  C    0.012601
   112  C   -0.000612
   113  C   -0.119725
   114  C    0.112187
   115  C   -0.032562
   116  C    0.153701
   117  N   -0.316077
   118  C    0.181671
   119  H    0.064545
   120  H    0.072247
   121  H    0.117432
   122  H    0.081366
   123  C    0.027799
   124  C   -0.075930
   125  C   -0.013777
   126  C    0.004869
   127  C    0.015755
   128  C    0.007125
   129  C    0.028841
   130  C   -0.010984
   131  C    0.131786
   132  N   -0.323265
   133  C    0.182065
   134  C   -0.008832
   135  H    0.042548
   136  H    0.056081
   137  H    0.042084
   138  H    0.053898
   139  H    0.106315
   140  H    0.079974
   141  C   -0.071763
   142  C    0.016737
   143  C    0.015470
   144  C   -0.075941
   145  C    0.021181
   146  C    0.013115
   147  H    0.034649
   148  H    0.033722
   149  H    0.040057
   150  H    0.040513
   151  C    0.019807
   152  C   -0.011194
   153  C   -0.115439
   154  C    0.114257
   155  C   -0.038822
   156  C    0.158594
   157  N   -0.313395
   158  C    0.167510
   159  H    0.064420
   160  H    0.073013
   161  H    0.104153
   162  H    0.102792
 Sum of Mulliken charges =   4.00000

 Dipole moment (field-independent basis, Debye):
    X=              6.2885    Y=              0.1447    Z=             -1.0487  Tot=              6.3770
 Quadrupole moment (field-independent basis, Debye-Ang):
   XX=            456.9045   YY=           -425.0438   ZZ=           -409.1845
   XY=            -13.2158   XZ=            -90.4534   YZ=             10.0286

 Normal termination of Gaussian 16 at Fri Feb 26 12:06:57 2021.
