 Gaussian 16, Revision C.01,
 Gaussian 16:  ES64L-G16RevC.01  3-Jul-2019

 ----------------------------------------------------------------------
 #P PBE1PBE/Def2SVP SP SCF=(YQC,MaxCycle=900) int=(Grid=Superfinegrid)
 EmpiricalDispersion=GD3BJ SCRF=(PCM,Solvent=DiMethylSulfoxide)
 ----------------------------------------------------------------------

 --------
 _s_5a3_c
 --------
 Symbolic Z-matrix:
 Charge =  4 Multiplicity = 1

                         Standard orientation:
 ---------------------------------------------------------------------
 Center     Atomic      Atomic             Coordinates (Angstroms)
 Number     Number       Type             X           Y           Z
 ---------------------------------------------------------------------
      1         46           0       -6.588252    1.134047   -0.026468
      2         46           0        6.584068   -1.162399   -0.016604
      3          6           0        3.965439    4.459453   -4.810495
      4          6           0        5.037234    3.994596   -4.497393
      5          6           0        6.281528    3.462509   -4.109732
      6          6           0        7.462684    3.998588   -4.593153
      7          6           0        8.703687    3.488638   -4.195069
      8          6           0        8.786778    2.445809   -3.308810
      9          6           0        7.605840    1.868028   -2.795587
     10          6           0        7.624567    0.801287   -1.877646
     11          7           0        6.525983    0.254221   -1.401628
     12          6           0        5.311824    0.709583   -1.797518
     13          6           0        5.183496    1.747901   -2.676079
     14          6           0        6.335309    2.368599   -3.200202
     15          1           0        7.423097    4.825451   -5.286088
     16          1           0        9.602514    3.932957   -4.594264
     17          1           0        9.745675    2.060908   -3.000220
     18          1           0        8.573231    0.395946   -1.532026
     19          1           0        4.450294    0.196746   -1.374444
     20          1           0        4.212684    2.104389   -2.980653
     21          6           0        2.716525    5.004371   -5.170395
     22          6           0        2.655880    6.020247   -6.155823
     23          6           0        1.454804    6.561027   -6.511891
     24          6           0        0.253584    6.125118   -5.911393
     25          6           0       -1.001079    6.668564   -6.263609
     26          6           0       -2.149221    6.229092   -5.671847
     27          6           0       -2.096834    5.213842   -4.685178
     28          6           0       -0.884545    4.666775   -4.318651
     29          6           0        0.309774    5.105753   -4.920621
     30          6           0        1.558272    4.559902   -4.567448
     31          1           0        3.571277    6.357705   -6.618741
     32          1           0        1.407549    7.335801   -7.263712
     33          1           0       -1.036892    7.443211   -7.016205
     34          1           0       -3.105541    6.647767   -5.946825
     35          1           0       -0.843594    3.893136   -3.567301
     36          1           0        1.600164    3.788194   -3.814078
     37          6           0       -3.292334    4.764457   -4.091330
     38          6           0       -4.317509    4.369983   -3.585650
     39          6           0       -5.522634    3.908668   -3.025328
     40          6           0       -6.763949    4.355863   -3.500852
     41          6           0       -7.921610    3.857680   -2.931264
     42          6           0       -7.826557    2.928251   -1.906791
     43          7           0       -6.642531    2.509652   -1.451081
     44          6           0       -5.515701    2.977610   -1.982217
     45          1           0       -6.803770    5.076418   -4.302726
     46          1           0       -8.889076    4.182659   -3.278411
     47          1           0       -8.711127    2.504648   -1.435930
     48          1           0       -4.580410    2.605137   -1.568965
     49          6           0        3.954051    4.420424    4.815729
     50          6           0        5.026818    3.955772    4.505616
     51          6           0        6.271828    3.423173    4.121022
     52          6           0        7.451521    3.946975    4.621218
     53          6           0        8.693351    3.436142    4.226495
     54          6           0        8.778614    2.404674    3.327392
     55          6           0        7.599185    1.839566    2.796925
     56          6           0        7.620217    0.784046    1.865996
     57          7           0        6.522940    0.248509    1.374360
     58          6           0        5.307809    0.705501    1.765327
     59          6           0        5.177294    1.733361    2.655872
     60          6           0        6.327867    2.341155    3.197525
     61          1           0        7.410323    4.764759    5.324675
     62          1           0        9.590960    3.870719    4.638884
     63          1           0        9.738170    2.019004    3.021585
     64          1           0        8.569703    0.377961    1.523264
     65          1           0        4.447190    0.203013    1.328230
     66          1           0        4.205840    2.091190    2.956493
     67          6           0        2.704412    4.965977    5.172221
     68          6           0        2.639954    5.970370    6.169063
     69          6           0        1.438344    6.512206    6.521400
     70          6           0        0.240277    6.089035    5.905574
     71          6           0       -1.014800    6.634568    6.253088
     72          6           0       -2.159734    6.207568    5.646361
     73          6           0       -2.103792    5.203108    4.648835
     74          6           0       -0.890958    4.654161    4.286799
     75          6           0        0.300188    5.080771    4.903677
     76          6           0        1.549238    4.533459    4.554652
     77          1           0        3.552906    6.298184    6.643502
     78          1           0        1.388027    7.278417    7.281849
     79          1           0       -1.053453    7.400726    7.014170
     80          1           0       -3.116446    6.627955    5.917566
     81          1           0       -0.847180    3.888947    3.527031
     82          1           0        1.594098    3.770364    3.792770
     83          6           0       -3.296458    4.766364    4.040212
     84          6           0       -4.319961    4.382920    3.522845
     85          6           0       -5.523734    3.932435    2.950852
     86          6           0       -6.765212    4.396051    3.409829
     87          6           0       -7.921957    3.906311    2.831198
     88          6           0       -7.825959    2.968167    1.814816
     89          7           0       -6.641538    2.534078    1.374621
     90          6           0       -5.515567    2.994542    1.913913
     91          1           0       -6.806004    5.122336    4.206497
     92          1           0       -8.889535    4.244059    3.165426
     93          1           0       -8.709802    2.550174    1.337761
     94          1           0       -4.579916    2.609892    1.512953
     95          6           0       -3.953059   -4.366082    4.897758
     96          6           0       -5.026479   -3.910397    4.577077
     97          6           0       -6.272247   -3.388191    4.180759
     98          6           0       -7.451429   -3.905237    4.688955
     99          6           0       -8.693814   -3.404749    4.283099
    100          6           0       -8.780182   -2.390067    3.365114
    101          6           0       -7.601296   -1.832135    2.825907
    102          6           0       -7.623279   -0.792986    1.876833
    103          7           0       -6.526514   -0.263800    1.377147
    104          6           0       -5.310976   -0.712013    1.776814
    105          6           0       -5.179515   -1.723754    2.685389
    106          6           0       -6.329385   -2.323710    3.237127
    107          1           0       -7.409425   -4.709669    5.407581
    108          1           0       -9.591141   -3.833549    4.702263
    109          1           0       -9.740136   -2.012246    3.051031
    110          1           0       -8.573218   -0.394783    1.526155
    111          1           0       -4.450881   -0.216242    1.331202
    112          1           0       -4.207625   -2.074453    2.993222
    113          6           0       -2.702163   -4.901136    5.265739
    114          6           0       -2.634366   -5.879233    6.288120
    115          6           0       -1.431478   -6.410918    6.651344
    116          6           0       -0.235350   -6.003033    6.021770
    117          6           0        1.020986   -6.538934    6.379712
    118          6           0        2.163967   -6.127338    5.758721
    119          6           0        2.104657   -5.148834    4.735860
    120          6           0        0.890598   -4.609749    4.363361
    121          6           0       -0.298595   -5.021011    4.994291
    122          6           0       -1.548886   -4.483710    4.634414
    123          1           0       -3.545971   -6.195448    6.773253
    124          1           0       -1.378686   -7.157041    7.431399
    125          1           0        1.062088   -7.285122    7.160208
    126          1           0        3.121646   -6.540344    6.037955
    127          1           0        0.844378   -3.864482    3.584317
    128          1           0       -1.596259   -3.740863    3.853038
    129          6           0        3.295487   -4.727421    4.112924
    130          6           0        4.317353   -4.356633    3.583237
    131          6           0        5.520183   -3.919974    2.998685
    132          6           0        6.761795   -4.380600    3.460207
    133          6           0        7.917937   -3.903579    2.870058
    134          6           0        7.821297   -2.980379    1.840173
    135          7           0        6.636720   -2.549493    1.397216
    136          6           0        5.511239   -2.998444    1.947109
    137          1           0        6.803157   -5.094669    4.267827
    138          1           0        8.885687   -4.239274    3.205957
    139          1           0        8.704936   -2.572054    1.354351
    140          1           0        4.575376   -2.617476    1.543096
    141          6           0       -3.962383   -4.481984   -4.824372
    142          6           0       -5.035046   -4.021508   -4.507739
    143          6           0       -6.280164   -3.494048   -4.116540
    144          6           0       -7.460569   -4.031764   -4.599807
    145          6           0       -8.702384   -3.525978   -4.198773
    146          6           0       -8.786855   -2.485345   -3.310030
    147          6           0       -7.606632   -1.905946   -2.796951
    148          6           0       -7.626678   -0.840379   -1.877453
    149          7           0       -6.528926   -0.291536   -1.401980
    150          6           0       -5.314168   -0.744177   -1.798981
    151          6           0       -5.184442   -1.780729   -2.679560
    152          6           0       -6.335348   -2.402574   -3.204067
    153          1           0       -7.419922   -4.856697   -5.294993
    154          1           0       -9.600669   -3.971520   -4.597815
    155          1           0       -9.746231   -2.103504   -2.999365
    156          1           0       -8.576068   -0.437577   -1.530474
    157          1           0       -4.453286   -0.230736   -1.375576
    158          1           0       -4.213177   -2.134763   -2.985461
    159          6           0       -2.712121   -5.021459   -5.187912
    160          6           0       -2.648100   -6.025505   -6.185201
    161          6           0       -1.445660   -6.560798   -6.544557
    162          6           0       -0.246250   -6.131067   -5.935904
    163          6           0        1.009783   -6.669478   -6.290985
    164          6           0        2.155883   -6.236262   -5.690831
    165          6           0        2.100177   -5.232592   -4.692605
    166          6           0        0.886429   -4.690577   -4.323232
    167          6           0       -0.305881   -5.123392   -4.933395
    168          6           0       -1.555701   -4.582821   -4.576981
    169          1           0       -3.562032   -6.358232   -6.654314
    170          1           0       -1.395668   -7.326620   -7.305529
    171          1           0        1.048226   -7.435195   -7.052526
    172          1           0        3.113283   -6.651209   -5.967897
    173          1           0        0.842846   -3.925868   -3.562928
    174          1           0       -1.600270   -3.820265   -3.814704
    175          6           0        3.293654   -4.789384   -4.090285
    176          6           0        4.317112   -4.399649   -3.577558
    177          6           0        5.521118   -3.942997   -3.010909
    178          6           0        6.762921   -4.393535   -3.481558
    179          6           0        7.919754   -3.898755   -2.907394
    180          6           0        7.823255   -2.968921   -1.883425
    181          7           0        6.638555   -2.547236   -1.432042
    182          6           0        5.512566   -3.012426   -1.967249
    183          1           0        6.803985   -5.113950   -4.283546
    184          1           0        8.887620   -4.226380   -3.250633
    185          1           0        8.707277   -2.547330   -1.409654
    186          1           0        4.576710   -2.637982   -1.557202
 ---------------------------------------------------------------------

 SCF Done:  E(RPBE1PBE) =  -4990.85932149     a.u. after   36 cycles
 SCF Done:  E(RPBE1PBE) =  -4990.85937774     A.U. after    9 cycles

 The electronic state is 1-A.
 Alpha  occ. eigenvalues --  -14.49014 -14.49012 -14.49008 -14.49006 -14.48598
 Alpha  occ. eigenvalues --  -14.48597 -14.48591 -14.48589 -10.32508 -10.32506
 Alpha  occ. eigenvalues --  -10.32505 -10.32504 -10.32457 -10.32454 -10.32453
 Alpha  occ. eigenvalues --  -10.32452 -10.31999 -10.31997 -10.31996 -10.31994
 Alpha  occ. eigenvalues --  -10.31180 -10.31178 -10.31175 -10.31173 -10.30785
 Alpha  occ. eigenvalues --  -10.30784 -10.30783 -10.30782 -10.29457 -10.29457
 Alpha  occ. eigenvalues --  -10.29456 -10.29454 -10.29331 -10.29331 -10.29330
 Alpha  occ. eigenvalues --  -10.29328 -10.29303 -10.29303 -10.29300 -10.29299
 Alpha  occ. eigenvalues --  -10.28885 -10.28885 -10.28882 -10.28882 -10.28252
 Alpha  occ. eigenvalues --  -10.28252 -10.28251 -10.28249 -10.28234 -10.28233
 Alpha  occ. eigenvalues --  -10.28231 -10.28229 -10.28154 -10.28154 -10.28153
 Alpha  occ. eigenvalues --  -10.28153 -10.27903 -10.27902 -10.27900 -10.27898
 Alpha  occ. eigenvalues --  -10.27540 -10.27539 -10.27538 -10.27537 -10.27356
 Alpha  occ. eigenvalues --  -10.27355 -10.27354 -10.27353 -10.26813 -10.26812
 Alpha  occ. eigenvalues --  -10.26811 -10.26810 -10.26798 -10.26797 -10.26797
 Alpha  occ. eigenvalues --  -10.26797 -10.26796 -10.26795 -10.26794 -10.26794
 Alpha  occ. eigenvalues --  -10.26766 -10.26766 -10.26765 -10.26765 -10.26558
 Alpha  occ. eigenvalues --  -10.26556 -10.26556 -10.26555 -10.26404 -10.26403
 Alpha  occ. eigenvalues --  -10.26402 -10.26401 -10.26316 -10.26315 -10.26314
 Alpha  occ. eigenvalues --  -10.26314 -10.26198 -10.26197 -10.26196 -10.26195
 Alpha  occ. eigenvalues --  -10.26090 -10.26089 -10.26089 -10.26088 -10.26034
 Alpha  occ. eigenvalues --  -10.26034 -10.26034 -10.26033 -10.25864 -10.25862
 Alpha  occ. eigenvalues --  -10.25862 -10.25861 -10.25707 -10.25707 -10.25707
 Alpha  occ. eigenvalues --  -10.25706 -10.25674 -10.25674 -10.25673 -10.25673
 Alpha  occ. eigenvalues --   -3.57495  -3.57494  -2.25412  -2.25411  -2.25405
 Alpha  occ. eigenvalues --   -2.25403  -2.21208  -2.21206  -1.04338  -1.04334
 Alpha  occ. eigenvalues --   -1.03761  -1.03760  -1.03488  -1.03487  -1.03252
 Alpha  occ. eigenvalues --   -1.03247  -0.92939  -0.92936  -0.92928  -0.92928
 Alpha  occ. eigenvalues --   -0.92773  -0.92769  -0.92725  -0.92724  -0.89029
 Alpha  occ. eigenvalues --   -0.89017  -0.88971  -0.88969  -0.88394  -0.88378
 Alpha  occ. eigenvalues --   -0.88322  -0.88318  -0.85538  -0.85535  -0.85485
 Alpha  occ. eigenvalues --   -0.85479  -0.84543  -0.84509  -0.84452  -0.84420
 Alpha  occ. eigenvalues --   -0.84017  -0.83981  -0.83917  -0.83908  -0.83061
 Alpha  occ. eigenvalues --   -0.83046  -0.83025  -0.82992  -0.81400  -0.81397
 Alpha  occ. eigenvalues --   -0.81340  -0.81329  -0.80902  -0.80870  -0.80844
 Alpha  occ. eigenvalues --   -0.80786  -0.79170  -0.79135  -0.79129  -0.79084
 Alpha  occ. eigenvalues --   -0.76601  -0.76581  -0.76542  -0.76513  -0.75489
 Alpha  occ. eigenvalues --   -0.75483  -0.75474  -0.75464  -0.71657  -0.71596
 Alpha  occ. eigenvalues --   -0.71528  -0.71479  -0.71434  -0.71415  -0.71192
 Alpha  occ. eigenvalues --   -0.71084  -0.69562  -0.69544  -0.69364  -0.69347
 Alpha  occ. eigenvalues --   -0.69065  -0.69057  -0.68998  -0.68983  -0.68739
 Alpha  occ. eigenvalues --   -0.68718  -0.68710  -0.68678  -0.67204  -0.67202
 Alpha  occ. eigenvalues --   -0.67181  -0.67147  -0.65905  -0.65889  -0.65864
 Alpha  occ. eigenvalues --   -0.65846  -0.63906  -0.63905  -0.63905  -0.63904
 Alpha  occ. eigenvalues --   -0.61854  -0.61741  -0.61355  -0.61282  -0.60422
 Alpha  occ. eigenvalues --   -0.60261  -0.60186  -0.60132  -0.58578  -0.58524
 Alpha  occ. eigenvalues --   -0.58274  -0.58269  -0.58236  -0.58092  -0.58021
 Alpha  occ. eigenvalues --   -0.57962  -0.56844  -0.56798  -0.56736  -0.56594
 Alpha  occ. eigenvalues --   -0.56577  -0.56512  -0.56415  -0.56258  -0.56209
 Alpha  occ. eigenvalues --   -0.56191  -0.56144  -0.56118  -0.55255  -0.55255
 Alpha  occ. eigenvalues --   -0.55252  -0.55250  -0.54570  -0.54558  -0.54279
 Alpha  occ. eigenvalues --   -0.54268  -0.52504  -0.52481  -0.52473  -0.52440
 Alpha  occ. eigenvalues --   -0.51846  -0.51845  -0.51657  -0.51654  -0.51552
 Alpha  occ. eigenvalues --   -0.51540  -0.50345  -0.50343  -0.50332  -0.50297
 Alpha  occ. eigenvalues --   -0.49966  -0.49961  -0.49865  -0.49799  -0.49510
 Alpha  occ. eigenvalues --   -0.49502  -0.49321  -0.49284  -0.49110  -0.49075
 Alpha  occ. eigenvalues --   -0.49028  -0.49023  -0.48744  -0.48738  -0.48592
 Alpha  occ. eigenvalues --   -0.48575  -0.48153  -0.48152  -0.48150  -0.48149
 Alpha  occ. eigenvalues --   -0.47811  -0.47799  -0.47639  -0.47629  -0.47286
 Alpha  occ. eigenvalues --   -0.47282  -0.47279  -0.47278  -0.47158  -0.47156
 Alpha  occ. eigenvalues --   -0.45508  -0.45506  -0.45502  -0.45499  -0.45416
 Alpha  occ. eigenvalues --   -0.45415  -0.45414  -0.45413  -0.45067  -0.45061
 Alpha  occ. eigenvalues --   -0.44728  -0.44718  -0.44618  -0.44520  -0.44511
 Alpha  occ. eigenvalues --   -0.44483  -0.43818  -0.43800  -0.43727  -0.43579
 Alpha  occ. eigenvalues --   -0.43503  -0.43492  -0.43227  -0.43224  -0.43166
 Alpha  occ. eigenvalues --   -0.43126  -0.42472  -0.42335  -0.42080  -0.42077
 Alpha  occ. eigenvalues --   -0.42052  -0.42049  -0.41266  -0.40875  -0.40807
 Alpha  occ. eigenvalues --   -0.40803  -0.40696  -0.40665  -0.40558  -0.40438
 Alpha  occ. eigenvalues --   -0.39764  -0.39649  -0.39619  -0.39563  -0.39548
 Alpha  occ. eigenvalues --   -0.39031  -0.38704  -0.38703  -0.38701  -0.38700
 Alpha  occ. eigenvalues --   -0.38450  -0.38141  -0.37352  -0.37168  -0.37148
 Alpha  occ. eigenvalues --   -0.37033  -0.37029  -0.36888  -0.36886  -0.36800
 Alpha  occ. eigenvalues --   -0.36762  -0.36583  -0.36144  -0.36091  -0.35831
 Alpha  occ. eigenvalues --   -0.35711  -0.34575  -0.34554  -0.34461  -0.34214
 Alpha  occ. eigenvalues --   -0.34202  -0.34192  -0.34181  -0.33808  -0.33482
 Alpha  occ. eigenvalues --   -0.33423  -0.33348  -0.33094  -0.32551  -0.32548
 Alpha  occ. eigenvalues --   -0.32020  -0.32017  -0.31596  -0.31554  -0.31546
 Alpha  occ. eigenvalues --   -0.31529  -0.31475  -0.31388  -0.31209  -0.31097
 Alpha  occ. eigenvalues --   -0.31030  -0.31022  -0.31003  -0.30921  -0.30615
 Alpha  occ. eigenvalues --   -0.30364  -0.30362  -0.30194  -0.28997  -0.28993
 Alpha  occ. eigenvalues --   -0.28248  -0.28168  -0.28121  -0.27968  -0.25211
 Alpha  occ. eigenvalues --   -0.25150  -0.25119  -0.25030  -0.24142  -0.24114
 Alpha  occ. eigenvalues --   -0.24089  -0.24052
 Alpha virt. eigenvalues --   -0.10303  -0.10257  -0.09975  -0.09886  -0.09444
 Alpha virt. eigenvalues --   -0.09381  -0.09098  -0.08889  -0.07545  -0.07520
 Alpha virt. eigenvalues --   -0.07326  -0.07262  -0.07261  -0.07149  -0.06784

 Mulliken charges:
               1
     1  Pd   0.494934
     2  Pd   0.494936
     3  C    0.011392
     4  C   -0.065333
     5  C   -0.021010
     6  C    0.019273
     7  C   -0.001067
     8  C    0.019672
     9  C   -0.059798
    10  C    0.178848
    11  N   -0.319248
    12  C    0.150572
    13  C   -0.013467
    14  C    0.069842
    15  H    0.043744
    16  H    0.054453
    17  H    0.043964
    18  H    0.090567
    19  H    0.093314
    20  H    0.050350
    21  C   -0.064968
    22  C    0.025337
    23  C   -0.011483
    24  C    0.006553
    25  C   -0.011315
    26  C    0.026257
    27  C   -0.070376
    28  C   -0.008771
    29  C    0.035012
    30  C   -0.016815
    31  H    0.033030
    32  H    0.030274
    33  H    0.030494
    34  H    0.033399
    35  H    0.025480
    36  H    0.026733
    37  C    0.011392
    38  C   -0.009550
    39  C   -0.120931
    40  C    0.105583
    41  C   -0.033053
    42  C    0.150156
    43  N   -0.309519
    44  C    0.187264
    45  H    0.063765
    46  H    0.071612
    47  H    0.107000
    48  H    0.093964
    49  C    0.011320
    50  C   -0.065283
    51  C   -0.020961
    52  C    0.019273
    53  C   -0.001038
    54  C    0.019641
    55  C   -0.059706
    56  C    0.178809
    57  N   -0.319454
    58  C    0.150466
    59  C   -0.013276
    60  C    0.069693
    61  H    0.043730
    62  H    0.054456
    63  H    0.043985
    64  H    0.090793
    65  H    0.093221
    66  H    0.050236
    67  C   -0.064969
    68  C    0.025406
    69  C   -0.011471
    70  C    0.006496
    71  C   -0.011276
    72  C    0.026226
    73  C   -0.070411
    74  C   -0.008746
    75  C    0.035047
    76  C   -0.016785
    77  H    0.033013
    78  H    0.030307
    79  H    0.030480
    80  H    0.033427
    81  H    0.025467
    82  H    0.026720
    83  C    0.011390
    84  C   -0.009526
    85  C   -0.120877
    86  C    0.105551
    87  C   -0.032917
    88  C    0.150400
    89  N   -0.309817
    90  C    0.187175
    91  H    0.063783
    92  H    0.071552
    93  H    0.107064
    94  H    0.093698
    95  C    0.011311
    96  C   -0.065273
    97  C   -0.020882
    98  C    0.019248
    99  C   -0.001056
   100  C    0.019644
   101  C   -0.059823
   102  C    0.178929
   103  N   -0.319346
   104  C    0.150616
   105  C   -0.013360
   106  C    0.069602
   107  H    0.043720
   108  H    0.054492
   109  H    0.043938
   110  H    0.090714
   111  H    0.093257
   112  H    0.050230
   113  C   -0.064968
   114  C    0.025351
   115  C   -0.011529
   116  C    0.006504
   117  C   -0.011235
   118  C    0.026169
   119  C   -0.070377
   120  C   -0.008668
   121  C    0.035040
   122  C   -0.016753
   123  H    0.033100
   124  H    0.030324
   125  H    0.030464
   126  H    0.033465
   127  H    0.025403
   128  H    0.026664
   129  C    0.011547
   130  C   -0.009795
   131  C   -0.120894
   132  C    0.105557
   133  C   -0.032971
   134  C    0.150325
   135  N   -0.309685
   136  C    0.187397
   137  H    0.063773
   138  H    0.071554
   139  H    0.106983
   140  H    0.093751
   141  C    0.011311
   142  C   -0.065313
   143  C   -0.020968
   144  C    0.019213
   145  C   -0.001079
   146  C    0.019687
   147  C   -0.059959
   148  C    0.178838
   149  N   -0.318913
   150  C    0.150672
   151  C   -0.013501
   152  C    0.069810
   153  H    0.043742
   154  H    0.054446
   155  H    0.043915
   156  H    0.090567
   157  H    0.093351
   158  H    0.050315
   159  C   -0.065049
   160  C    0.025434
   161  C   -0.011516
   162  C    0.006519
   163  C   -0.011287
   164  C    0.026213
   165  C   -0.070342
   166  C   -0.008833
   167  C    0.035078
   168  C   -0.016715
   169  H    0.033008
   170  H    0.030341
   171  H    0.030478
   172  H    0.033412
   173  H    0.025469
   174  H    0.026636
   175  C    0.011491
   176  C   -0.009722
   177  C   -0.120928
   178  C    0.105501
   179  C   -0.033002
   180  C    0.150107
   181  N   -0.309436
   182  C    0.187454
   183  H    0.063775
   184  H    0.071549
   185  H    0.106992
   186  H    0.094015
 Sum of Mulliken charges =   4.00000

 Dipole moment (field-independent basis, Debye):
    X=             -0.0134    Y=             -0.1002    Z=             -0.1649  Tot=              0.1934
 Quadrupole moment (field-independent basis, Debye-Ang):
   XX=            337.0695   YY=           -456.5505   ZZ=           -478.6946
   XY=            -96.6232   XZ=              0.4000   YZ=             -0.0677

 Normal termination of Gaussian 16 at Fri Feb 26 14:28:44 2021.
