 Gaussian 16, Revision C.01,
 Gaussian 16:  ES64L-G16RevC.01  3-Jul-2019

 ----------------------------------------------------------------
 # SP B3LYP/def2svp empiricaldispersion=GD3BJ scrf=(solvent=dmso)
 ----------------------------------------------------------------

 ---------
 cis_l1_lb
 ---------
 Symbolic Z-matrix:
 Charge =  4 Multiplicity = 1

                         Standard orientation:
 ---------------------------------------------------------------------
 Center     Atomic      Atomic             Coordinates (Angstroms)
 Number     Number       Type             X           Y           Z
 ---------------------------------------------------------------------
      1         46           0        7.220013   -1.722995    0.301972
      2         46           0       -7.199986   -1.765048    0.161972
      3          6           0        4.884016   -2.349003   -1.342028
      4          7           0        5.984018   -2.894999   -0.803028
      5          6           0        6.199023   -4.210999   -0.943028
      6          6           0        5.300026   -5.034002   -1.603028
      7          6           0        4.123024   -4.494006   -2.140028
      8          6           0        3.092027   -5.333010   -2.777028
      9          6           0        3.441031   -6.484009   -3.518028
     10          6           0        2.480034   -7.298012   -4.111028
     11          6           0        1.152033   -6.935017   -3.931028
     12          8           0        0.066035   -7.605021   -4.404028
     13          6           0       -1.032967   -6.925025   -3.977028
     14          6           0       -2.355966   -7.276030   -4.212028
     15          6           0       -3.332969   -6.456034   -3.656028
     16          6           0       -3.005973   -5.307032   -2.902028
     17          6           0       -4.052976   -4.469036   -2.291028
     18          6           0       -3.874982   -3.086036   -2.140028
     19          6           0       -4.828984   -2.334039   -1.478028
     20          7           0       -5.939982   -2.887043   -0.970028
     21          6           0       -6.154977   -4.199044   -1.138028
     22          6           0       -5.244974   -5.014041   -1.791028
     23          6           0       -1.662975   -4.971027   -2.694028
     24          6           0       -0.673972   -5.791024   -3.227028
     25          6           0        0.771028   -5.798019   -3.195028
     26          6           0        1.745025   -4.989015   -2.619028
     27          6           0        3.943019   -3.108007   -2.012028
     28          1           0        4.760012   -1.270004   -1.228028
     29          1           0        7.109024   -4.612995   -0.492028
     30          1           0        5.509030   -6.103001   -1.657028
     31          1           0        4.495032   -6.736005   -3.652028
     32          1           0        2.756037   -8.180011   -4.691028
     33          1           0       -2.615963   -8.156031   -4.802028
     34          1           0       -4.382968   -6.700037   -3.830028
     35          1           0       -2.995983   -2.582032   -2.542028
     36          1           0       -4.702988   -1.258039   -1.343028
     37          1           0       -7.075976   -4.605047   -0.715028
     38          1           0       -5.454970   -6.082041   -1.866028
     39          1           0       -1.389978   -4.102026   -2.093028
     40          1           0        1.455022   -4.121016   -2.023028
     41          1           0        3.074017   -2.608010   -2.441028
     42          6           0        4.918012   -1.278003    2.057972
     43          7           0        6.004015   -2.048999    1.895972
     44          6           0        6.187019   -3.101999    2.704972
     45          6           0        5.265020   -3.445002    3.680972
     46          6           0        4.095017   -2.687006    3.834972
     47          6           0        3.035018   -3.076010    4.783972
     48          6           0        3.356021   -3.682009    6.017972
     49          6           0        2.375022   -4.096013    6.911972
     50          6           0        1.054021   -3.902017    6.527972
     51          8           0       -0.042977   -4.270021    7.240972
     52          6           0       -1.128978   -3.934026    6.492972
     53          6           0       -2.453978   -4.165030    6.836972
     54          6           0       -3.418979   -3.775034    5.913972
     55          6           0       -3.076981   -3.156033    4.692972
     56          6           0       -4.120983   -2.779037    3.720972
     57          6           0       -3.997987   -1.623036    2.934972
     58          6           0       -4.950988   -1.338040    1.973972
     59          7           0       -6.004985   -2.140043    1.759972
     60          6           0       -6.168981   -3.228044    2.525972
     61          6           0       -5.258980   -3.572041    3.512972
     62          6           0       -1.731982   -2.923028    4.378972
     63          6           0       -0.750981   -3.324024    5.282972
     64          6           0        0.697019   -3.303019    5.305972
     65          6           0        1.694018   -2.877015    4.430972
     66          6           0        3.953013   -1.562007    3.007972
     67          1           0        4.816009   -0.414004    1.397972
     68          1           0        7.089021   -3.694995    2.540972
     69          1           0        5.447023   -4.335001    4.284972
     70          1           0        4.405021   -3.815005    6.291972
     71          1           0        2.627024   -4.555012    7.868972
     72          1           0       -2.722976   -4.634031    7.783972
     73          1           0       -4.471978   -3.935038    6.155972
     74          1           0       -3.163989   -0.934033    3.071972
     75          1           0       -4.869991   -0.445039    1.350972
     76          1           0       -7.043979   -3.848047    2.320972
     77          1           0       -5.422976   -4.487041    4.083972
     78          1           0       -1.452984   -2.473027    3.423972
     79          1           0        1.430016   -2.434016    3.469972
     80          1           0        3.093010   -0.898010    3.098972
     81          6           0       10.473007   -0.088983    2.489972
     82          6           0        9.588011   -0.935986    1.879972
     83          7           0        8.413009   -0.479990    1.365972
     84          6           0        8.078004    0.792008    1.486972
     85          6           0        8.892001    1.737011    2.148972
     86          6           0        8.511996    3.109010    2.304972
     87          6           0        7.165994    3.612005    1.953972
     88          6           0        7.023989    4.825005    1.261972
     89          6           0        5.771987    5.381000    1.041972
     90          6           0        4.611990    4.730996    1.503972
     91          6           0        3.334987    5.345991    1.361972
     92          6           0        2.255985    5.907987    1.305972
     93          6           0        1.027983    6.644982    1.299972
     94          7           0       -0.116015    5.951978    1.294972
     95          6           0       -1.266017    6.635974    1.310972
     96          6           0       -2.487015    5.888969    1.340972
     97          6           0       -3.558012    5.313966    1.422972
     98          6           0       -4.818010    4.670961    1.585972
     99          6           0       -6.002012    5.301957    1.160972
    100          6           0       -7.236010    4.707952    1.387972
    101          6           0       -7.332006    3.472952    2.048972
    102          6           0       -8.656004    2.911947    2.396972
    103          6           0       -9.604007    3.718943    3.001972
    104          6           0      -10.845005    3.207939    3.437972
    105          6           0      -11.152000    1.874938    3.290972
    106          6           0      -10.229997    1.012941    2.653972
    107          6           0      -10.488992   -0.366060    2.453972
    108          6           0       -9.580989   -1.145057    1.788972
    109          7           0       -8.435991   -0.617052    1.277972
    110          6           0       -8.148995    0.659949    1.457972
    111          6           0       -8.987999    1.535946    2.178972
    112          6           0       -6.147003    2.836956    2.453972
    113          6           0       -4.908005    3.418961    2.220972
    114          6           0       -1.321023    8.041974    1.330972
    115          6           0       -0.127025    8.750978    1.339972
    116          6           0        1.071977    8.049983    1.323972
    117          6           0        4.745994    3.496996    2.163972
    118          6           0        6.003996    2.953001    2.389972
    119          6           0        9.437992    3.978013    2.856972
    120          6           0       10.702994    3.537018    3.296972
    121          6           0       11.059999    2.211019    3.207972
    122          6           0       10.161002    1.286016    2.627972
    123          1           0       11.421009   -0.475979    2.865972
    124          1           0        9.790014   -2.000985    1.766972
    125          1           0        7.137003    1.099005    1.026972
    126          1           0        7.912987    5.343008    0.894972
    127          1           0        5.680984    6.333000    0.514972
    128          1           0       -5.945016    6.267957    0.655972
    129          1           0       -8.145012    5.209949    1.048972
    130          1           0       -9.370010    4.768944    3.183972
    131          1           0      -11.555007    3.881936    3.921972
    132          1           0      -12.098998    1.470934    3.652972
    133          1           0      -11.413990   -0.809063    2.824972
    134          1           0       -9.740985   -2.212057    1.622972
    135          1           0       -7.230997    1.028952    0.997972
    136          1           0       -6.194000    1.892956    2.999972
    137          1           0       -3.999004    2.920964    2.560972
    138          1           0       -2.286024    8.548970    1.342972
    139          1           0       -0.131029    9.842978    1.358972
    140          1           0        2.033976    8.564986    1.328972
    141          1           0        3.855996    2.982993    2.532972
    142          1           0        6.083000    2.026001    2.960972
    143          1           0        9.165989    5.027012    2.993972
    144          1           0       11.393991    4.260021    3.736972
    145          1           0       12.026000    1.860023    3.572972
    146          6           0       10.277013   -1.641983   -2.680028
    147          6           0        9.499014   -1.983986   -1.606028
    148          7           0        8.349012   -1.312991   -1.324028
    149          6           0        7.966008   -0.300992   -2.079028
    150          6           0        8.710007    0.153011   -3.186028
    151          6           0        8.280002    1.259009   -3.984028
    152          6           0        7.056000    2.017005   -3.637028
    153          6           0        6.013999    2.126001   -4.568028
    154          6           0        4.846997    2.809997   -4.253028
    155          6           0        4.694995    3.417996   -2.994028
    156          6           0        3.492992    4.122992   -2.688028
    157          6           0        2.452990    4.721988   -2.478028
    158          6           0        1.241987    5.467983   -2.287028
    159          7           0        0.086989    4.802979   -2.409028
    160          6           0       -1.055013    5.485975   -2.273028
    161          6           0       -2.280010    4.760970   -2.451028
    162          6           0       -3.332008    4.181966   -2.653028
    163          6           0       -4.549006    3.501962   -2.961028
    164          6           0       -4.724004    2.933961   -4.235028
    165          6           0       -5.905001    2.279957   -4.557028
    166          6           0       -6.940001    2.161953   -3.619028
    167          6           0       -8.183998    1.445949   -3.987028
    168          6           0       -8.930000    1.844946   -5.080028
    169          6           0      -10.121997    1.177941   -5.442028
    170          6           0      -10.580993    0.098940   -4.721028
    171          6           0       -9.838992   -0.363058   -3.608028
    172          6           0      -10.229987   -1.484059   -2.834028
    173          6           0       -9.456986   -1.898056   -1.782028
    174          7           0       -8.297988   -1.260052   -1.461028
    175          6           0       -7.897992   -0.215050   -2.161028
    176          6           0       -8.632994    0.308947   -3.244028
    177          6           0       -6.767003    2.734954   -2.350028
    178          6           0       -5.590005    3.396958   -2.022028
    179          6           0       -1.091018    6.865975   -2.008028
    180          6           0        0.112979    7.547979   -1.891028
    181          6           0        1.304982    6.845983   -2.025028
    182          6           0        5.745995    3.326000   -2.065028
    183          6           0        6.906997    2.635004   -2.385028
    184          6           0        9.026001    1.584012   -5.101028
    185          6           0       10.202004    0.874016   -5.432028
    186          6           0       10.646008   -0.170982   -4.655028
    187          6           0        9.903009   -0.558985   -3.515028
    188          1           0       11.185015   -2.208980   -2.892028
    189          1           0        9.758017   -2.808985   -0.941028
    190          1           0        7.025006    0.185005   -1.816028
    191          1           0        6.113001    1.647001   -5.545028
    192          1           0        4.037997    2.876994   -4.984028
    193          1           0       -3.923004    3.010964   -4.972028
    194          1           0       -6.024000    1.833956   -5.548028
    195          1           0       -8.602003    2.707947   -5.662028
    196          1           0      -10.687999    1.534939   -6.305028
    197          1           0      -11.504991   -0.411064   -4.997028
    198          1           0      -11.146985   -2.024062   -3.076028
    199          1           0       -9.727983   -2.755057   -1.164028
    200          1           0       -6.950994    0.242953   -1.868028
    201          1           0       -7.571003    2.679951   -1.611028
    202          1           0       -5.475007    3.843958   -1.033028
    203          1           0       -2.048020    7.377971   -1.907028
    204          1           0        0.123975    8.621979   -1.694028
    205          1           0        2.271980    7.341987   -1.935028
    206          1           0        5.648993    3.805999   -1.090028
    207          1           0        7.718998    2.589007   -1.654028
    208          1           0        8.711998    2.422011   -5.727028
    209          1           0       10.769003    1.173018   -6.317028
    210          1           0       11.561010   -0.709979   -4.907028
 ---------------------------------------------------------------------

 SCF Done:  E(RB3LYP) =  -5643.63952866     A.U. after   24 cycles

 The electronic state is 1-A.
 Alpha  occ. eigenvalues --  -19.22040 -19.22016 -14.41054 -14.41034 -14.41020
 Alpha  occ. eigenvalues --  -14.41016 -14.40946 -14.40934 -14.40907 -14.40907
 Alpha  occ. eigenvalues --  -14.34441 -14.34275 -10.27173 -10.27162 -10.27145
 Alpha  occ. eigenvalues --  -10.27138 -10.27128 -10.27117 -10.27043 -10.27011
 Alpha  occ. eigenvalues --  -10.26724 -10.26707 -10.26690 -10.26685 -10.26684
 Alpha  occ. eigenvalues --  -10.26680 -10.26663 -10.26641 -10.26414 -10.26391
 Alpha  occ. eigenvalues --  -10.26214 -10.26194 -10.25886 -10.25881 -10.25859
 Alpha  occ. eigenvalues --  -10.25846 -10.24878 -10.24873 -10.24855 -10.24848
 Alpha  occ. eigenvalues --  -10.23810 -10.23800 -10.23777 -10.23770 -10.23735
 Alpha  occ. eigenvalues --  -10.23712 -10.23580 -10.23579 -10.23579 -10.23552
 Alpha  occ. eigenvalues --  -10.23356 -10.23340 -10.23325 -10.23320 -10.23199
 Alpha  occ. eigenvalues --  -10.23189 -10.22999 -10.22980 -10.22976 -10.22975
 Alpha  occ. eigenvalues --  -10.22964 -10.22958 -10.22923 -10.22913 -10.22817
 Alpha  occ. eigenvalues --  -10.22811 -10.22797 -10.22790 -10.22611 -10.22594
 Alpha  occ. eigenvalues --  -10.22422 -10.22419 -10.22418 -10.22413 -10.22289
 Alpha  occ. eigenvalues --  -10.22285 -10.22283 -10.22154 -10.22143 -10.22140
 Alpha  occ. eigenvalues --  -10.22111 -10.22104 -10.22103 -10.22102 -10.22101
 Alpha  occ. eigenvalues --  -10.22087 -10.21989 -10.21975 -10.21918 -10.21912
 Alpha  occ. eigenvalues --  -10.21910 -10.21898 -10.21877 -10.21877 -10.21864
 Alpha  occ. eigenvalues --  -10.21863 -10.21826 -10.21818 -10.21791 -10.21788
 Alpha  occ. eigenvalues --  -10.21750 -10.21750 -10.21724 -10.21723 -10.21719
 Alpha  occ. eigenvalues --  -10.21719 -10.21691 -10.21690 -10.21685 -10.21677
 Alpha  occ. eigenvalues --  -10.21666 -10.21665 -10.21651 -10.21650 -10.21551
 Alpha  occ. eigenvalues --  -10.21526 -10.21388 -10.21387 -10.21379 -10.21359
 Alpha  occ. eigenvalues --  -10.21336 -10.21316 -10.21291 -10.21281 -10.21276
 Alpha  occ. eigenvalues --  -10.21266 -10.21164 -10.21147 -10.21099 -10.21090
 Alpha  occ. eigenvalues --  -10.20777 -10.20757 -10.20616 -10.20604  -3.52835
 Alpha  occ. eigenvalues --   -3.52829  -2.21537  -2.21531  -2.21376  -2.21370
 Alpha  occ. eigenvalues --   -2.17306  -2.17299  -1.13138  -1.13091  -1.00193
 Alpha  occ. eigenvalues --   -1.00190  -0.99642  -0.99638  -0.99523  -0.99511
 Alpha  occ. eigenvalues --   -0.99483  -0.99480  -0.96759  -0.96493  -0.89754
 Alpha  occ. eigenvalues --   -0.89751  -0.89636  -0.89620  -0.89187  -0.89145
 Alpha  occ. eigenvalues --   -0.88700  -0.88677  -0.87790  -0.87781  -0.87591
 Alpha  occ. eigenvalues --   -0.87583  -0.84953  -0.84866  -0.84587  -0.84502
 Alpha  occ. eigenvalues --   -0.83086  -0.82922  -0.82914  -0.82786  -0.82009
 Alpha  occ. eigenvalues --   -0.81899  -0.81733  -0.81577  -0.80396  -0.80355
 Alpha  occ. eigenvalues --   -0.80246  -0.80126  -0.80083  -0.80002  -0.79983
 Alpha  occ. eigenvalues --   -0.79910  -0.79895  -0.79830  -0.79668  -0.79471
 Alpha  occ. eigenvalues --   -0.79425  -0.79191  -0.78025  -0.77982  -0.77056
 Alpha  occ. eigenvalues --   -0.76878  -0.76581  -0.76494  -0.76347  -0.76223
 Alpha  occ. eigenvalues --   -0.76078  -0.75958  -0.75943  -0.75897  -0.74715
 Alpha  occ. eigenvalues --   -0.74693  -0.74095  -0.73914  -0.72597  -0.72450
 Alpha  occ. eigenvalues --   -0.68814  -0.68708  -0.68673  -0.68547  -0.68516
 Alpha  occ. eigenvalues --   -0.68428  -0.68258  -0.68229  -0.67723  -0.67478
 Alpha  occ. eigenvalues --   -0.67431  -0.67247  -0.67234  -0.67133  -0.67016
 Alpha  occ. eigenvalues --   -0.66932  -0.66322  -0.66309  -0.66203  -0.66188
 Alpha  occ. eigenvalues --   -0.65216  -0.65137  -0.64823  -0.64678  -0.64604
 Alpha  occ. eigenvalues --   -0.64440  -0.62679  -0.62656  -0.62527  -0.62511
 Alpha  occ. eigenvalues --   -0.62503  -0.62435  -0.61273  -0.61229  -0.61171
 Alpha  occ. eigenvalues --   -0.61141  -0.61030  -0.60943  -0.60592  -0.60554
 Alpha  occ. eigenvalues --   -0.58029  -0.57915  -0.57785  -0.57489  -0.57204
 Alpha  occ. eigenvalues --   -0.56608  -0.56403  -0.56324  -0.56224  -0.56176
 Alpha  occ. eigenvalues --   -0.55791  -0.55734  -0.55475  -0.55434  -0.55376
 Alpha  occ. eigenvalues --   -0.55355  -0.55282  -0.55132  -0.54867  -0.54760
 Alpha  occ. eigenvalues --   -0.54617  -0.54487  -0.54097  -0.54006  -0.53956
 Alpha  occ. eigenvalues --   -0.53902  -0.53175  -0.53079  -0.52343  -0.52155
 Alpha  occ. eigenvalues --   -0.52108  -0.52008  -0.51274  -0.51201  -0.50327
 Alpha  occ. eigenvalues --   -0.50211  -0.50135  -0.50074  -0.49925  -0.49890
 Alpha  occ. eigenvalues --   -0.49720  -0.49607  -0.49564  -0.49476  -0.49347
 Alpha  occ. eigenvalues --   -0.49327  -0.49312  -0.49147  -0.49124  -0.48973
 Alpha  occ. eigenvalues --   -0.48871  -0.48739  -0.48635  -0.48610  -0.48530
 Alpha  occ. eigenvalues --   -0.48339  -0.48280  -0.48184  -0.47845  -0.47766
 Alpha  occ. eigenvalues --   -0.47736  -0.47629  -0.47571  -0.47447  -0.47204
 Alpha  occ. eigenvalues --   -0.47188  -0.47140  -0.47049  -0.46870  -0.46758
 Alpha  occ. eigenvalues --   -0.46438  -0.46341  -0.46275  -0.46213  -0.46193
 Alpha  occ. eigenvalues --   -0.46154  -0.46003  -0.45986  -0.45956  -0.45648
 Alpha  occ. eigenvalues --   -0.45607  -0.45414  -0.45338  -0.45258  -0.45226
 Alpha  occ. eigenvalues --   -0.45084  -0.45061  -0.45053  -0.44918  -0.44434
 Alpha  occ. eigenvalues --   -0.44418  -0.44323  -0.44313  -0.44169  -0.44158
 Alpha  occ. eigenvalues --   -0.44081  -0.44005  -0.43377  -0.43229  -0.43004
 Alpha  occ. eigenvalues --   -0.42950  -0.42712  -0.42643  -0.42505  -0.42134
 Alpha  occ. eigenvalues --   -0.42124  -0.42063  -0.42044  -0.41237  -0.41177
 Alpha  occ. eigenvalues --   -0.41038  -0.41020  -0.40918  -0.40844  -0.40829
 Alpha  occ. eigenvalues --   -0.40593  -0.40552  -0.40442  -0.40366  -0.40268
 Alpha  occ. eigenvalues --   -0.40239  -0.40171  -0.40158  -0.40052  -0.40026
 Alpha  occ. eigenvalues --   -0.39920  -0.39904  -0.39853  -0.39556  -0.39345
 Alpha  occ. eigenvalues --   -0.39148  -0.39122  -0.38936  -0.38696  -0.38633
 Alpha  occ. eigenvalues --   -0.38549  -0.38544  -0.38417  -0.37534  -0.37528
 Alpha  occ. eigenvalues --   -0.37250  -0.37180  -0.37084  -0.37003  -0.36791
 Alpha  occ. eigenvalues --   -0.36779  -0.36581  -0.36573  -0.36181  -0.36140
 Alpha  occ. eigenvalues --   -0.36027  -0.35924  -0.35737  -0.35180  -0.35028
 Alpha  occ. eigenvalues --   -0.34809  -0.34781  -0.34512  -0.34122  -0.33724
 Alpha  occ. eigenvalues --   -0.33599  -0.33538  -0.33424  -0.33292  -0.32838
 Alpha  occ. eigenvalues --   -0.32591  -0.32335  -0.32241  -0.32011  -0.31841
 Alpha  occ. eigenvalues --   -0.31769  -0.31747  -0.31651  -0.31643  -0.31306
 Alpha  occ. eigenvalues --   -0.31162  -0.30962  -0.30862  -0.30681  -0.30672
 Alpha  occ. eigenvalues --   -0.30170  -0.30160  -0.29795  -0.29793  -0.29628
 Alpha  occ. eigenvalues --   -0.29489  -0.29305  -0.28863  -0.28648  -0.28600
 Alpha  occ. eigenvalues --   -0.28489  -0.28388  -0.28377  -0.27997  -0.27966
 Alpha  occ. eigenvalues --   -0.27956  -0.27808  -0.27143  -0.27115  -0.27084
 Alpha  occ. eigenvalues --   -0.27028  -0.26801  -0.26105  -0.25669  -0.25043
 Alpha  occ. eigenvalues --   -0.25021  -0.25014  -0.24983  -0.24595  -0.24395
 Alpha  occ. eigenvalues --   -0.23881  -0.23296
 Alpha virt. eigenvalues --   -0.09872  -0.09863  -0.09370  -0.09363  -0.08971
 Alpha virt. eigenvalues --   -0.08700  -0.08493  -0.08330  -0.07752  -0.07683
 Alpha virt. eigenvalues --   -0.07674  -0.07511  -0.06996  -0.06918  -0.06675

 Mulliken charges:
               1
     1  Pd   0.424449
     2  Pd   0.423504
     3  C    0.131143
     4  N   -0.232091
     5  C    0.135674
     6  C   -0.017067
     7  C    0.102599
     8  C    0.091343
     9  C   -0.025875
    10  C   -0.066563
    11  C    0.209948
    12  O   -0.220602
    13  C    0.210141
    14  C   -0.066145
    15  C   -0.025978
    16  C    0.091060
    17  C    0.102420
    18  C   -0.021756
    19  C    0.132029
    20  N   -0.230459
    21  C    0.135232
    22  C   -0.016484
    23  C   -0.094645
    24  C    0.081068
    25  C    0.080979
    26  C   -0.095549
    27  C   -0.020584
    28  H    0.067341
    29  H    0.071840
    30  H    0.026189
    31  H    0.011881
    32  H    0.006393
    33  H    0.006277
    34  H    0.011879
    35  H    0.026956
    36  H    0.066524
    37  H    0.072128
    38  H    0.026317
    39  H   -0.000249
    40  H    0.000409
    41  H    0.027110
    42  C    0.130368
    43  N   -0.231784
    44  C    0.136672
    45  C   -0.016226
    46  C    0.100382
    47  C    0.088637
    48  C   -0.025844
    49  C   -0.064033
    50  C    0.206326
    51  O   -0.219268
    52  C    0.207284
    53  C   -0.064719
    54  C   -0.024426
    55  C    0.085545
    56  C    0.097703
    57  C   -0.018484
    58  C    0.130229
    59  N   -0.233016
    60  C    0.137006
    61  C   -0.015154
    62  C   -0.090728
    63  C    0.081214
    64  C    0.080012
    65  C   -0.091002
    66  C   -0.021036
    67  H    0.065533
    68  H    0.071325
    69  H    0.026751
    70  H    0.012290
    71  H    0.006120
    72  H    0.005994
    73  H    0.012093
    74  H    0.027244
    75  H    0.067254
    76  H    0.070689
    77  H    0.026833
    78  H    0.000076
    79  H   -0.000810
    80  H    0.027358
    81  C   -0.007739
    82  C    0.125373
    83  N   -0.224443
    84  C    0.078932
    85  C    0.056404
    86  C    0.085305
    87  C    0.028544
    88  C   -0.013612
    89  C    0.012699
    90  C   -0.037536
    91  C    0.017722
    92  C    0.038833
    93  C   -0.076487
    94  N   -0.116537
    95  C   -0.081041
    96  C    0.045633
    97  C    0.014340
    98  C   -0.041813
    99  C    0.012103
   100  C   -0.007811
   101  C    0.023782
   102  C    0.084177
   103  C   -0.024733
   104  C    0.046237
   105  C   -0.004777
   106  C    0.081445
   107  C   -0.007135
   108  C    0.123126
   109  N   -0.224522
   110  C    0.078625
   111  C    0.054978
   112  C   -0.016666
   113  C    0.012712
   114  C    0.026818
   115  C    0.071748
   116  C    0.023617
   117  C    0.010683
   118  C   -0.018300
   119  C   -0.026944
   120  C    0.046059
   121  C   -0.004219
   122  C    0.079473
   123  H    0.021476
   124  H    0.062827
   125  H    0.060856
   126  H    0.006143
   127  H    0.005757
   128  H    0.005497
   129  H    0.005567
   130  H    0.009005
   131  H    0.020640
   132  H    0.007709
   133  H    0.021591
   134  H    0.064720
   135  H    0.062876
   136  H    0.012597
   137  H    0.002278
   138  H    0.009657
   139  H    0.023243
   140  H    0.010255
   141  H    0.002709
   142  H    0.012649
   143  H    0.009999
   144  H    0.020727
   145  H    0.007454
   146  C   -0.010042
   147  C    0.123607
   148  N   -0.224709
   149  C    0.082713
   150  C    0.062170
   151  C    0.070003
   152  C    0.003868
   153  C    0.007377
   154  C    0.003721
   155  C   -0.013797
   156  C   -0.029340
   157  C    0.059607
   158  C   -0.077823
   159  N   -0.120138
   160  C   -0.082397
   161  C    0.058982
   162  C   -0.028790
   163  C   -0.013125
   164  C    0.003803
   165  C    0.007224
   166  C    0.003491
   167  C    0.066656
   168  C   -0.019366
   169  C    0.045120
   170  C   -0.004916
   171  C    0.083350
   172  C   -0.009932
   173  C    0.124580
   174  N   -0.225063
   175  C    0.083078
   176  C    0.063506
   177  C   -0.011416
   178  C    0.011644
   179  C    0.049512
   180  C    0.058152
   181  C    0.041878
   182  C    0.013218
   183  C   -0.013891
   184  C   -0.021012
   185  C    0.045008
   186  C   -0.005369
   187  C    0.084333
   188  H    0.021538
   189  H    0.061442
   190  H    0.069480
   191  H    0.001675
   192  H    0.001194
   193  H    0.000577
   194  H    0.002048
   195  H    0.006260
   196  H    0.020573
   197  H    0.007023
   198  H    0.021601
   199  H    0.061231
   200  H    0.068261
   201  H    0.008751
   202  H   -0.007647
   203  H    0.009382
   204  H    0.024186
   205  H    0.009336
   206  H   -0.010455
   207  H    0.009022
   208  H    0.006533
   209  H    0.020883
   210  H    0.007148
 Sum of Mulliken charges =   4.00000

 Dipole moment (field-independent basis, Debye):
    X=              0.0167    Y=            -21.7210    Z=              3.7172  Tot=             22.0368
 Quadrupole moment (field-independent basis, Debye-Ang):
   XX=            410.5051   YY=           -491.0841   ZZ=           -607.5174
   XY=              1.8105   XZ=              3.7580   YZ=              3.5076

 Normal termination of Gaussian 16 at Tue Jul 25 15:52:16 2023.
