 Gaussian 16, Revision C.01,
 Gaussian 16:  ES64L-G16RevC.01  3-Jul-2019

 ------------------------------------------------------------------
 # SP PBE1PBE/def2svp empiricaldispersion=GD3BJ scrf=(solvent=dmso)
 ------------------------------------------------------------------

 -----
 m3_l1
 -----
 Symbolic Z-matrix:
 Charge =  6 Multiplicity = 1

                         Standard orientation:
 ---------------------------------------------------------------------
 Center     Atomic      Atomic             Coordinates (Angstroms)
 Number     Number       Type             X           Y           Z
 ---------------------------------------------------------------------
      1         46           0        2.031200   -7.234894    0.168145
      2         46           0       -7.740725    1.955453   -0.123471
      3         46           0        5.443371    5.522808   -0.046011
      4          6           0        3.436790   -6.111959    2.407029
      5          7           0        3.494282   -7.172779    1.590762
      6          6           0        4.692985   -7.731830    1.379073
      7          6           0        5.866168   -7.193816    1.874380
      8          6           0        5.830796   -6.000462    2.604794
      9          6           0        7.023542   -5.233224    2.957350
     10          6           0        8.205518   -5.847013    3.399680
     11          6           0        9.333457   -5.112957    3.711396
     12          6           0        9.275990   -3.737416    3.538650
     13          8           0       10.273248   -2.845331    3.736443
     14          6           0        9.793603   -1.632459    3.403439
     15          6           0       10.473225   -0.421055    3.420983
     16          6           0        9.795596    0.703396    2.996915
     17          6           0        8.456797    0.656363    2.559868
     18          6           0        7.783901    1.850145    2.061747
     19          6           0        6.708913    1.743969    1.162060
     20          6           0        6.077253    2.868396    0.695427
     21          7           0        6.453374    4.112172    1.028661
     22          6           0        7.478055    4.242289    1.877879
     23          6           0        8.145946    3.159602    2.415521
     24          6           0        7.777619   -0.567007    2.576170
     25          6           0        8.443847   -1.704793    2.985067
     26          6           0        8.099948   -3.099902    3.081291
     27          6           0        6.969378   -3.847064    2.807195
     28          6           0        4.558403   -5.507065    2.926599
     29          1           0        2.448823   -5.734694    2.659286
     30          1           0        4.708991   -8.633955    0.774036
     31          1           0        6.806921   -7.670959    1.650478
     32          1           0        8.223343   -6.916853    3.536464
     33          1           0       10.231767   -5.586989    4.069916
     34          1           0       11.499122   -0.370132    3.746481
     35          1           0       10.329583    1.639111    2.970217
     36          1           0        6.381172    0.778731    0.812153
     37          1           0        5.232305    2.777303    0.008180
     38          1           0        7.763738    5.256250    2.139320
     39          1           0        8.942477    3.337741    3.119524
     40          1           0        6.734759   -0.632420    2.307727
     41          1           0        6.073883   -3.365503    2.442644
     42          1           0        4.456056   -4.655071    3.578624
     43          6           0        3.742164   -5.177208   -0.763961
     44          7           0        3.435979   -6.444970   -1.079234
     45          6           0        4.175780   -7.046543   -2.016670
     46          6           0        5.225465   -6.418708   -2.657465
     47          6           0        5.583451   -5.103963   -2.322360
     48          6           0        6.704982   -4.391565   -2.923858
     49          6           0        7.787506   -5.091289   -3.492888
     50          6           0        8.886929   -4.447829   -4.022980
     51          6           0        8.909880   -3.060716   -3.976449
     52          8           0        9.893461   -2.244621   -4.398340
     53          6           0        9.505263   -0.977237   -4.127365
     54          6           0       10.227036    0.186390   -4.350891
     55          6           0        9.662577    1.380041   -3.944544
     56          6           0        8.387673    1.432133   -3.358927
     57          6           0        7.793740    2.686237   -2.899000
     58          6           0        6.420511    2.916042   -3.058765
     59          6           0        5.827121    3.984753   -2.427796
     60          7           0        6.506758    4.838927   -1.649200
     61          6           0        7.837836    4.709524   -1.596825
     62          6           0        8.512657    3.671360   -2.211828
     63          6           0        7.659754    0.257471   -3.160169
     64          6           0        8.225662   -0.949498   -3.527754
     65          6           0        7.830780   -2.330587   -3.422744
     66          6           0        6.732504   -2.992600   -2.908976
     67          6           0        4.789505   -4.495930   -1.333831
     68          1           0        3.118408   -4.695577   -0.007955
     69          1           0        3.906331   -8.068831   -2.262359
     70          1           0        5.757639   -6.955347   -3.425750
     71          1           0        7.783074   -6.168798   -3.489969
     72          1           0        9.707702   -4.998048   -4.450984
     73          1           0       11.197237    0.152333   -4.817173
     74          1           0       10.200989    2.298109   -4.117375
     75          1           0        5.827861    2.256623   -3.672177
     76          1           0        4.762405    4.170870   -2.553606
     77          1           0        8.376112    5.457747   -1.022122
     78          1           0        9.583352    3.599172   -2.113268
     79          1           0        6.689883    0.283688   -2.687770
     80          1           0        5.897757   -2.418770   -2.536109
     81          1           0        5.003595   -3.496940   -0.995348
     82          6           0       -0.080916   -6.592592    1.866466
     83          7           0        0.525350   -7.711784    1.444592
     84          6           0       -0.089731   -8.875763    1.671233
     85          6           0       -1.339570   -8.958499    2.258576
     86          6           0       -2.015308   -7.795087    2.648837
     87          6           0       -3.388807   -7.765729    3.141141
     88          6           0       -3.965169   -8.833668    3.851761
     89          6           0       -5.274189   -8.802334    4.294401
     90          6           0       -6.028666   -7.670407    4.012402
     91          8           0       -7.323483   -7.433457    4.318286
     92          6           0       -7.633619   -6.212794    3.834573
     93          6           0       -8.851423   -5.547311    3.896147
     94          6           0       -8.932734   -4.294240    3.321473
     95          6           0       -7.832996   -3.673926    2.694825
     96          6           0       -7.925249   -2.349894    2.091049
     97          6           0       -6.982235   -1.939211    1.131370
     98          6           0       -7.020553   -0.670065    0.612751
     99          7           0       -7.967051    0.224590    0.932548
    100          6           0       -8.899367   -0.150969    1.813242
    101          6           0       -8.903551   -1.396849    2.413679
    102          6           0       -6.612779   -4.355256    2.650572
    103          6           0       -6.520760   -5.616367    3.199484
    104          6           0       -5.463288   -6.583082    3.308751
    105          6           0       -4.157192   -6.630009    2.870149
    106          6           0       -1.307990   -6.592418    2.479898
    107          1           0        0.440231   -5.647281    1.691232
    108          1           0        0.436412   -9.772069    1.361032
    109          1           0       -1.798629   -9.926824    2.381014
    110          1           0       -3.363680   -9.696474    4.087917
    111          1           0       -5.700969   -9.627929    4.839707
    112          1           0       -9.703849   -5.999502    4.374454
    113          1           0       -9.886252   -3.790583    3.338411
    114          1           0       -6.222367   -2.615300    0.778432
    115          1           0       -6.257762   -0.352648   -0.101177
    116          1           0       -9.662389    0.581423    2.053942
    117          1           0       -9.666187   -1.614943    3.144727
    118          1           0       -5.725715   -3.905953    2.232746
    119          1           0       -3.764142   -5.812045    2.286307
    120          1           0       -1.720569   -5.661137    2.833062
    121          6           0        0.059214   -6.000274   -1.585480
    122          7           0        0.590918   -7.183002   -1.256860
    123          6           0       -0.029565   -8.288732   -1.687699
    124          6           0       -1.204155   -8.251128   -2.409472
    125          6           0       -1.801034   -7.022147   -2.732998
    126          6           0       -3.075532   -6.929216   -3.436826
    127          6           0       -3.488947   -7.957973   -4.307907
    128          6           0       -4.701787   -7.925482   -4.962236
    129          6           0       -5.527291   -6.833071   -4.736664
    130          8           0       -6.752913   -6.625114   -5.251203
    131          6           0       -7.186228   -5.434955   -4.781689
    132          6           0       -8.404085   -4.827529   -5.048764
    133          6           0       -8.648120   -3.597178   -4.472210
    134          6           0       -7.687574   -2.956809   -3.673352
    135          6           0       -7.921549   -1.622137   -3.122031
    136          6           0       -6.892841   -0.670311   -3.151647
    137          6           0       -7.046502    0.526133   -2.491004
    138          7           0       -8.147662    0.835989   -1.790651
    139          6           0       -9.181282   -0.013039   -1.849542
    140          6           0       -9.116261   -1.225673   -2.512590
    141          6           0       -6.469458   -3.580019   -3.403145
    142          6           0       -6.224316   -4.832476   -3.936978
    143          6           0       -5.128190   -5.769648   -3.891162
    144          6           0       -3.907403   -5.822543   -3.241020
    145          6           0       -1.101817   -5.879157   -2.314718
    146          1           0        0.600230   -5.114461   -1.255047
    147          1           0        0.438062   -9.237177   -1.434920
    148          1           0       -1.667287   -9.180276   -2.698783
    149          1           0       -2.826643   -8.786171   -4.501684
    150          1           0       -5.004716   -8.716344   -5.626687
    151          1           0       -9.127567   -5.303598   -5.689353
    152          1           0       -9.580186   -3.095333   -4.679465
    153          1           0       -5.983381   -0.873073   -3.694241
    154          1           0       -6.257743    1.273590   -2.530639
    155          1           0      -10.087347    0.287453   -1.333244
    156          1           0       -9.973625   -1.880394   -2.511742
    157          1           0       -5.739459   -3.105541   -2.762495
    158          1           0       -3.631272   -5.031457   -2.560450
    159          1           0       -1.457989   -4.894916   -2.572907
    160          6           0       -5.899232    2.707068    1.928011
    161          7           0       -7.143084    2.983843    1.516897
    162          6           0       -7.711764    4.115910    1.947852
    163          6           0       -7.046088    5.026732    2.744888
    164          6           0       -5.716770    4.791304    3.121016
    165          6           0       -4.909611    5.757052    3.859684
    166          6           0       -5.482456    6.591333    4.835961
    167          6           0       -4.730170    7.495715    5.556962
    168          6           0       -3.374932    7.576848    5.274967
    169          8           0       -2.468461    8.389046    5.857711
    170          6           0       -1.275717    8.132875    5.282386
    171          6           0       -0.058198    8.729712    5.575878
    172          6           0        1.046926    8.320441    4.858554
    173          6           0        0.966368    7.321180    3.870983
    174          6           0        2.149645    6.895488    3.130520
    175          6           0        2.278886    5.571367    2.682245
    176          6           0        3.349485    5.206771    1.900451
    177          7           0        4.311819    6.066506    1.542516
    178          6           0        4.244014    7.316855    2.011441
    179          6           0        3.201225    7.761621    2.799025
    180          6           0       -0.264385    6.725232    3.588172
    181          6           0       -1.385401    7.132832    4.287534
    182          6           0       -2.777053    6.763455    4.284061
    183          6           0       -3.542960    5.849361    3.584535
    184          6           0       -5.168452    3.563695    2.716967
    185          1           0       -5.479585    1.751505    1.612496
    186          1           0       -8.734736    4.295990    1.631396
    187          1           0       -7.547011    5.933443    3.042217
    188          1           0       -6.532735    6.495586    5.060543
    189          1           0       -5.173397    8.119113    6.316081
    190          1           0        0.014810    9.485894    6.340045
    191          1           0        2.005119    8.754217    5.092862
    192          1           0        1.547191    4.829124    2.958625
    193          1           0        3.454490    4.181123    1.549009
    194          1           0        5.056084    7.984804    1.735216
    195          1           0        3.188865    8.788705    3.127040
    196          1           0       -0.357109    5.983839    2.807895
    197          1           0       -3.091926    5.246034    2.810014
    198          1           0       -4.177716    3.279936    3.034683
    199          6           0       -5.855951    3.622281   -1.344303
    200          7           0       -7.184476    3.616515   -1.162996
    201          6           0       -7.865144    4.708335   -1.523606
    202          6           0       -7.251726    5.831363   -2.050669
    203          6           0       -5.862897    5.859386   -2.241029
    204          6           0       -5.124681    6.997205   -2.779567
    205          6           0       -5.729844    7.926265   -3.648976
    206          6           0       -5.023022    8.960311   -4.229583
    207          6           0       -3.670107    9.065220   -3.938183
    208          8           0       -2.783841    9.953061   -4.436809
    209          6           0       -1.573032    9.638994   -3.927683
    210          6           0       -0.355256   10.243286   -4.204877
    211          6           0        0.776717    9.709222   -3.619720
    212          6           0        0.722793    8.591715   -2.766696
    213          6           0        1.932213    7.975047   -2.232914
    214          6           0        1.948539    6.597071   -1.958235
    215          6           0        3.061804    6.011327   -1.411343
    216          7           0        4.186015    6.690958   -1.137640
    217          6           0        4.210798    7.995415   -1.426709
    218          6           0        3.123765    8.662563   -1.963688
    219          6           0       -0.516819    8.021600   -2.462004
    220          6           0       -1.657030    8.537062   -3.045711
    221          6           0       -3.044711    8.159409   -3.050035
    222          6           0       -3.769817    7.141180   -2.464188
    223          6           0       -5.177201    4.686294   -1.882038
    224          1           0       -5.309004    2.725463   -1.037793
    225          1           0       -8.940261    4.679221   -1.382624
    226          1           0       -7.858370    6.687793   -2.295867
    227          1           0       -6.768853    7.809097   -3.908439
    228          1           0       -5.497118    9.655023   -4.902593
    229          1           0       -0.296756   11.088836   -4.871014
    230          1           0        1.734339   10.141107   -3.865529
    231          1           0        1.093312    5.983608   -2.191212
    232          1           0        3.057142    4.943695   -1.175365
    233          1           0        5.135309    8.522212   -1.216684
    234          1           0        3.201244    9.721044   -2.151562
    235          1           0       -0.599221    7.203886   -1.762165
    236          1           0       -3.286187    6.488842   -1.753394
    237          1           0       -4.115640    4.598809   -2.042764
 ---------------------------------------------------------------------

 SCF Done:  E(RPBE1PBE) =  -6560.97322561     A.U. after   20 cycles

 The electronic state is 1-A.
 Alpha  occ. eigenvalues --  -19.30970 -19.30898 -19.30852 -19.30850 -19.30820
 Alpha  occ. eigenvalues --  -19.30804 -14.48505 -14.48497 -14.48407 -14.48398
 Alpha  occ. eigenvalues --  -14.48393 -14.48389 -14.48385 -14.48361 -14.48342
 Alpha  occ. eigenvalues --  -14.48028 -14.48009 -14.47973 -10.32711 -10.32670
 Alpha  occ. eigenvalues --  -10.32658 -10.32642 -10.32640 -10.32632 -10.32589
 Alpha  occ. eigenvalues --  -10.32569 -10.32555 -10.32551 -10.32544 -10.32496
 Alpha  occ. eigenvalues --  -10.31927 -10.31926 -10.31886 -10.31875 -10.31874
 Alpha  occ. eigenvalues --  -10.31872 -10.31851 -10.31849 -10.31838 -10.31831
 Alpha  occ. eigenvalues --  -10.31829 -10.31828 -10.31827 -10.31826 -10.31823
 Alpha  occ. eigenvalues --  -10.31816 -10.31814 -10.31808 -10.31799 -10.31785
 Alpha  occ. eigenvalues --  -10.31767 -10.31763 -10.31749 -10.31708 -10.30380
 Alpha  occ. eigenvalues --  -10.30360 -10.30357 -10.30351 -10.30323 -10.30301
 Alpha  occ. eigenvalues --  -10.30295 -10.30293 -10.30278 -10.30273 -10.30271
 Alpha  occ. eigenvalues --  -10.30263 -10.28156 -10.28134 -10.28130 -10.28124
 Alpha  occ. eigenvalues --  -10.28118 -10.28115 -10.28082 -10.28072 -10.28048
 Alpha  occ. eigenvalues --  -10.28044 -10.28003 -10.27970 -10.27968 -10.27964
 Alpha  occ. eigenvalues --  -10.27964 -10.27957 -10.27957 -10.27953 -10.27945
 Alpha  occ. eigenvalues --  -10.27937 -10.27930 -10.27925 -10.27922 -10.27896
 Alpha  occ. eigenvalues --  -10.27796 -10.27759 -10.27755 -10.27749 -10.27719
 Alpha  occ. eigenvalues --  -10.27715 -10.27714 -10.27653 -10.27647 -10.27644
 Alpha  occ. eigenvalues --  -10.27617 -10.27599 -10.27336 -10.27305 -10.27282
 Alpha  occ. eigenvalues --  -10.27282 -10.27264 -10.27262 -10.27254 -10.27251
 Alpha  occ. eigenvalues --  -10.27244 -10.27232 -10.27227 -10.27222 -10.27217
 Alpha  occ. eigenvalues --  -10.27207 -10.27193 -10.27192 -10.27184 -10.27180
 Alpha  occ. eigenvalues --  -10.27177 -10.27174 -10.27162 -10.27158 -10.27095
 Alpha  occ. eigenvalues --  -10.27074 -10.27058 -10.27018 -10.27013 -10.27007
 Alpha  occ. eigenvalues --  -10.26991 -10.26987 -10.26929 -10.26924 -10.26921
 Alpha  occ. eigenvalues --  -10.26911 -10.26901 -10.26881 -10.26773 -10.26766
 Alpha  occ. eigenvalues --  -10.26721 -10.26715 -10.26680 -10.26679 -10.26672
 Alpha  occ. eigenvalues --  -10.26662 -10.26646 -10.26640 -10.26614 -10.26607
 Alpha  occ. eigenvalues --   -3.57384  -3.57376  -3.57304  -2.25429  -2.25409
 Alpha  occ. eigenvalues --   -2.25361  -2.25005  -2.24994  -2.24911  -2.21118
 Alpha  occ. eigenvalues --   -2.21095  -2.21020  -1.17559  -1.17548  -1.17522
 Alpha  occ. eigenvalues --   -1.17520  -1.17516  -1.17506  -1.03835  -1.03822
 Alpha  occ. eigenvalues --   -1.03776  -1.03316  -1.03314  -1.03280  -1.02979
 Alpha  occ. eigenvalues --   -1.02969  -1.02923  -1.02825  -1.02806  -1.02773
 Alpha  occ. eigenvalues --   -0.92628  -0.92598  -0.92572  -0.92549  -0.92545
 Alpha  occ. eigenvalues --   -0.92506  -0.92070  -0.92065  -0.92046  -0.92036
 Alpha  occ. eigenvalues --   -0.92025  -0.92015  -0.88227  -0.88135  -0.88126
 Alpha  occ. eigenvalues --   -0.88049  -0.88035  -0.88015  -0.87790  -0.87782
 Alpha  occ. eigenvalues --   -0.87691  -0.87663  -0.87642  -0.87633  -0.83469
 Alpha  occ. eigenvalues --   -0.83451  -0.83437  -0.83412  -0.83399  -0.83380
 Alpha  occ. eigenvalues --   -0.83036  -0.82987  -0.82958  -0.82869  -0.82813
 Alpha  occ. eigenvalues --   -0.82803  -0.82789  -0.82758  -0.82697  -0.82660
 Alpha  occ. eigenvalues --   -0.82615  -0.82574  -0.81095  -0.81087  -0.81023
 Alpha  occ. eigenvalues --   -0.81020  -0.80998  -0.80990  -0.78996  -0.78936
 Alpha  occ. eigenvalues --   -0.78900  -0.78858  -0.78845  -0.78817  -0.77646
 Alpha  occ. eigenvalues --   -0.77638  -0.77629  -0.77624  -0.77622  -0.77614
 Alpha  occ. eigenvalues --   -0.71720  -0.71703  -0.71626  -0.71564  -0.71550
 Alpha  occ. eigenvalues --   -0.71542  -0.71497  -0.71481  -0.71447  -0.71410
 Alpha  occ. eigenvalues --   -0.71350  -0.71329  -0.70351  -0.70241  -0.70124
 Alpha  occ. eigenvalues --   -0.70047  -0.70021  -0.69882  -0.69810  -0.69762
 Alpha  occ. eigenvalues --   -0.69720  -0.69653  -0.69518  -0.69493  -0.67880
 Alpha  occ. eigenvalues --   -0.67812  -0.67769  -0.67723  -0.67705  -0.67671
 Alpha  occ. eigenvalues --   -0.65211  -0.65189  -0.65094  -0.65040  -0.65021
 Alpha  occ. eigenvalues --   -0.65012  -0.63931  -0.63885  -0.63794  -0.63762
 Alpha  occ. eigenvalues --   -0.63740  -0.63699  -0.62890  -0.62873  -0.62838
 Alpha  occ. eigenvalues --   -0.62831  -0.62819  -0.62789  -0.60831  -0.60422
 Alpha  occ. eigenvalues --   -0.60356  -0.59940  -0.59918  -0.59870  -0.59411
 Alpha  occ. eigenvalues --   -0.59358  -0.59114  -0.59037  -0.58996  -0.58905
 Alpha  occ. eigenvalues --   -0.58019  -0.57976  -0.57872  -0.57633  -0.57573
 Alpha  occ. eigenvalues --   -0.57475  -0.57183  -0.57154  -0.57089  -0.57066
 Alpha  occ. eigenvalues --   -0.57039  -0.57022  -0.55290  -0.55253  -0.55246
 Alpha  occ. eigenvalues --   -0.55228  -0.55206  -0.55188  -0.55013  -0.54501
 Alpha  occ. eigenvalues --   -0.54471  -0.54097  -0.54055  -0.53903  -0.53642
 Alpha  occ. eigenvalues --   -0.53545  -0.53449  -0.53386  -0.53316  -0.52961
 Alpha  occ. eigenvalues --   -0.52161  -0.51994  -0.51964  -0.51950  -0.51945
 Alpha  occ. eigenvalues --   -0.51911  -0.51895  -0.51892  -0.51890  -0.51876
 Alpha  occ. eigenvalues --   -0.51758  -0.51733  -0.51673  -0.51669  -0.51592
 Alpha  occ. eigenvalues --   -0.51554  -0.51365  -0.51322  -0.51205  -0.51133
 Alpha  occ. eigenvalues --   -0.50946  -0.50824  -0.50569  -0.50518  -0.50378
 Alpha  occ. eigenvalues --   -0.50205  -0.50189  -0.49213  -0.49160  -0.49133
 Alpha  occ. eigenvalues --   -0.49094  -0.49063  -0.49029  -0.49006  -0.48960
 Alpha  occ. eigenvalues --   -0.48946  -0.48898  -0.48819  -0.48665  -0.48659
 Alpha  occ. eigenvalues --   -0.48637  -0.48587  -0.48560  -0.48546  -0.48468
 Alpha  occ. eigenvalues --   -0.48384  -0.48265  -0.48229  -0.48137  -0.48070
 Alpha  occ. eigenvalues --   -0.48012  -0.47971  -0.47912  -0.47895  -0.47730
 Alpha  occ. eigenvalues --   -0.47707  -0.47669  -0.47637  -0.47572  -0.47463
 Alpha  occ. eigenvalues --   -0.47093  -0.47071  -0.46918  -0.46841  -0.46796
 Alpha  occ. eigenvalues --   -0.46755  -0.46668  -0.46623  -0.46366  -0.46306
 Alpha  occ. eigenvalues --   -0.46251  -0.46219  -0.46174  -0.45617  -0.45585
 Alpha  occ. eigenvalues --   -0.45296  -0.45288  -0.45022  -0.44095  -0.44056
 Alpha  occ. eigenvalues --   -0.44028  -0.43850  -0.43827  -0.43691  -0.43039
 Alpha  occ. eigenvalues --   -0.42849  -0.42779  -0.42741  -0.42733  -0.42719
 Alpha  occ. eigenvalues --   -0.42565  -0.42459  -0.42333  -0.42280  -0.42217
 Alpha  occ. eigenvalues --   -0.42145  -0.42087  -0.42031  -0.41941  -0.41905
 Alpha  occ. eigenvalues --   -0.41834  -0.41721  -0.41528  -0.41371  -0.41282
 Alpha  occ. eigenvalues --   -0.41247  -0.41210  -0.41171  -0.41127  -0.41069
 Alpha  occ. eigenvalues --   -0.40982  -0.40856  -0.40842  -0.40779  -0.40723
 Alpha  occ. eigenvalues --   -0.40690  -0.40632  -0.40574  -0.40414  -0.40403
 Alpha  occ. eigenvalues --   -0.38926  -0.38877  -0.38861  -0.38790  -0.38757
 Alpha  occ. eigenvalues --   -0.38690  -0.38661  -0.38548  -0.38516  -0.37502
 Alpha  occ. eigenvalues --   -0.37378  -0.37357  -0.37259  -0.37235  -0.37199
 Alpha  occ. eigenvalues --   -0.37121  -0.37100  -0.36905  -0.36862  -0.36788
 Alpha  occ. eigenvalues --   -0.36758  -0.36037  -0.35966  -0.35912  -0.35878
 Alpha  occ. eigenvalues --   -0.35749  -0.35614  -0.35396  -0.35379  -0.35291
 Alpha  occ. eigenvalues --   -0.34141  -0.34067  -0.34009  -0.33942  -0.33813
 Alpha  occ. eigenvalues --   -0.33681  -0.33513  -0.33349  -0.33223  -0.32656
 Alpha  occ. eigenvalues --   -0.32628  -0.32573  -0.32549  -0.32511  -0.32469
 Alpha  occ. eigenvalues --   -0.32451  -0.32387  -0.32063  -0.32029  -0.31934
 Alpha  occ. eigenvalues --   -0.31882  -0.31777  -0.31659  -0.31591  -0.31523
 Alpha  occ. eigenvalues --   -0.31502  -0.31400  -0.29544  -0.29470  -0.29459
 Alpha  occ. eigenvalues --   -0.29442  -0.29309  -0.29272  -0.29248  -0.29213
 Alpha  occ. eigenvalues --   -0.29156  -0.26476  -0.26458  -0.26436  -0.26397
 Alpha  occ. eigenvalues --   -0.26393  -0.26384  -0.26352  -0.26338  -0.26291
 Alpha  occ. eigenvalues --   -0.26282  -0.26268  -0.26208
 Alpha virt. eigenvalues --   -0.10496  -0.10412  -0.10286  -0.09687  -0.09496
 Alpha virt. eigenvalues --   -0.09346  -0.09048  -0.09009  -0.08909  -0.08836
 Alpha virt. eigenvalues --   -0.08495  -0.08359  -0.07209  -0.07016  -0.06950

 Mulliken charges:
               1
     1  Pd   0.491642
     2  Pd   0.496955
     3  Pd   0.492445
     4  C    0.130051
     5  N   -0.299369
     6  C    0.144735
     7  C   -0.019454
     8  C    0.043419
     9  C    0.016802
    10  C   -0.012447
    11  C   -0.070958
    12  C    0.211972
    13  O   -0.242922
    14  C    0.214540
    15  C   -0.068794
    16  C   -0.027218
    17  C    0.040834
    18  C    0.076904
    19  C   -0.043748
    20  C    0.129699
    21  N   -0.325484
    22  C    0.154603
    23  C   -0.050514
    24  C   -0.057052
    25  C    0.014204
    26  C    0.019657
    27  C   -0.048500
    28  C   -0.030005
    29  H    0.078971
    30  H    0.100854
    31  H    0.058541
    32  H    0.043830
    33  H    0.040143
    34  H    0.039708
    35  H    0.043178
    36  H    0.054307
    37  H    0.112770
    38  H    0.093504
    39  H    0.058424
    40  H    0.031876
    41  H    0.033420
    42  H    0.060008
    43  C    0.133783
    44  N   -0.325249
    45  C    0.153655
    46  C   -0.052235
    47  C    0.078324
    48  C    0.043450
    49  C   -0.028884
    50  C   -0.068611
    51  C    0.214516
    52  O   -0.243085
    53  C    0.211748
    54  C   -0.070478
    55  C   -0.012652
    56  C    0.016248
    57  C    0.042319
    58  C   -0.027950
    59  C    0.124607
    60  N   -0.300315
    61  C    0.143897
    62  C   -0.018068
    63  C   -0.046687
    64  C    0.019904
    65  C    0.014114
    66  C   -0.057786
    67  C   -0.043706
    68  H    0.111805
    69  H    0.093311
    70  H    0.058132
    71  H    0.042917
    72  H    0.039169
    73  H    0.040124
    74  H    0.043860
    75  H    0.060132
    76  H    0.083833
    77  H    0.101354
    78  H    0.058332
    79  H    0.033009
    80  H    0.032082
    81  H    0.053487
    82  C    0.135511
    83  N   -0.319289
    84  C    0.150399
    85  C   -0.043680
    86  C    0.066611
    87  C    0.036804
    88  C   -0.021651
    89  C   -0.072603
    90  C    0.219361
    91  O   -0.244176
    92  C    0.221555
    93  C   -0.070816
    94  C   -0.029282
    95  C    0.048462
    96  C    0.083338
    97  C   -0.048080
    98  C    0.127396
    99  N   -0.325614
   100  C    0.158274
   101  C   -0.054695
   102  C   -0.062535
   103  C    0.012912
   104  C    0.015517
   105  C   -0.059296
   106  C   -0.044172
   107  H    0.106122
   108  H    0.091688
   109  H    0.059054
   110  H    0.043845
   111  H    0.040560
   112  H    0.039790
   113  H    0.043703
   114  H    0.054940
   115  H    0.114609
   116  H    0.093021
   117  H    0.058465
   118  H    0.031246
   119  H    0.033358
   120  H    0.059301
   121  C    0.153656
   122  N   -0.314678
   123  C    0.156895
   124  C   -0.048158
   125  C    0.070960
   126  C    0.037946
   127  C   -0.029496
   128  C   -0.066484
   129  C    0.209844
   130  O   -0.241236
   131  C    0.208882
   132  C   -0.070906
   133  C   -0.006950
   134  C    0.010350
   135  C    0.037278
   136  C   -0.023509
   137  C    0.121923
   138  N   -0.302151
   139  C    0.144309
   140  C   -0.016686
   141  C   -0.046307
   142  C    0.019373
   143  C    0.014867
   144  C   -0.051241
   145  C   -0.054156
   146  H    0.095389
   147  H    0.096821
   148  H    0.058101
   149  H    0.044773
   150  H    0.038836
   151  H    0.039864
   152  H    0.043432
   153  H    0.059389
   154  H    0.083098
   155  H    0.102438
   156  H    0.058628
   157  H    0.033515
   158  H    0.030166
   159  H    0.056310
   160  C    0.139269
   161  N   -0.311664
   162  C    0.153677
   163  C   -0.035936
   164  C    0.059086
   165  C    0.026346
   166  C   -0.019611
   167  C   -0.070141
   168  C    0.212207
   169  O   -0.242874
   170  C    0.211928
   171  C   -0.069460
   172  C   -0.020926
   173  C    0.029650
   174  C    0.061811
   175  C   -0.046923
   176  C    0.146032
   177  N   -0.310802
   178  C    0.154472
   179  C   -0.039379
   180  C   -0.051484
   181  C    0.016030
   182  C    0.016893
   183  C   -0.051036
   184  C   -0.043091
   185  H    0.099388
   186  H    0.098301
   187  H    0.058622
   188  H    0.043901
   189  H    0.039911
   190  H    0.039763
   191  H    0.043656
   192  H    0.057549
   193  H    0.094750
   194  H    0.098529
   195  H    0.058767
   196  H    0.032082
   197  H    0.032343
   198  H    0.057748
   199  C    0.134224
   200  N   -0.324246
   201  C    0.155846
   202  C   -0.050709
   203  C    0.076119
   204  C    0.039011
   205  C   -0.023351
   206  C   -0.070472
   207  C    0.217101
   208  O   -0.244379
   209  C    0.215912
   210  C   -0.071468
   211  C   -0.021547
   212  C    0.035409
   213  C    0.070640
   214  C   -0.047139
   215  C    0.137711
   216  N   -0.322910
   217  C    0.154312
   218  C   -0.046946
   219  C   -0.056927
   220  C    0.015836
   221  C    0.014335
   222  C   -0.057825
   223  C   -0.048259
   224  H    0.105237
   225  H    0.092268
   226  H    0.059438
   227  H    0.043069
   228  H    0.039999
   229  H    0.040641
   230  H    0.043968
   231  H    0.057294
   232  H    0.103981
   233  H    0.092206
   234  H    0.059260
   235  H    0.033947
   236  H    0.033832
   237  H    0.056221
 Sum of Mulliken charges =   6.00000

 Dipole moment (field-independent basis, Debye):
    X=             -0.9744    Y=              0.9770    Z=              0.2044  Tot=              1.3949
 Quadrupole moment (field-independent basis, Debye-Ang):
   XX=            201.3816   YY=            117.1832   ZZ=           -712.7347
   XY=              1.8983   XZ=             -0.8691   YZ=              3.4452

 Normal termination of Gaussian 16 at Mon Jan  2 17:57:10 2023.
