 Gaussian 16, Revision C.01,
 Gaussian 16:  ES64L-G16RevC.01  3-Jul-2019

 ----------------------------------------------------------------------
 #P PBE1PBE/Def2SVP SP SCF=(YQC,MaxCycle=900) int=(Grid=Superfinegrid)
 EmpiricalDispersion=GD3BJ SCRF=(PCM,Solvent=DiMethylSulfoxide)
 ----------------------------------------------------------------------

 --------
 _s_4d2_d
 --------
 Symbolic Z-matrix:
 Charge =  4 Multiplicity = 1

                         Standard orientation:
 ---------------------------------------------------------------------
 Center     Atomic      Atomic             Coordinates (Angstroms)
 Number     Number       Type             X           Y           Z
 ---------------------------------------------------------------------
      1         46           0       -4.782884   -0.557697    0.391255
      2         46           0        4.822080   -0.137290   -0.499526
      3          6           0        2.847947   -4.267568    3.939666
      4          6           0        3.991920   -4.188502    3.553904
      5          6           0        5.361020   -4.187146    3.220768
      6          6           0        6.203857   -5.079136    3.861129
      7          6           0        7.574384   -5.106705    3.586059
      8          6           0        8.127215   -4.241117    2.675439
      9          6           0        7.310479   -3.315188    2.002133
     10          6           0        7.824250   -2.391854    1.063231
     11          6           0        6.985235   -1.513877    0.441775
     12          7           0        5.649471   -1.500920    0.690217
     13          6           0        5.131914   -2.346163    1.557743
     14          6           0        5.908895   -3.281990    2.262020
     15          1           0        5.792984   -5.764500    4.586551
     16          1           0        8.198995   -5.817869    4.104508
     17          1           0        9.185777   -4.258164    2.469222
     18          1           0        8.881200   -2.389726    0.849292
     19          1           0        7.359232   -0.776365   -0.273458
     20          1           0        4.059706   -2.306708    1.720410
     21          6           0        1.504998   -4.282974    4.376331
     22          6           0        1.169783   -4.816752    5.624408
     23          6           0       -0.146461   -4.785733    6.049040
     24          6           0       -1.134298   -4.223722    5.257379
     25          6           0       -0.814405   -3.686912    4.008172
     26          6           0        0.508957   -3.734526    3.572217
     27          1           0        1.937251   -5.244477    6.250946
     28          1           0       -0.404551   -5.196581    7.013294
     29          1           0       -2.145670   -4.176531    5.629169
     30          1           0        0.777990   -3.381654    2.590218
     31          6           0       -1.828216   -3.045750    3.165867
     32          6           0       -1.469064   -1.975509    2.333519
     33          6           0       -2.410812   -1.392430    1.518492
     34          7           0       -3.694352   -1.788981    1.522334
     35          6           0       -4.066952   -2.787361    2.322093
     36          6           0       -3.166556   -3.447081    3.140113
     37          1           0       -0.463115   -1.589243    2.349220
     38          1           0       -2.145761   -0.580937    0.832913
     39          1           0       -5.112238   -3.071361    2.293065
     40          1           0       -3.507341   -4.273127    3.742837
     41          6           0       -2.398091   -4.832299   -3.714261
     42          6           0       -3.581088   -4.654315   -3.535064
     43          6           0       -4.981183   -4.571186   -3.407893
     44          6           0       -5.771323   -5.392479   -4.193668
     45          6           0       -7.165416   -5.369951   -4.092455
     46          6           0       -7.792275   -4.533847   -3.202409
     47          6           0       -7.030140   -3.681182   -2.384330
     48          6           0       -7.620611   -2.802875   -1.447041
     49          6           0       -6.832842   -1.987485   -0.688824
     50          7           0       -5.478075   -1.987389   -0.805309
     51          6           0       -4.888186   -2.802743   -1.654827
     52          6           0       -5.607592   -3.684223   -2.481399
     53          1           0       -5.299668   -6.062253   -4.896403
     54          1           0       -7.747910   -6.024161   -4.722833
     55          1           0       -8.867726   -4.520908   -3.120299
     56          1           0       -8.693815   -2.785372   -1.343186
     57          1           0       -7.265051   -1.294576    0.039211
     58          1           0       -3.804366   -2.780346   -1.700307
     59          6           0       -1.008490   -5.048862   -3.835472
     60          6           0       -0.527936   -6.230127   -4.409171
     61          6           0        0.835269   -6.455332   -4.465904
     62          6           0        1.727402   -5.531079   -3.948777
     63          6           0        1.262593   -4.343170   -3.377656
     64          6           0       -0.110966   -4.105239   -3.342212
     65          1           0       -1.220928   -6.960882   -4.796865
     66          1           0        1.207166   -7.367962   -4.906411
     67          1           0        2.782276   -5.754661   -3.963261
     68          1           0       -0.501848   -3.175333   -2.961650
     69          6           0        2.186190   -3.378084   -2.775357
     70          6           0        3.504949   -3.212539   -3.208094
     71          6           0        4.330152   -2.303910   -2.570486
     72          7           0        3.903703   -1.552821   -1.557233
     73          6           0        2.635873   -1.678822   -1.132680
     74          6           0        1.766380   -2.579589   -1.701030
     75          1           0        3.888461   -3.775241   -4.043403
     76          1           0        5.361026   -2.174017   -2.876718
     77          1           0        2.326246   -1.023579   -0.310482
     78          1           0        0.769416   -2.682879   -1.306231
     79          6           0        0.738098    4.953543   -1.897759
     80          6           0        1.875660    4.696168   -2.221003
     81          6           0        3.167651    4.623217   -2.777212
     82          6           0        3.632675    5.749890   -3.437588
     83          6           0        4.864888    5.754374   -4.094889
     84          6           0        5.653708    4.631168   -4.106190
     85          6           0        5.234498    3.474318   -3.427370
     86          6           0        6.022863    2.302194   -3.390025
     87          6           0        5.611538    1.232399   -2.653783
     88          7           0        4.447520    1.246452   -1.942861
     89          6           0        3.655328    2.297812   -2.007882
     90          6           0        3.986009    3.455207   -2.736398
     91          1           0        3.018087    6.636584   -3.454631
     92          1           0        5.186990    6.649328   -4.604509
     93          1           0        6.598720    4.623216   -4.625744
     94          1           0        6.953536    2.273998   -3.934302
     95          1           0        6.198469    0.308711   -2.619236
     96          1           0        2.726413    2.247914   -1.452893
     97          6           0       -0.628245    5.211590   -1.656961
     98          6           0       -1.097881    6.528129   -1.618260
     99          6           0       -2.454878    6.766137   -1.504982
    100          6           0       -3.356116    5.716389   -1.445338
    101          6           0       -2.901846    4.396618   -1.474645
    102          6           0       -1.530342    4.156541   -1.558871
    103          1           0       -0.401863    7.349472   -1.688443
    104          1           0       -2.818512    7.782156   -1.482729
    105          1           0       -4.412527    5.929631   -1.411645
    106          1           0       -1.143710    3.150397   -1.553688
    107          6           0       -3.816654    3.254365   -1.408423
    108          6           0       -5.049083    3.299568   -0.749887
    109          6           0       -5.748518    2.127059   -0.526806
    110          7           0       -5.296664    0.936572   -0.925323
    111          6           0       -4.195714    0.898328   -1.702953
    112          6           0       -3.449037    2.023410   -1.973224
    113          1           0       -5.435690    4.226774   -0.360153
    114          1           0       -6.684437    2.127276    0.015909
    115          1           0       -3.944438   -0.061707   -2.156400
    116          1           0       -2.584594    1.946887   -2.612583
    117          6           0       -1.216975    4.891908    1.790017
    118          6           0       -2.337056    4.556592    2.102868
    119          6           0       -3.625649    4.373722    2.641716
    120          6           0       -4.202452    5.453948    3.290747
    121          6           0       -5.438543    5.344035    3.932051
    122          6           0       -6.117519    4.150933    3.942928
    123          6           0       -5.583357    3.035062    3.276360
    124          6           0       -6.249801    1.789172    3.244652
    125          6           0       -5.727786    0.759198    2.521907
    126          7           0       -4.570037    0.888583    1.813254
    127          6           0       -3.887683    2.014763    1.874057
    128          6           0       -4.332843    3.135193    2.596098
    129          1           0       -3.674269    6.394671    3.312278
    130          1           0       -5.850461    6.206854    4.432315
    131          1           0       -7.062607    4.056451    4.453848
    132          1           0       -7.175370    1.671393    3.785501
    133          1           0       -6.207473   -0.224480    2.497470
    134          1           0       -2.958001    2.058047    1.319785
    135          6           0        0.124039    5.262817    1.552669
    136          6           0        0.476716    6.615761    1.516005
    137          6           0        1.806857    6.972653    1.397433
    138          6           0        2.796083    6.006029    1.328390
    139          6           0        2.459653    4.651476    1.356261
    140          6           0        1.115111    4.290961    1.449353
    141          1           0       -0.288590    7.372498    1.590848
    142          1           0        2.079701    8.016691    1.376840
    143          1           0        3.829525    6.311120    1.288674
    144          1           0        0.820125    3.254151    1.443479
    145          6           0        3.473893    3.596982    1.278763
    146          6           0        3.232746    2.339737    1.853776
    147          6           0        4.080233    1.289361    1.579054
    148          7           0        5.160519    1.426304    0.783572
    149          6           0        5.491228    2.651954    0.372636
    150          6           0        4.687042    3.754197    0.602041
    151          1           0        2.388057    2.186841    2.506050
    152          1           0        3.932503    0.313740    2.045700
    153          1           0        6.414588    2.738752   -0.184834
    154          1           0        4.978699    4.711589    0.202691
 ---------------------------------------------------------------------

 SCF Done:  E(RPBE1PBE) =  -4073.27806040     a.u. after   15 cycles
 SCF Done:  E(RPBE1PBE) =  -4073.27810647     A.U. after   10 cycles

 The electronic state is 1-A.
 Alpha  occ. eigenvalues --  -14.49118 -14.49092 -14.49043 -14.48980 -14.48495
 Alpha  occ. eigenvalues --  -14.48493 -14.47235 -14.47125 -10.33024 -10.32978
 Alpha  occ. eigenvalues --  -10.32827 -10.32782 -10.32154 -10.32144 -10.32120
 Alpha  occ. eigenvalues --  -10.32093 -10.32036 -10.32008 -10.31847 -10.31824
 Alpha  occ. eigenvalues --  -10.31402 -10.31372 -10.31256 -10.31224 -10.30561
 Alpha  occ. eigenvalues --  -10.30553 -10.30412 -10.30372 -10.30168 -10.30148
 Alpha  occ. eigenvalues --  -10.30020 -10.29987 -10.29575 -10.29574 -10.29430
 Alpha  occ. eigenvalues --  -10.29426 -10.29400 -10.29396 -10.29280 -10.29251
 Alpha  occ. eigenvalues --  -10.28716 -10.28714 -10.28661 -10.28645 -10.28288
 Alpha  occ. eigenvalues --  -10.28251 -10.28242 -10.28232 -10.28231 -10.28192
 Alpha  occ. eigenvalues --  -10.28093 -10.28086 -10.28062 -10.28036 -10.27979
 Alpha  occ. eigenvalues --  -10.27941 -10.27941 -10.27909 -10.27879 -10.27876
 Alpha  occ. eigenvalues --  -10.27483 -10.27466 -10.27405 -10.27381 -10.27305
 Alpha  occ. eigenvalues --  -10.27282 -10.27195 -10.27176 -10.27146 -10.27132
 Alpha  occ. eigenvalues --  -10.27116 -10.27111 -10.27072 -10.27057 -10.26984
 Alpha  occ. eigenvalues --  -10.26961 -10.26721 -10.26715 -10.26713 -10.26712
 Alpha  occ. eigenvalues --  -10.26706 -10.26704 -10.26702 -10.26700 -10.26688
 Alpha  occ. eigenvalues --  -10.26684 -10.26681 -10.26670 -10.26350 -10.26324
 Alpha  occ. eigenvalues --  -10.26313 -10.26297 -10.26104 -10.26102 -10.26077
 Alpha  occ. eigenvalues --  -10.26073  -3.58197  -3.58175  -2.26196  -2.26151
 Alpha  occ. eigenvalues --   -2.25862  -2.25850  -2.22128  -2.22082  -1.04092
 Alpha  occ. eigenvalues --   -1.04051  -1.03533  -1.03497  -1.03484  -1.03427
 Alpha  occ. eigenvalues --   -1.02774  -1.02763  -0.93023  -0.92963  -0.92892
 Alpha  occ. eigenvalues --   -0.92874  -0.92590  -0.92567  -0.92548  -0.92450
 Alpha  occ. eigenvalues --   -0.88267  -0.88218  -0.88155  -0.88062  -0.86277
 Alpha  occ. eigenvalues --   -0.86260  -0.86170  -0.86143  -0.83414  -0.83371
 Alpha  occ. eigenvalues --   -0.83342  -0.83301  -0.83233  -0.83186  -0.83115
 Alpha  occ. eigenvalues --   -0.83042  -0.82918  -0.82891  -0.82869  -0.82756
 Alpha  occ. eigenvalues --   -0.81060  -0.80935  -0.80909  -0.80906  -0.79761
 Alpha  occ. eigenvalues --   -0.79732  -0.79676  -0.79580  -0.76395  -0.76378
 Alpha  occ. eigenvalues --   -0.76363  -0.76331  -0.71709  -0.71699  -0.71518
 Alpha  occ. eigenvalues --   -0.71508  -0.70929  -0.70846  -0.70544  -0.70537
 Alpha  occ. eigenvalues --   -0.70204  -0.70156  -0.69990  -0.69897  -0.69472
 Alpha  occ. eigenvalues --   -0.69437  -0.69369  -0.69264  -0.67920  -0.67898
 Alpha  occ. eigenvalues --   -0.67889  -0.67830  -0.65550  -0.65526  -0.65493
 Alpha  occ. eigenvalues --   -0.65471  -0.64234  -0.64212  -0.64184  -0.64074
 Alpha  occ. eigenvalues --   -0.61173  -0.60780  -0.60682  -0.60493  -0.60052
 Alpha  occ. eigenvalues --   -0.59558  -0.59485  -0.59270  -0.58585  -0.58548
 Alpha  occ. eigenvalues --   -0.58341  -0.58309  -0.57414  -0.57356  -0.56478
 Alpha  occ. eigenvalues --   -0.56407  -0.56345  -0.56286  -0.56040  -0.55972
 Alpha  occ. eigenvalues --   -0.55774  -0.55733  -0.55072  -0.55035  -0.53466
 Alpha  occ. eigenvalues --   -0.53355  -0.53243  -0.53195  -0.52804  -0.52590
 Alpha  occ. eigenvalues --   -0.52434  -0.52328  -0.51966  -0.51784  -0.51393
 Alpha  occ. eigenvalues --   -0.51185  -0.51004  -0.50864  -0.50761  -0.50691
 Alpha  occ. eigenvalues --   -0.50668  -0.50607  -0.50572  -0.50553  -0.50433
 Alpha  occ. eigenvalues --   -0.50367  -0.50157  -0.50143  -0.49939  -0.49814
 Alpha  occ. eigenvalues --   -0.49381  -0.49342  -0.48984  -0.48939  -0.48916
 Alpha  occ. eigenvalues --   -0.48830  -0.48677  -0.48634  -0.48578  -0.48549
 Alpha  occ. eigenvalues --   -0.48393  -0.48350  -0.47864  -0.47667  -0.47278
 Alpha  occ. eigenvalues --   -0.47219  -0.47031  -0.46962  -0.46621  -0.46576
 Alpha  occ. eigenvalues --   -0.46357  -0.46282  -0.46044  -0.46017  -0.44903
 Alpha  occ. eigenvalues --   -0.44558  -0.44545  -0.43985  -0.43903  -0.43882
 Alpha  occ. eigenvalues --   -0.43593  -0.43355  -0.42885  -0.42773  -0.42685
 Alpha  occ. eigenvalues --   -0.42591  -0.42400  -0.42328  -0.42186  -0.42104
 Alpha  occ. eigenvalues --   -0.42026  -0.41960  -0.41848  -0.41691  -0.40368
 Alpha  occ. eigenvalues --   -0.40346  -0.40165  -0.40136  -0.39863  -0.39857
 Alpha  occ. eigenvalues --   -0.39795  -0.39779  -0.39558  -0.39498  -0.39411
 Alpha  occ. eigenvalues --   -0.39120  -0.39042  -0.38941  -0.38705  -0.38406
 Alpha  occ. eigenvalues --   -0.38064  -0.37951  -0.37910  -0.37080  -0.37002
 Alpha  occ. eigenvalues --   -0.36950  -0.36433  -0.36342  -0.36012  -0.35830
 Alpha  occ. eigenvalues --   -0.35293  -0.34776  -0.34740  -0.34556  -0.34317
 Alpha  occ. eigenvalues --   -0.34313  -0.33583  -0.33455  -0.33314  -0.33153
 Alpha  occ. eigenvalues --   -0.32464  -0.32438  -0.32193  -0.32127  -0.31915
 Alpha  occ. eigenvalues --   -0.31857  -0.31660  -0.31599  -0.31296  -0.31253
 Alpha  occ. eigenvalues --   -0.31037  -0.30997  -0.29857  -0.29571  -0.29549
 Alpha  occ. eigenvalues --   -0.29486  -0.29196  -0.29101  -0.28880  -0.28723
 Alpha  occ. eigenvalues --   -0.28705  -0.28005  -0.25249  -0.25202  -0.25131
 Alpha  occ. eigenvalues --   -0.25114
 Alpha virt. eigenvalues --   -0.11525  -0.11348  -0.10882  -0.10813  -0.10394
 Alpha virt. eigenvalues --   -0.10383  -0.09180  -0.09078  -0.07871  -0.07573
 Alpha virt. eigenvalues --   -0.06577  -0.06487  -0.06418  -0.06250  -0.06034

 Mulliken charges:
               1
     1  Pd   0.440013
     2  Pd   0.448463
     3  C    0.018261
     4  C   -0.073432
     5  C   -0.010475
     6  C    0.005489
     7  C    0.016531
     8  C    0.007720
     9  C    0.030906
    10  C   -0.014765
    11  C    0.153171
    12  N   -0.327483
    13  C    0.176633
    14  C   -0.017080
    15  H    0.043233
    16  H    0.056836
    17  H    0.042791
    18  H    0.055057
    19  H    0.121707
    20  H    0.079285
    21  C   -0.072266
    22  C    0.028358
    23  C   -0.011786
    24  C   -0.012711
    25  C    0.035973
    26  C   -0.015695
    27  H    0.039483
    28  H    0.047359
    29  H    0.041276
    30  H    0.035198
    31  C    0.070943
    32  C   -0.041413
    33  C    0.160102
    34  N   -0.334028
    35  C    0.157841
    36  C   -0.041594
    37  H    0.059630
    38  H    0.117019
    39  H    0.102256
    40  H    0.061528
    41  C    0.015840
    42  C   -0.071964
    43  C   -0.010585
    44  C    0.004987
    45  C    0.016603
    46  C    0.007247
    47  C    0.031498
    48  C   -0.014567
    49  C    0.157516
    50  N   -0.333731
    51  C    0.181533
    52  C   -0.019387
    53  H    0.043116
    54  H    0.056671
    55  H    0.042642
    56  H    0.054973
    57  H    0.123408
    58  H    0.083759
    59  C   -0.071472
    60  C    0.028142
    61  C   -0.010619
    62  C   -0.016056
    63  C    0.039287
    64  C   -0.017137
    65  H    0.039785
    66  H    0.047285
    67  H    0.041795
    68  H    0.036794
    69  C    0.075465
    70  C   -0.046252
    71  C    0.161315
    72  N   -0.332815
    73  C    0.156028
    74  C   -0.041274
    75  H    0.062319
    76  H    0.094548
    77  H    0.121925
    78  H    0.057415
    79  C    0.048717
    80  C   -0.077284
    81  C   -0.029712
    82  C    0.006790
    83  C    0.017369
    84  C    0.010326
    85  C    0.013835
    86  C    0.003992
    87  C    0.124476
    88  N   -0.313752
    89  C    0.148084
    90  C    0.015718
    91  H    0.042454
    92  H    0.057229
    93  H    0.042708
    94  H    0.055424
    95  H    0.113100
    96  H    0.081786
    97  C   -0.074896
    98  C    0.034280
    99  C   -0.010631
   100  C   -0.015845
   101  C    0.057359
   102  C   -0.014729
   103  H    0.037164
   104  H    0.045477
   105  H    0.040897
   106  H    0.031361
   107  C    0.039848
   108  C   -0.033691
   109  C    0.136178
   110  N   -0.322242
   111  C    0.145813
   112  C   -0.020086
   113  H    0.062911
   114  H    0.094935
   115  H    0.102675
   116  H    0.062556
   117  C    0.049810
   118  C   -0.076779
   119  C   -0.027563
   120  C    0.006817
   121  C    0.017617
   122  C    0.009989
   123  C    0.015148
   124  C    0.003374
   125  C    0.123256
   126  N   -0.313005
   127  C    0.150038
   128  C    0.010245
   129  H    0.042583
   130  H    0.057387
   131  H    0.042728
   132  H    0.055148
   133  H    0.120687
   134  H    0.077064
   135  C   -0.076452
   136  C    0.033425
   137  C   -0.010306
   138  C   -0.016517
   139  C    0.057124
   140  C   -0.013260
   141  H    0.037237
   142  H    0.045440
   143  H    0.040889
   144  H    0.031033
   145  C    0.041416
   146  C   -0.018577
   147  C    0.147840
   148  N   -0.323350
   149  C    0.134151
   150  C   -0.034242
   151  H    0.062730
   152  H    0.100786
   153  H    0.096146
   154  H    0.062981
 Sum of Mulliken charges =   4.00000

 Dipole moment (field-independent basis, Debye):
    X=             -0.0601    Y=             -0.5827    Z=             -0.1284  Tot=              0.5997
 Quadrupole moment (field-independent basis, Debye-Ang):
   XX=            -15.4316   YY=           -272.6466   ZZ=           -426.2217
   XY=              3.2243   XZ=            -52.5705   YZ=             -1.6863

 Normal termination of Gaussian 16 at Fri Feb 26 14:29:28 2021.
