 Gaussian 16, Revision C.01,
 Gaussian 16:  ES64L-G16RevC.01  3-Jul-2019

 ----------------------------------------------------------------------
 #P PBE1PBE/Def2SVP SP SCF=(YQC,MaxCycle=900) int=(Grid=Superfinegrid)
 EmpiricalDispersion=GD3BJ SCRF=(PCM,Solvent=DiMethylSulfoxide)
 ----------------------------------------------------------------------

 --------
 _s_5d1_c
 --------
 Symbolic Z-matrix:
 Charge =  4 Multiplicity = 1

                         Standard orientation:
 ---------------------------------------------------------------------
 Center     Atomic      Atomic             Coordinates (Angstroms)
 Number     Number       Type             X           Y           Z
 ---------------------------------------------------------------------
      1         46           0        4.521551   -0.996786    0.001228
      2         46           0       -4.521936    0.996004    0.002499
      3          6           0        1.261550    4.388187    4.017013
      4          6           0        0.070043    4.544414    3.883030
      5          6           0       -1.303165    4.768060    3.661743
      6          6           0       -1.912621    5.919591    4.128842
      7          6           0       -3.259042    6.186616    3.853965
      8          6           0       -4.008371    5.324504    3.095701
      9          6           0       -3.426117    4.134996    2.607634
     10          6           0       -4.134203    3.223468    1.803192
     11          7           0       -3.600728    2.104430    1.361074
     12          6           0       -2.325251    1.778604    1.691968
     13          6           0       -1.542905    2.610167    2.440972
     14          6           0       -2.067264    3.832470    2.909244
     15          1           0       -1.337304    6.625523    4.708403
     16          1           0       -3.700332    7.093360    4.238200
     17          1           0       -5.039334    5.544923    2.869324
     18          1           0       -5.162421    3.431371    1.516947
     19          1           0       -1.976782    0.816352    1.322371
     20          1           0       -0.525921    2.351240    2.688445
     21          6           0        2.661766    4.239245    4.110248
     22          6           0        3.438733    5.261123    4.662860
     23          6           0        4.814494    5.131860    4.694949
     24          6           0        5.428056    4.001305    4.182273
     25          6           0        4.663846    2.968018    3.636083
     26          6           0        3.278150    3.092657    3.609055
     27          1           0        2.962530    6.146231    5.055972
     28          1           0        5.417231    5.921992    5.116746
     29          1           0        6.504971    3.938333    4.185509
     30          1           0        2.662949    2.293530    3.228014
     31          6           0        5.323280    1.773801    3.085203
     32          6           0        6.487585    1.250279    3.656929
     33          6           0        7.092796    0.140558    3.091180
     34          6           0        6.517283   -0.444045    1.976200
     35          7           0        5.395778    0.041344    1.440190
     36          6           0        4.814155    1.120123    1.963717
     37          1           0        6.904733    1.700599    4.543852
     38          1           0        7.994767   -0.269677    3.515656
     39          1           0        6.954852   -1.316569    1.495207
     40          1           0        3.924541    1.480869    1.451410
     41          6           0        1.254873    4.383658   -4.020225
     42          6           0        0.060553    4.529126   -3.900755
     43          6           0       -1.317045    4.741149   -3.695270
     44          6           0       -1.934956    5.878381   -4.185540
     45          6           0       -3.286451    6.134946   -3.926221
     46          6           0       -4.032642    5.277108   -3.160060
     47          6           0       -3.441656    4.101901   -2.648372
     48          6           0       -4.146229    3.196186   -1.834309
     49          7           0       -3.604801    2.089586   -1.370741
     50          6           0       -2.323890    1.771502   -1.687922
     51          6           0       -1.544309    2.599508   -2.443739
     52          6           0       -2.077521    3.808962   -2.934634
     53          1           0       -1.362299    6.581380   -4.771328
     54          1           0       -3.734251    7.030539   -4.328653
     55          1           0       -5.067719    5.490068   -2.945514
     56          1           0       -5.178518    3.398156   -1.558569
     57          1           0       -1.968686    0.818408   -1.301263
     58          1           0       -0.522901    2.347500   -2.679397
     59          6           0        2.657549    4.248321   -4.096784
     60          6           0        3.431330    5.281241   -4.633014
     61          6           0        4.808569    5.165557   -4.648726
     62          6           0        5.426583    4.037483   -4.135996
     63          6           0        4.665821    2.993240   -3.606306
     64          6           0        3.278749    3.104412   -3.595374
     65          1           0        2.951327    6.164276   -5.026230
     66          1           0        5.408826    5.964275   -5.057706
     67          1           0        6.504107    3.984738   -4.126368
     68          1           0        2.666630    2.296637   -3.227627
     69          6           0        5.329889    1.801311   -3.056128
     70          6           0        6.504869    1.292165   -3.618689
     71          6           0        7.113791    0.183770   -3.054339
     72          6           0        6.531536   -0.413571   -1.949739
     73          7           0        5.400241    0.058403   -1.422260
     74          6           0        4.814609    1.135520   -1.944598
     75          1           0        6.927584    1.752429   -4.498000
     76          1           0        8.023704   -0.215631   -3.472064
     77          1           0        6.971559   -1.285694   -1.470119
     78          1           0        3.916220    1.484711   -1.439643
     79          6           0       -1.255495   -4.381992   -4.022974
     80          6           0       -0.061196   -4.527962   -3.903285
     81          6           0        1.316311   -4.740229   -3.697677
     82          6           0        1.933959   -5.877543   -4.188134
     83          6           0        3.285379   -6.134419   -3.928704
     84          6           0        4.031698   -5.276872   -3.162263
     85          6           0        3.440910   -4.101780   -2.650260
     86          6           0        4.145547   -3.196246   -1.836020
     87          7           0        3.604166   -2.089804   -1.372154
     88          6           0        2.323337   -1.771441   -1.689307
     89          6           0        1.543757   -2.599113   -2.445359
     90          6           0        2.076782   -3.808514   -2.936608
     91          1           0        1.361428   -6.580329   -4.774192
     92          1           0        3.733095   -7.029932   -4.331256
     93          1           0        5.066689   -5.490052   -2.947595
     94          1           0        5.177723   -3.398443   -1.560307
     95          1           0        1.968218   -0.818511   -1.302270
     96          1           0        0.522268   -2.346921   -2.681023
     97          6           0       -2.658133   -4.246368   -4.099722
     98          6           0       -3.432045   -5.278560   -4.637287
     99          6           0       -4.809194   -5.162615   -4.653072
    100          6           0       -5.427103   -4.035092   -4.139142
    101          6           0       -4.666241   -2.991407   -3.608127
    102          6           0       -3.279207   -3.102936   -3.597193
    103          1           0       -2.952045   -6.161142   -5.031426
    104          1           0       -5.409522   -5.960796   -5.063011
    105          1           0       -6.504640   -3.982177   -4.129655
    106          1           0       -2.667121   -2.295629   -3.228333
    107          6           0       -5.330328   -1.800055   -3.056898
    108          6           0       -6.505200   -1.290273   -3.619176
    109          6           0       -7.113941   -0.182260   -3.053952
    110          6           0       -6.531785    0.414042   -1.948653
    111          7           0       -5.400691   -0.058584   -1.421433
    112          6           0       -4.815139   -1.135325   -1.944586
    113          1           0       -6.927701   -1.749554   -4.498967
    114          1           0       -8.023871    0.217552   -3.471359
    115          1           0       -6.971828    1.285659   -1.468284
    116          1           0       -3.916908   -1.485098   -1.439789
    117          6           0       -1.260270   -4.388339    4.018352
    118          6           0       -0.068851   -4.544573    3.884433
    119          6           0        1.304343   -4.768319    3.662632
    120          6           0        1.914066   -5.919603    4.129832
    121          6           0        3.260332   -6.186772    3.854251
    122          6           0        4.009126   -5.324946    3.095065
    123          6           0        3.426561   -4.135683    2.606933
    124          6           0        4.134282   -3.224382    1.801834
    125          7           0        3.600492   -2.105399    1.359701
    126          6           0        2.325306   -1.779414    1.691305
    127          6           0        1.543447   -2.610773    2.440995
    128          6           0        2.068030   -3.832980    2.909285
    129          1           0        1.339111   -6.625364    4.709929
    130          1           0        3.701788   -7.093301    4.238549
    131          1           0        5.039985   -5.545589    2.868092
    132          1           0        5.162256   -3.432399    1.514976
    133          1           0        1.976681   -0.817283    1.321532
    134          1           0        0.526560   -2.351830    2.688983
    135          6           0       -2.660558   -4.239678    4.111762
    136          6           0       -3.437207   -5.261595    4.664589
    137          6           0       -4.813023   -5.132601    4.696625
    138          6           0       -5.426781   -4.002359    4.183763
    139          6           0       -4.662889   -2.968900    3.637327
    140          6           0       -3.277189   -3.093250    3.610355
    141          1           0       -2.960728   -6.146419    5.057915
    142          1           0       -5.415589   -5.922878    5.118523
    143          1           0       -6.503782   -3.939627    4.186966
    144          1           0       -2.662201   -2.294073    3.229239
    145          6           0       -5.322688   -1.775022    3.086374
    146          6           0       -6.487219   -1.251860    3.657970
    147          6           0       -7.092788   -0.142427    3.092158
    148          6           0       -6.517532    0.442274    1.977135
    149          7           0       -5.395754   -0.042735    1.441239
    150          6           0       -4.813772   -1.121172    1.964833
    151          1           0       -6.904148   -1.702210    4.545014
    152          1           0       -7.995029    0.267459    3.516630
    153          1           0       -6.955356    1.314662    1.496157
    154          1           0       -3.923927   -1.481625    1.452586
 ---------------------------------------------------------------------

 SCF Done:  E(RPBE1PBE) =  -4073.35246789     a.u. after   44 cycles
 SCF Done:  E(RPBE1PBE) =  -4073.35264932     A.U. after    9 cycles

 The electronic state is 1-A.
 Alpha  occ. eigenvalues --  -14.48763 -14.48763 -14.48758 -14.48758 -14.48637
 Alpha  occ. eigenvalues --  -14.48637 -14.48629 -14.48629 -10.32644 -10.32643
 Alpha  occ. eigenvalues --  -10.32642 -10.32641 -10.32016 -10.32015 -10.32013
 Alpha  occ. eigenvalues --  -10.32013 -10.31751 -10.31750 -10.31748 -10.31748
 Alpha  occ. eigenvalues --  -10.31339 -10.31338 -10.31334 -10.31333 -10.29616
 Alpha  occ. eigenvalues --  -10.29616 -10.29615 -10.29615 -10.29480 -10.29479
 Alpha  occ. eigenvalues --  -10.29479 -10.29479 -10.29379 -10.29378 -10.29378
 Alpha  occ. eigenvalues --  -10.29378 -10.29009 -10.29008 -10.29008 -10.29007
 Alpha  occ. eigenvalues --  -10.28883 -10.28883 -10.28883 -10.28882 -10.28480
 Alpha  occ. eigenvalues --  -10.28480 -10.28480 -10.28480 -10.28082 -10.28082
 Alpha  occ. eigenvalues --  -10.28079 -10.28079 -10.28033 -10.28032 -10.28031
 Alpha  occ. eigenvalues --  -10.28031 -10.27764 -10.27764 -10.27764 -10.27763
 Alpha  occ. eigenvalues --  -10.27679 -10.27678 -10.27677 -10.27677 -10.27481
 Alpha  occ. eigenvalues --  -10.27481 -10.27481 -10.27480 -10.26906 -10.26906
 Alpha  occ. eigenvalues --  -10.26905 -10.26905 -10.26831 -10.26830 -10.26830
 Alpha  occ. eigenvalues --  -10.26830 -10.26387 -10.26386 -10.26385 -10.26385
 Alpha  occ. eigenvalues --  -10.26353 -10.26353 -10.26353 -10.26352 -10.26324
 Alpha  occ. eigenvalues --  -10.26324 -10.26324 -10.26323 -10.26074 -10.26073
 Alpha  occ. eigenvalues --  -10.26072 -10.26072 -10.25868 -10.25868 -10.25868
 Alpha  occ. eigenvalues --  -10.25867  -3.57504  -3.57504  -2.25427  -2.25426
 Alpha  occ. eigenvalues --   -2.25409  -2.25409  -2.21225  -2.21225  -1.04230
 Alpha  occ. eigenvalues --   -1.04230  -1.03540  -1.03538  -1.03480  -1.03479
 Alpha  occ. eigenvalues --   -1.03291  -1.03290  -0.92965  -0.92953  -0.92895
 Alpha  occ. eigenvalues --   -0.92894  -0.92200  -0.92181  -0.92179  -0.92176
 Alpha  occ. eigenvalues --   -0.87785  -0.87764  -0.87690  -0.87684  -0.85703
 Alpha  occ. eigenvalues --   -0.85692  -0.85622  -0.85614  -0.84472  -0.84373
 Alpha  occ. eigenvalues --   -0.84361  -0.84301  -0.83988  -0.83918  -0.83858
 Alpha  occ. eigenvalues --   -0.83843  -0.82357  -0.82333  -0.82291  -0.82220
 Alpha  occ. eigenvalues --   -0.80788  -0.80751  -0.80647  -0.80604  -0.78969
 Alpha  occ. eigenvalues --   -0.78961  -0.78908  -0.78897  -0.76201  -0.76181
 Alpha  occ. eigenvalues --   -0.76168  -0.76147  -0.71651  -0.71628  -0.71384
 Alpha  occ. eigenvalues --   -0.71305  -0.70755  -0.70740  -0.70575  -0.70511
 Alpha  occ. eigenvalues --   -0.69865  -0.69740  -0.69719  -0.69663  -0.69277
 Alpha  occ. eigenvalues --   -0.69229  -0.69120  -0.69086  -0.67907  -0.67887
 Alpha  occ. eigenvalues --   -0.67841  -0.67836  -0.65271  -0.65218  -0.65204
 Alpha  occ. eigenvalues --   -0.65187  -0.64566  -0.64514  -0.64466  -0.64425
 Alpha  occ. eigenvalues --   -0.61349  -0.60766  -0.60595  -0.60457  -0.60302
 Alpha  occ. eigenvalues --   -0.59781  -0.59523  -0.59493  -0.58518  -0.58510
 Alpha  occ. eigenvalues --   -0.58133  -0.58116  -0.56983  -0.56878  -0.56820
 Alpha  occ. eigenvalues --   -0.56724  -0.56684  -0.56464  -0.56407  -0.56211
 Alpha  occ. eigenvalues --   -0.55751  -0.55746  -0.55686  -0.55661  -0.53101
 Alpha  occ. eigenvalues --   -0.53078  -0.52749  -0.52653  -0.52378  -0.52363
 Alpha  occ. eigenvalues --   -0.52011  -0.51956  -0.51904  -0.51819  -0.51743
 Alpha  occ. eigenvalues --   -0.51678  -0.51633  -0.51483  -0.50541  -0.50526
 Alpha  occ. eigenvalues --   -0.50440  -0.50399  -0.50196  -0.50115  -0.50042
 Alpha  occ. eigenvalues --   -0.50022  -0.49833  -0.49727  -0.49723  -0.49627
 Alpha  occ. eigenvalues --   -0.49177  -0.49041  -0.49038  -0.48950  -0.48756
 Alpha  occ. eigenvalues --   -0.48729  -0.48690  -0.48665  -0.48297  -0.48255
 Alpha  occ. eigenvalues --   -0.48057  -0.47981  -0.47917  -0.47863  -0.47447
 Alpha  occ. eigenvalues --   -0.47395  -0.47052  -0.47043  -0.46537  -0.46512
 Alpha  occ. eigenvalues --   -0.46405  -0.46386  -0.45180  -0.45171  -0.44789
 Alpha  occ. eigenvalues --   -0.44778  -0.44158  -0.43921  -0.43510  -0.43481
 Alpha  occ. eigenvalues --   -0.43435  -0.43415  -0.43307  -0.43226  -0.43213
 Alpha  occ. eigenvalues --   -0.43019  -0.42661  -0.42643  -0.42602  -0.42224
 Alpha  occ. eigenvalues --   -0.42081  -0.41721  -0.40964  -0.40791  -0.40776
 Alpha  occ. eigenvalues --   -0.40666  -0.39905  -0.39873  -0.39829  -0.39772
 Alpha  occ. eigenvalues --   -0.39519  -0.39500  -0.39452  -0.39408  -0.39379
 Alpha  occ. eigenvalues --   -0.39373  -0.39162  -0.38950  -0.38615  -0.38153
 Alpha  occ. eigenvalues --   -0.37733  -0.37453  -0.37298  -0.36980  -0.36706
 Alpha  occ. eigenvalues --   -0.36538  -0.36400  -0.36380  -0.35375  -0.35032
 Alpha  occ. eigenvalues --   -0.35026  -0.34503  -0.34317  -0.34291  -0.34278
 Alpha  occ. eigenvalues --   -0.34079  -0.34003  -0.33901  -0.33832  -0.32996
 Alpha  occ. eigenvalues --   -0.32709  -0.32688  -0.32640  -0.32354  -0.31681
 Alpha  occ. eigenvalues --   -0.31656  -0.31343  -0.31334  -0.31221  -0.31213
 Alpha  occ. eigenvalues --   -0.31047  -0.30995  -0.29775  -0.29768  -0.29428
 Alpha  occ. eigenvalues --   -0.29418  -0.29024  -0.29022  -0.28264  -0.28213
 Alpha  occ. eigenvalues --   -0.28201  -0.28069  -0.25026  -0.24989  -0.24892
 Alpha  occ. eigenvalues --   -0.24827
 Alpha virt. eigenvalues --   -0.10408  -0.10407  -0.09939  -0.09853  -0.08165
 Alpha virt. eigenvalues --   -0.08066  -0.07962  -0.07765  -0.07367  -0.07216
 Alpha virt. eigenvalues --   -0.07196  -0.06902  -0.06867  -0.06754  -0.06267

 Mulliken charges:
               1
     1  Pd   0.487737
     2  Pd   0.487702
     3  C    0.010438
     4  C   -0.064625
     5  C   -0.022848
     6  C    0.020666
     7  C   -0.001091
     8  C    0.021312
     9  C   -0.060050
    10  C    0.179636
    11  N   -0.324128
    12  C    0.152636
    13  C   -0.012755
    14  C    0.071665
    15  H    0.044654
    16  H    0.055169
    17  H    0.044703
    18  H    0.089516
    19  H    0.091750
    20  H    0.049490
    21  C   -0.070883
    22  C    0.019962
    23  C   -0.011153
    24  C   -0.022160
    25  C    0.037709
    26  C   -0.017078
    27  H    0.036749
    28  H    0.045323
    29  H    0.039705
    30  H    0.033445
    31  C   -0.030059
    32  C    0.061951
    33  C   -0.030280
    34  C    0.148446
    35  N   -0.309080
    36  C    0.151335
    37  H    0.063234
    38  H    0.067808
    39  H    0.106053
    40  H    0.088836
    41  C    0.010512
    42  C   -0.064627
    43  C   -0.022883
    44  C    0.020652
    45  C   -0.001099
    46  C    0.021294
    47  C   -0.060054
    48  C    0.179724
    49  N   -0.324198
    50  C    0.153081
    51  C   -0.012662
    52  C    0.071652
    53  H    0.044651
    54  H    0.055169
    55  H    0.044731
    56  H    0.089269
    57  H    0.091592
    58  H    0.049396
    59  C   -0.070995
    60  C    0.019933
    61  C   -0.011138
    62  C   -0.022189
    63  C    0.037541
    64  C   -0.016978
    65  H    0.036752
    66  H    0.045327
    67  H    0.039779
    68  H    0.033538
    69  C   -0.030199
    70  C    0.061973
    71  C   -0.030183
    72  C    0.148091
    73  N   -0.308941
    74  C    0.151373
    75  H    0.063315
    76  H    0.067795
    77  H    0.106273
    78  H    0.088981
    79  C    0.010471
    80  C   -0.064584
    81  C   -0.022875
    82  C    0.020693
    83  C   -0.001083
    84  C    0.021272
    85  C   -0.060060
    86  C    0.179796
    87  N   -0.324167
    88  C    0.153101
    89  C   -0.012729
    90  C    0.071646
    91  H    0.044628
    92  H    0.055138
    93  H    0.044713
    94  H    0.089227
    95  H    0.091555
    96  H    0.049472
    97  C   -0.071008
    98  C    0.019998
    99  C   -0.011115
   100  C   -0.022175
   101  C    0.037450
   102  C   -0.016982
   103  H    0.036726
   104  H    0.045326
   105  H    0.039792
   106  H    0.033522
   107  C   -0.030237
   108  C    0.062064
   109  C   -0.030210
   110  C    0.148087
   111  N   -0.308888
   112  C    0.151398
   113  H    0.063256
   114  H    0.067821
   115  H    0.106234
   116  H    0.088992
   117  C    0.010465
   118  C   -0.064679
   119  C   -0.022783
   120  C    0.020629
   121  C   -0.001059
   122  C    0.021223
   123  C   -0.060018
   124  C    0.179691
   125  N   -0.324159
   126  C    0.152658
   127  C   -0.012767
   128  C    0.071662
   129  H    0.044639
   130  H    0.055120
   131  H    0.044747
   132  H    0.089484
   133  H    0.091757
   134  H    0.049505
   135  C   -0.070866
   136  C    0.019967
   137  C   -0.011160
   138  C   -0.022187
   139  C    0.037703
   140  C   -0.017039
   141  H    0.036731
   142  H    0.045345
   143  H    0.039739
   144  H    0.033405
   145  C   -0.030076
   146  C    0.061919
   147  C   -0.030323
   148  C    0.148466
   149  N   -0.309042
   150  C    0.151304
   151  H    0.063248
   152  H    0.067860
   153  H    0.106046
   154  H    0.088891
 Sum of Mulliken charges =   4.00000

 Dipole moment (field-independent basis, Debye):
    X=              0.0001    Y=             -0.0022    Z=              0.0148  Tot=              0.0150
 Quadrupole moment (field-independent basis, Debye-Ang):
   XX=             -4.6843   YY=           -315.9693   ZZ=           -409.4723
   XY=            -72.2691   XZ=             -0.0208   YZ=              0.0055

 Normal termination of Gaussian 16 at Fri Feb 26 15:34:07 2021.
