 Gaussian 16, Revision C.01,
 Gaussian 16:  ES64L-G16RevC.01  3-Jul-2019

 --------------------------------------
 # SP B97D3/def2svp scrf=(solvent=dmso)
 --------------------------------------

 -----
 m2_lb
 -----
 Symbolic Z-matrix:
 Charge =  4 Multiplicity = 1

                         Standard orientation:
 ---------------------------------------------------------------------
 Center     Atomic      Atomic             Coordinates (Angstroms)
 Number     Number       Type             X           Y           Z
 ---------------------------------------------------------------------
      1          6           0       -8.107982   -1.731987    2.321169
      2          6           0       -7.931476   -2.331865    3.540299
      3          6           0       -6.880739   -1.916832    4.396301
      4          6           0       -6.594231   -2.542217    5.632269
      5          6           0       -5.519822   -2.110831    6.378026
      6          6           0       -4.720269   -1.025061    5.952938
      7          6           0       -4.988560   -0.355697    4.775302
      8          6           0       -6.063468   -0.830727    3.960794
      9          6           0       -6.312315   -0.296683    2.682449
     10          6           0       -4.198281    0.826086    4.360078
     11          6           0       -2.821954    0.718205    4.126671
     12          6           0       -2.084258    1.820285    3.714472
     13          6           0       -2.711859    3.064040    3.525741
     14          6           0       -4.088002    3.181911    3.789771
     15          6           0       -4.820098    2.074327    4.196058
     16          6           0       -1.979062    4.166724    2.999598
     17          6           0       -1.364150    5.062087    2.448892
     18          6           0       -0.646887    5.980181    1.614433
     19          6           0       -0.662965    7.368447    1.821517
     20          6           0        0.029763    8.174211    0.922529
     21          6           0        0.712040    7.588719   -0.139998
     22          6           0        0.675354    6.190629   -0.260279
     23          6           0        1.385985    5.480881   -1.282291
     24          6           0        1.998781    4.730970   -2.020620
     25          6           0        2.730247    3.772804   -2.779848
     26          6           0        4.104211    3.950838   -3.020848
     27          6           0        4.836555    2.959993   -3.661035
     28          6           0        4.216815    1.773927   -4.086289
     29          6           0        2.842068    1.613253   -3.875151
     30          6           0        2.104155    2.597405   -3.230389
     31          6           0        5.008435    0.709953   -4.746089
     32          6           0        4.747599    0.314959   -6.043242
     33          6           0        5.549063   -0.653816   -6.689969
     34          6           0        6.617875   -1.240303   -6.049490
     35          6           0        6.896483   -0.900660   -4.704989
     36          6           0        7.941521   -1.494231   -3.953775
     37          6           0        8.110248   -1.175876   -2.631917
     38          6           0        6.317618    0.307201   -2.682019
     39          6           0        6.077001    0.065673   -4.047857
     40          6           0       -8.123099    2.313241    1.725343
     41          6           0       -7.954276    3.533438    2.325381
     42          6           0       -6.905056    4.393549    1.914689
     43          6           0       -6.626894    5.631212    2.540479
     44          6           0       -5.553797    6.381412    2.113574
     45          6           0       -4.747731    5.959324    1.031468
     46          6           0       -5.008237    4.780587    0.360916
     47          6           0       -6.081261    3.961181    0.832178
     48          6           0       -6.322187    2.681246    0.298112
     49          6           0       -4.211535    4.369133   -0.817812
     50          6           0       -2.833337    4.148266   -0.706173
     51          6           0       -2.089586    3.737214   -1.804655
     52          6           0       -2.712974    3.537726   -3.048843
     53          6           0       -4.090708    3.791249   -3.171207
     54          6           0       -4.828788    4.196035   -2.067147
     55          6           0       -1.975481    3.011305   -4.148286
     56          6           0       -1.359750    2.460292   -5.042889
     57          6           0       -0.641564    1.626519   -5.960870
     58          6           0       -0.655753    1.835662   -7.348882
     59          6           0        0.036844    0.936993   -8.155208
     60          6           0        0.717413   -0.126860   -7.570287
     61          6           0        0.678619   -0.249354   -6.172464
     62          6           0        1.386198   -1.273974   -5.463422
     63          6           0        1.995884   -2.015240   -4.713847
     64          6           0        2.727084   -2.777983   -3.758300
     65          6           0        2.100357   -3.238398   -2.587143
     66          6           0        2.838950   -3.885875   -1.605239
     67          6           0        4.215040   -4.089587   -1.763768
     68          6           0        4.835404   -3.654664   -2.946043
     69          6           0        4.102413   -3.012260   -3.934828
     70          6           0        5.008310   -4.750896   -0.702097
     71          6           0        4.748191   -6.048192   -0.307259
     72          6           0        5.551830   -6.695553    0.659393
     73          6           0        6.622794   -6.056005    1.243106
     74          6           0        6.901279   -4.711483    0.903168
     75          6           0        7.949295   -3.961114    1.492881
     76          6           0        8.117029   -2.639024    1.174959
     77          6           0        6.317562   -2.687254   -0.299690
     78          6           0        6.078656   -4.053521   -0.059819
     79          6           0       -8.127247    1.721400   -2.314164
     80          6           0       -7.955124    2.325169   -3.532029
     81          6           0       -6.902635    1.918257   -4.390013
     82          6           0       -6.621378    2.548325   -5.624759
     83          6           0       -5.545718    2.124537   -6.373131
     84          6           0       -4.740340    1.041331   -5.952454
     85          6           0       -5.003879    0.366739   -4.776662
     86          6           0       -6.079331    0.835012   -3.958742
     87          6           0       -6.323701    0.297075   -2.681070
     88          6           0       -4.208905   -0.813809   -4.367116
     89          6           0       -4.828121   -2.062865   -4.198763
     90          6           0       -4.092318   -3.169149   -3.795986
     91          6           0       -2.714835   -3.049336   -3.539654
     92          6           0       -2.089452   -1.805348   -3.734136
     93          6           0       -2.830946   -0.704574   -4.143269
     94          6           0       -1.980080   -4.151230   -3.014598
     95          6           0       -1.367554   -5.047900   -2.463309
     96          6           0       -0.655893   -5.968328   -1.626677
     97          6           0       -0.681719   -7.357041   -1.830231
     98          6           0        0.003909   -8.165441   -0.928199
     99          6           0        0.688919   -7.582000    0.133668
    100          6           0        0.661365   -6.183485    0.250891
    101          6           0        1.372731   -5.475939    1.274060
    102          6           0        1.984814   -4.727085    2.014055
    103          6           0        2.716605   -3.770609    2.775186
    104          6           0        2.088154   -2.601540    3.238671
    105          6           0        2.825898   -1.618461    3.885210
    106          6           0        4.203060   -1.773346    4.084750
    107          6           0        4.825421   -2.953200    3.645956
    108          6           0        4.093160   -3.943459    3.004903
    109          6           0        4.994129   -0.710985    4.747408
    110          6           0        4.729665   -0.316232    6.043972
    111          6           0        5.530535    0.650725    6.694150
    112          6           0        6.603441    1.234887    6.058260
    113          6           0        6.886566    0.894990    4.714753
    114          6           0        7.937381    1.484993    3.968592
    115          6           0        8.111001    1.166835    2.647309
    116          6           0        6.310681   -0.307294    2.688110
    117          6           0        6.066539   -0.068156    4.053667
    118          6           0       -8.131300   -2.316709   -1.723606
    119          6           0       -7.960426   -3.532732   -2.331425
    120          6           0       -6.907672   -4.392255   -1.928478
    121          6           0       -6.626483   -5.624834   -2.562898
    122          6           0       -5.551281   -6.375153   -2.141403
    123          6           0       -4.746383   -5.959031   -1.056019
    124          6           0       -5.009562   -4.785352   -0.377872
    125          6           0       -6.083965   -3.965039   -0.844092
    126          6           0       -6.325881   -2.688362   -0.302876
    127          6           0       -4.215626   -4.378592    0.804397
    128          6           0       -4.835184   -4.219729    2.054512
    129          6           0       -4.101563   -3.814937    3.161559
    130          6           0       -2.726341   -3.546864    3.041275
    131          6           0       -2.100244   -3.733621    1.796455
    132          6           0       -2.839466   -4.144716    0.694912
    133          6           0       -1.994583   -3.017604    4.143065
    134          6           0       -1.384589   -2.463366    5.039621
    135          6           0       -0.676818   -1.624467    5.960779
    136          6           0       -0.715109   -1.819772    7.350345
    137          6           0       -0.033700   -0.915252    8.159449
    138          6           0        0.659110    0.141517    7.575885
    139          6           0        0.643436    0.251036    6.176554
    140          6           0        1.360345    1.270348    5.469007
    141          6           0        1.974839    2.008237    4.720034
    142          6           0        2.709033    2.768033    3.764301
    143          6           0        2.084036    3.229017    2.592406
    144          6           0        2.824164    3.875408    1.610951
    145          6           0        4.200363    4.077676    1.770718
    146          6           0        4.819260    3.641100    2.953185
    147          6           0        4.084637    2.999778    3.941474
    148          6           0        4.994636    4.741359    0.711295
    149          6           0        4.732428    6.038683    0.317701
    150          6           0        5.537384    6.689737   -0.645210
    151          6           0        6.612334    6.054240   -1.226023
    152          6           0        6.893101    4.709845   -0.887555
    153          6           0        7.945459    3.963527   -1.474667
    154          6           0        8.116131    2.641370   -1.158329
    155          6           0        6.311074    2.681976    0.309879
    156          6           0        6.068886    4.047909    0.071339
    157          1           0       -8.900599   -2.036920    1.637462
    158          1           0       -8.598096   -3.141563    3.840684
    159          1           0       -7.219125   -3.369778    5.972990
    160          1           0       -5.285644   -2.603192    7.324153
    161          1           0       -3.894678   -0.687246    6.583197
    162          1           0       -5.673644    0.499189    2.295818
    163          1           0       -2.323113   -0.244228    4.242163
    164          1           0       -1.013959    1.710610    3.529809
    165          1           0       -4.578041    4.148505    3.664322
    166          1           0       -5.888468    2.179492    4.401791
    167          1           0       -1.205625    7.793911    2.666592
    168          1           0        0.038340    9.258356    1.050278
    169          1           0        1.262999    8.190381   -0.863975
    170          1           0        4.592475    4.869331   -2.691908
    171          1           0        5.903447    3.111208   -3.845075
    172          1           0        2.345464    0.696436   -4.193522
    173          1           0        1.035233    2.446766   -3.067824
    174          1           0        3.926915    0.784420   -6.590161
    175          1           0        5.321120   -0.926673   -7.722430
    176          1           0        7.244036   -1.974582   -6.559477
    177          1           0        8.610425   -2.219542   -4.419337
    178          1           0        8.898532   -1.624417   -2.026745
    179          1           0        5.677185    1.001214   -2.135162
    180          1           0       -8.914818    1.626695    2.026559
    181          1           0       -8.626048    3.832055    3.131490
    182          1           0       -7.257610    5.970188    3.364278
    183          1           0       -5.325640    7.328949    2.606066
    184          1           0       -3.923580    6.593154    0.697046
    185          1           0       -5.678463    2.296638   -0.494688
    186          1           0       -2.337891    4.272044    0.257005
    187          1           0       -1.018037    3.561868   -1.691463
    188          1           0       -4.577190    3.658632   -4.138608
    189          1           0       -5.898348    4.393346   -2.176416
    190          1           0       -1.196997    2.681995   -7.773663
    191          1           0        0.046440    1.065569   -9.239261
    192          1           0        1.268363   -0.850441   -8.172424
    193          1           0        1.030416   -3.081496   -2.437670
    194          1           0        2.341517   -4.211781   -0.691543
    195          1           0        5.903557   -3.832514   -3.095536
    196          1           0        4.591003   -2.675718   -4.850323
    197          1           0        3.925486   -6.594150   -0.774184
    198          1           0        5.323812   -7.727903    0.932659
    199          1           0        7.250764   -6.566681    1.975347
    200          1           0        8.621466   -4.427604    2.214575
    201          1           0        8.908375   -2.034971    1.619796
    202          1           0        5.673592   -2.139201   -0.989456
    203          1           0       -8.921649    2.019642   -1.629333
    204          1           0       -8.626254    3.131760   -3.830530
    205          1           0       -7.251688    3.372937   -5.962578
    206          1           0       -5.314938    2.620454   -7.318232
    207          1           0       -3.914390    0.709344   -6.585260
    208          1           0       -5.680215   -0.496062   -2.296739
    209          1           0       -5.897547   -2.170033   -4.397830
    210          1           0       -4.580410   -4.136219   -3.666855
    211          1           0       -1.018122   -1.694153   -3.556211
    212          1           0       -2.333870    0.258276   -4.263127
    213          1           0       -1.226362   -7.780738   -2.674928
    214          1           0        0.004668   -9.250026   -1.052600
    215          1           0        1.234651   -8.185799    0.859793
    216          1           0        1.017401   -2.454638    3.084866
    217          1           0        2.326803   -0.706593    4.213668
    218          1           0        5.894516   -3.100385    3.820346
    219          1           0        4.583429   -4.857301    2.666293
    220          1           0        3.906247   -0.784717    6.587491
    221          1           0        5.298797    0.924097    7.725653
    222          1           0        7.229436    1.967386    6.570990
    223          1           0        8.606805    2.207140    4.438257
    224          1           0        8.905316    1.611150    2.046692
    225          1           0        5.668705   -0.996655    2.137221
    226          1           0       -8.926044   -1.630959   -2.018790
    227          1           0       -8.632800   -3.828385   -3.138057
    228          1           0       -7.256446   -5.959671   -3.388963
    229          1           0       -5.320694   -7.318380   -2.641009
    230          1           0       -3.920670   -6.593066   -0.725819
    231          1           0       -5.680828   -2.306727    0.490273
    232          1           0       -5.903131   -4.427110    2.161587
    233          1           0       -4.589809   -3.692278    4.129379
    234          1           0       -1.030331   -3.547461    1.685245
    235          1           0       -2.342515   -4.257880   -0.268806
    236          1           0       -1.266251   -2.660087    7.774306
    237          1           0       -0.042751   -1.033801    9.244656
    238          1           0        1.201398    0.869643    8.180365
    239          1           0        1.013925    3.074072    2.442343
    240          1           0        2.327583    4.202385    0.697148
    241          1           0        5.887513    3.817432    3.103922
    242          1           0        4.572280    2.662894    4.857331
    243          1           0        3.907805    6.582576    0.783781
    244          1           0        5.306971    7.721797   -0.917599
    245          1           0        7.241761    6.567516   -1.955184
    246          1           0        8.618826    4.434008   -2.192687
    247          1           0        8.911225    2.040461   -1.600614
    248          1           0        5.666230    2.130897    0.996440
    249          7           0       -7.282855   -0.732834    1.894712
    250          7           0        0.008897    5.410332    0.597524
    251          7           0        7.282438   -0.292871   -2.002401
    252          7           0       -7.291085    1.889540    0.730694
    253          7           0        0.012207    0.608017   -5.391711
    254          7           0        7.284684   -2.008342    0.297218
    255          7           0       -7.295290    0.726519   -1.890880
    256          7           0        0.002264   -5.400592   -0.610190
    257          7           0        7.280629    0.289623    2.013106
    258          7           0       -7.297006   -1.896113   -0.729375
    259          7           0       -0.010922   -0.613060    5.393013
    260          7           0        7.282225    2.006766   -0.284771
    261         46           0       -7.376038   -0.003686    0.002000
    262         46           0        7.365073   -0.000941    0.005398
 ---------------------------------------------------------------------

 SCF Done:  E(RB97D3) =  -6903.82500332     A.U. after   20 cycles

 The electronic state is 1-A.
 Alpha  occ. eigenvalues --  -14.09097 -14.09095 -14.09092 -14.09089 -14.09089
 Alpha  occ. eigenvalues --  -14.09088 -14.09085 -14.09083 -14.02184 -14.02181
 Alpha  occ. eigenvalues --  -14.02180 -14.02179  -9.99660  -9.99660  -9.99658
 Alpha  occ. eigenvalues --   -9.99655  -9.99652  -9.99652  -9.99650  -9.99644
 Alpha  occ. eigenvalues --   -9.99015  -9.99013  -9.99012  -9.99011  -9.99011
 Alpha  occ. eigenvalues --   -9.99010  -9.99009  -9.99008  -9.98630  -9.98629
 Alpha  occ. eigenvalues --   -9.98628  -9.98627  -9.98626  -9.98624  -9.98622
 Alpha  occ. eigenvalues --   -9.98619  -9.96595  -9.96592  -9.96591  -9.96590
 Alpha  occ. eigenvalues --   -9.96590  -9.96589  -9.96584  -9.96584  -9.96417
 Alpha  occ. eigenvalues --   -9.96416  -9.96416  -9.96415  -9.96414  -9.96410
 Alpha  occ. eigenvalues --   -9.96408  -9.96406  -9.96034  -9.96033  -9.96031
 Alpha  occ. eigenvalues --   -9.96031  -9.96029  -9.96029  -9.96027  -9.96026
 Alpha  occ. eigenvalues --   -9.96012  -9.96008  -9.96008  -9.96006  -9.96006
 Alpha  occ. eigenvalues --   -9.96004  -9.96001  -9.96000  -9.95706  -9.95705
 Alpha  occ. eigenvalues --   -9.95704  -9.95704  -9.95702  -9.95701  -9.95699
 Alpha  occ. eigenvalues --   -9.95697  -9.95137  -9.95135  -9.95135  -9.95134
 Alpha  occ. eigenvalues --   -9.95013  -9.95011  -9.95010  -9.95010  -9.95007
 Alpha  occ. eigenvalues --   -9.95006  -9.95003  -9.95002  -9.94968  -9.94968
 Alpha  occ. eigenvalues --   -9.94967  -9.94966  -9.94965  -9.94962  -9.94962
 Alpha  occ. eigenvalues --   -9.94962  -9.94731  -9.94729  -9.94729  -9.94728
 Alpha  occ. eigenvalues --   -9.94728  -9.94724  -9.94723  -9.94722  -9.94658
 Alpha  occ. eigenvalues --   -9.94656  -9.94655  -9.94655  -9.94653  -9.94652
 Alpha  occ. eigenvalues --   -9.94649  -9.94647  -9.94637  -9.94635  -9.94635
 Alpha  occ. eigenvalues --   -9.94634  -9.94634  -9.94632  -9.94632  -9.94632
 Alpha  occ. eigenvalues --   -9.94065  -9.94064  -9.94063  -9.94062  -9.94060
 Alpha  occ. eigenvalues --   -9.94060  -9.94059  -9.94056  -9.94012  -9.94011
 Alpha  occ. eigenvalues --   -9.94010  -9.94010  -9.94006  -9.94006  -9.94005
 Alpha  occ. eigenvalues --   -9.94004  -9.94002  -9.94002  -9.94002  -9.93999
 Alpha  occ. eigenvalues --   -9.93998  -9.93998  -9.93998  -9.93996  -9.93969
 Alpha  occ. eigenvalues --   -9.93964  -9.93964  -9.93964  -9.93964  -9.93962
 Alpha  occ. eigenvalues --   -9.93959  -9.93955  -9.93498  -9.93495  -9.93495
 Alpha  occ. eigenvalues --   -9.93493  -9.93493  -9.93493  -9.93491  -9.93484
 Alpha  occ. eigenvalues --   -9.93435  -9.93434  -9.93433  -9.93432  -9.93431
 Alpha  occ. eigenvalues --   -9.93428  -9.93428  -9.93425  -3.37647  -3.37631
 Alpha  occ. eigenvalues --   -2.10161  -2.10158  -2.10146  -2.10144  -2.05661
 Alpha  occ. eigenvalues --   -2.05644  -0.92406  -0.92399  -0.91730  -0.91726
 Alpha  occ. eigenvalues --   -0.91722  -0.91721  -0.91515  -0.91509  -0.88971
 Alpha  occ. eigenvalues --   -0.88965  -0.88965  -0.88964  -0.82213  -0.82210
 Alpha  occ. eigenvalues --   -0.82105  -0.82104  -0.82102  -0.82101  -0.82056
 Alpha  occ. eigenvalues --   -0.82052  -0.80148  -0.80129  -0.80095  -0.80093
 Alpha  occ. eigenvalues --   -0.80081  -0.80080  -0.80067  -0.80063  -0.75895
 Alpha  occ. eigenvalues --   -0.75835  -0.75835  -0.75802  -0.75705  -0.75688
 Alpha  occ. eigenvalues --   -0.75674  -0.75673  -0.74909  -0.74884  -0.74883
 Alpha  occ. eigenvalues --   -0.74878  -0.74604  -0.74599  -0.74597  -0.74595
 Alpha  occ. eigenvalues --   -0.73308  -0.73181  -0.73180  -0.73150  -0.73141
 Alpha  occ. eigenvalues --   -0.73008  -0.73003  -0.73002  -0.72701  -0.72567
 Alpha  occ. eigenvalues --   -0.72567  -0.72521  -0.72391  -0.72310  -0.72309
 Alpha  occ. eigenvalues --   -0.72266  -0.70119  -0.70083  -0.70083  -0.70076
 Alpha  occ. eigenvalues --   -0.69449  -0.69418  -0.69417  -0.69410  -0.69266
 Alpha  occ. eigenvalues --   -0.69259  -0.69258  -0.69257  -0.69223  -0.69196
 Alpha  occ. eigenvalues --   -0.69195  -0.69144  -0.67261  -0.67255  -0.67247
 Alpha  occ. eigenvalues --   -0.67245  -0.66062  -0.66023  -0.66022  -0.66001
 Alpha  occ. eigenvalues --   -0.62382  -0.62368  -0.62267  -0.62227  -0.62212
 Alpha  occ. eigenvalues --   -0.62212  -0.62188  -0.62187  -0.61154  -0.61077
 Alpha  occ. eigenvalues --   -0.61069  -0.61068  -0.61043  -0.61014  -0.61013
 Alpha  occ. eigenvalues --   -0.61003  -0.60299  -0.60285  -0.60235  -0.60230
 Alpha  occ. eigenvalues --   -0.60189  -0.60188  -0.60137  -0.60136  -0.58750
 Alpha  occ. eigenvalues --   -0.58741  -0.58739  -0.58726  -0.58587  -0.58532
 Alpha  occ. eigenvalues --   -0.58530  -0.58483  -0.56617  -0.56554  -0.56550
 Alpha  occ. eigenvalues --   -0.56527  -0.56516  -0.56469  -0.56468  -0.56460
 Alpha  occ. eigenvalues --   -0.55514  -0.55333  -0.55332  -0.55331  -0.55237
 Alpha  occ. eigenvalues --   -0.55181  -0.55181  -0.55173  -0.52587  -0.52427
 Alpha  occ. eigenvalues --   -0.52424  -0.52275  -0.51148  -0.51130  -0.50946
 Alpha  occ. eigenvalues --   -0.50867  -0.50820  -0.50817  -0.50758  -0.50757
 Alpha  occ. eigenvalues --   -0.50453  -0.50417  -0.50170  -0.50169  -0.50149
 Alpha  occ. eigenvalues --   -0.50139  -0.50138  -0.50110  -0.49966  -0.49860
 Alpha  occ. eigenvalues --   -0.49778  -0.49778  -0.49499  -0.49383  -0.49179
 Alpha  occ. eigenvalues --   -0.49090  -0.49090  -0.49001  -0.48817  -0.48800
 Alpha  occ. eigenvalues --   -0.48335  -0.48334  -0.48315  -0.48314  -0.47113
 Alpha  occ. eigenvalues --   -0.47092  -0.47089  -0.47070  -0.45275  -0.45174
 Alpha  occ. eigenvalues --   -0.45162  -0.45132  -0.45132  -0.45102  -0.44930
 Alpha  occ. eigenvalues --   -0.44929  -0.44828  -0.44825  -0.44588  -0.44587
 Alpha  occ. eigenvalues --   -0.44508  -0.44339  -0.44043  -0.43918  -0.43876
 Alpha  occ. eigenvalues --   -0.43874  -0.43842  -0.43840  -0.43781  -0.43760
 Alpha  occ. eigenvalues --   -0.43569  -0.43563  -0.43562  -0.43540  -0.43538
 Alpha  occ. eigenvalues --   -0.43538  -0.43350  -0.43194  -0.43129  -0.43120
 Alpha  occ. eigenvalues --   -0.43119  -0.42987  -0.42793  -0.42785  -0.42691
 Alpha  occ. eigenvalues --   -0.42689  -0.42581  -0.42579  -0.42526  -0.42516
 Alpha  occ. eigenvalues --   -0.41531  -0.41526  -0.41519  -0.41518  -0.41489
 Alpha  occ. eigenvalues --   -0.41487  -0.41416  -0.41373  -0.41039  -0.41037
 Alpha  occ. eigenvalues --   -0.40988  -0.40985  -0.40755  -0.40737  -0.40686
 Alpha  occ. eigenvalues --   -0.40529  -0.40525  -0.40387  -0.40327  -0.40325
 Alpha  occ. eigenvalues --   -0.40233  -0.40194  -0.40051  -0.39902  -0.39898
 Alpha  occ. eigenvalues --   -0.39764  -0.39646  -0.39594  -0.39522  -0.39393
 Alpha  occ. eigenvalues --   -0.39381  -0.39379  -0.38773  -0.38654  -0.38651
 Alpha  occ. eigenvalues --   -0.38647  -0.38644  -0.38588  -0.38163  -0.38162
 Alpha  occ. eigenvalues --   -0.38135  -0.38133  -0.37792  -0.37765  -0.37763
 Alpha  occ. eigenvalues --   -0.37760  -0.37620  -0.37612  -0.37405  -0.37368
 Alpha  occ. eigenvalues --   -0.36398  -0.36333  -0.36331  -0.36318  -0.36270
 Alpha  occ. eigenvalues --   -0.36248  -0.36245  -0.36197  -0.36158  -0.36157
 Alpha  occ. eigenvalues --   -0.36120  -0.36117  -0.36029  -0.35984  -0.35831
 Alpha  occ. eigenvalues --   -0.35819  -0.35717  -0.35717  -0.35653  -0.35653
 Alpha  occ. eigenvalues --   -0.35637  -0.35621  -0.35532  -0.35532  -0.35460
 Alpha  occ. eigenvalues --   -0.35409  -0.34970  -0.34968  -0.34947  -0.34945
 Alpha  occ. eigenvalues --   -0.34776  -0.34762  -0.34172  -0.33977  -0.33532
 Alpha  occ. eigenvalues --   -0.33527  -0.33034  -0.33033  -0.32986  -0.32875
 Alpha  occ. eigenvalues --   -0.32874  -0.32632  -0.32630  -0.32506  -0.32291
 Alpha  occ. eigenvalues --   -0.32290  -0.32246  -0.32245  -0.32181  -0.32082
 Alpha  occ. eigenvalues --   -0.32069  -0.31984  -0.31443  -0.31438  -0.31363
 Alpha  occ. eigenvalues --   -0.31333  -0.30870  -0.30869  -0.30610  -0.30606
 Alpha  occ. eigenvalues --   -0.30603  -0.30083  -0.30081  -0.30045  -0.30024
 Alpha  occ. eigenvalues --   -0.29808  -0.29806  -0.29803  -0.29441  -0.29364
 Alpha  occ. eigenvalues --   -0.29214  -0.29172  -0.29170  -0.28831  -0.28408
 Alpha  occ. eigenvalues --   -0.28404  -0.28369  -0.28318  -0.28291  -0.28249
 Alpha  occ. eigenvalues --   -0.28244  -0.28152  -0.27934  -0.27931  -0.27876
 Alpha  occ. eigenvalues --   -0.27872  -0.27310  -0.27240  -0.26343  -0.26270
 Alpha  occ. eigenvalues --   -0.25956  -0.25949  -0.25856  -0.25847  -0.25677
 Alpha  occ. eigenvalues --   -0.25528  -0.25525  -0.25437  -0.25092  -0.25030
 Alpha  occ. eigenvalues --   -0.25001  -0.24999  -0.24883  -0.24844  -0.24843
 Alpha  occ. eigenvalues --   -0.24816  -0.24773  -0.24764  -0.24762  -0.24716
 Alpha  occ. eigenvalues --   -0.24291  -0.24072  -0.24038  -0.24036  -0.24030
 Alpha  occ. eigenvalues --   -0.23824  -0.23821  -0.23793  -0.23675  -0.23359
 Alpha  occ. eigenvalues --   -0.23357  -0.23132  -0.22941  -0.22924  -0.22052
 Alpha  occ. eigenvalues --   -0.22046  -0.22032  -0.22030  -0.21382  -0.21363
 Alpha  occ. eigenvalues --   -0.21362  -0.21342
 Alpha virt. eigenvalues --   -0.12313  -0.12305  -0.12032  -0.12019  -0.11815
 Alpha virt. eigenvalues --   -0.11815  -0.11784  -0.11784  -0.11337  -0.11283
 Alpha virt. eigenvalues --   -0.10036  -0.09891  -0.09889  -0.09861  -0.09718

 Mulliken charges:
               1
     1  C    0.125700
     2  C    0.000158
     3  C    0.060737
     4  C    0.007535
     5  C    0.042787
     6  C   -0.000362
     7  C    0.065032
     8  C    0.045657
     9  C    0.106888
    10  C   -0.010443
    11  C    0.025246
    12  C    0.006232
    13  C   -0.042234
    14  C    0.025270
    15  C   -0.010778
    16  C    0.012646
    17  C    0.070263
    18  C   -0.090841
    19  C    0.050920
    20  C    0.069527
    21  C    0.050926
    22  C   -0.091909
    23  C    0.070000
    24  C    0.013465
    25  C   -0.042900
    26  C    0.024942
    27  C   -0.009524
    28  C   -0.012923
    29  C    0.026498
    30  C    0.006693
    31  C    0.063745
    32  C    0.000198
    33  C    0.042724
    34  C    0.007466
    35  C    0.061593
    36  C    0.000127
    37  C    0.125568
    38  C    0.107579
    39  C    0.045268
    40  C    0.126168
    41  C    0.000326
    42  C    0.061436
    43  C    0.007137
    44  C    0.043358
    45  C   -0.001612
    46  C    0.065708
    47  C    0.044954
    48  C    0.106527
    49  C   -0.008964
    50  C    0.025280
    51  C    0.006685
    52  C   -0.042586
    53  C    0.025257
    54  C   -0.011825
    55  C    0.012712
    56  C    0.070194
    57  C   -0.090741
    58  C    0.050913
    59  C    0.069454
    60  C    0.050962
    61  C   -0.092059
    62  C    0.069769
    63  C    0.013740
    64  C   -0.042580
    65  C    0.006728
    66  C    0.026189
    67  C   -0.011168
    68  C   -0.011251
    69  C    0.025182
    70  C    0.064908
    71  C   -0.000659
    72  C    0.043001
    73  C    0.007243
    74  C    0.061885
    75  C    0.000338
    76  C    0.125831
    77  C    0.106507
    78  C    0.044890
    79  C    0.126000
    80  C    0.000344
    81  C    0.060961
    82  C    0.007205
    83  C    0.043397
    84  C   -0.001710
    85  C    0.065940
    86  C    0.044822
    87  C    0.106631
    88  C   -0.008853
    89  C   -0.011817
    90  C    0.025285
    91  C   -0.042579
    92  C    0.006719
    93  C    0.024974
    94  C    0.013512
    95  C    0.069804
    96  C   -0.091563
    97  C    0.051038
    98  C    0.069424
    99  C    0.050959
   100  C   -0.091453
   101  C    0.070441
   102  C    0.012545
   103  C   -0.042197
   104  C    0.006496
   105  C    0.025454
   106  C   -0.009995
   107  C   -0.011603
   108  C    0.025192
   109  C    0.065065
   110  C   -0.000658
   111  C    0.043004
   112  C    0.007188
   113  C    0.061672
   114  C    0.000266
   115  C    0.125863
   116  C    0.106213
   117  C    0.045121
   118  C    0.126316
   119  C    0.000299
   120  C    0.061304
   121  C    0.007139
   122  C    0.043369
   123  C   -0.001408
   124  C    0.065611
   125  C    0.044389
   126  C    0.106953
   127  C   -0.010231
   128  C   -0.011579
   129  C    0.025316
   130  C   -0.042951
   131  C    0.006838
   132  C    0.025870
   133  C    0.014414
   134  C    0.069487
   135  C   -0.091903
   136  C    0.050917
   137  C    0.069510
   138  C    0.050993
   139  C   -0.090899
   140  C    0.070577
   141  C    0.012421
   142  C   -0.042052
   143  C    0.006271
   144  C    0.025565
   145  C   -0.010906
   146  C   -0.011030
   147  C    0.025163
   148  C    0.064941
   149  C   -0.000216
   150  C    0.042726
   151  C    0.007225
   152  C    0.062189
   153  C    0.000171
   154  C    0.126038
   155  C    0.106153
   156  C    0.045297
   157  H    0.079802
   158  H    0.020460
   159  H    0.006120
   160  H    0.019723
   161  H    0.006374
   162  H    0.085657
   163  H   -0.015074
   164  H   -0.003552
   165  H   -0.004287
   166  H    0.006865
   167  H    0.006975
   168  H    0.021176
   169  H    0.007131
   170  H   -0.003839
   171  H    0.006601
   172  H   -0.014850
   173  H   -0.003371
   174  H    0.006348
   175  H    0.019802
   176  H    0.006099
   177  H    0.020560
   178  H    0.080125
   179  H    0.085352
   180  H    0.079981
   181  H    0.020490
   182  H    0.006090
   183  H    0.019816
   184  H    0.006469
   185  H    0.085663
   186  H   -0.015753
   187  H   -0.003596
   188  H   -0.004566
   189  H    0.006901
   190  H    0.006993
   191  H    0.021186
   192  H    0.007122
   193  H   -0.003425
   194  H   -0.015147
   195  H    0.006910
   196  H   -0.004101
   197  H    0.006393
   198  H    0.019859
   199  H    0.006115
   200  H    0.020589
   201  H    0.080289
   202  H    0.085925
   203  H    0.079992
   204  H    0.020486
   205  H    0.006128
   206  H    0.019848
   207  H    0.006525
   208  H    0.085870
   209  H    0.006962
   210  H   -0.004528
   211  H   -0.003540
   212  H   -0.015435
   213  H    0.007060
   214  H    0.021189
   215  H    0.007064
   216  H   -0.003537
   217  H   -0.015105
   218  H    0.006947
   219  H   -0.004285
   220  H    0.006467
   221  H    0.019828
   222  H    0.006115
   223  H    0.020534
   224  H    0.080295
   225  H    0.085771
   226  H    0.080007
   227  H    0.020487
   228  H    0.006108
   229  H    0.019853
   230  H    0.006367
   231  H    0.086071
   232  H    0.007011
   233  H   -0.004053
   234  H   -0.003544
   235  H   -0.015429
   236  H    0.007121
   237  H    0.021204
   238  H    0.007040
   239  H   -0.003614
   240  H   -0.014886
   241  H    0.006918
   242  H   -0.004311
   243  H    0.006399
   244  H    0.019751
   245  H    0.006059
   246  H    0.020515
   247  H    0.080047
   248  H    0.085779
   249  N   -0.248262
   250  N   -0.143048
   251  N   -0.247977
   252  N   -0.248235
   253  N   -0.143048
   254  N   -0.248214
   255  N   -0.248411
   256  N   -0.142850
   257  N   -0.248191
   258  N   -0.248202
   259  N   -0.143389
   260  N   -0.248096
   261  Pd   0.299278
   262  Pd   0.297991
 Sum of Mulliken charges =   4.00000

 Dipole moment (field-independent basis, Debye):
    X=             -0.0150    Y=              0.0103    Z=              0.0515  Tot=              0.0546
 Quadrupole moment (field-independent basis, Debye-Ang):
   XX=            -18.8077   YY=           -628.2883   ZZ=           -628.6692
   XY=              0.1553   XZ=             -0.1026   YZ=              0.1856

 Normal termination of Gaussian 16 at Fri Nov 17 11:47:01 2023.
