 Gaussian 16, Revision C.01,
 Gaussian 16:  ES64L-G16RevC.01  3-Jul-2019

 ------------------------------------------------------------------
 # SP PBE1PBE/def2svp empiricaldispersion=GD3BJ scrf=(solvent=dmso)
 ------------------------------------------------------------------

 -----
 m2_lb
 -----
 Symbolic Z-matrix:
 Charge =  4 Multiplicity = 1

                         Standard orientation:
 ---------------------------------------------------------------------
 Center     Atomic      Atomic             Coordinates (Angstroms)
 Number     Number       Type             X           Y           Z
 ---------------------------------------------------------------------
      1          6           0       -8.107982   -1.731987    2.321169
      2          6           0       -7.931476   -2.331865    3.540299
      3          6           0       -6.880739   -1.916832    4.396301
      4          6           0       -6.594231   -2.542217    5.632269
      5          6           0       -5.519822   -2.110831    6.378026
      6          6           0       -4.720269   -1.025061    5.952938
      7          6           0       -4.988560   -0.355697    4.775302
      8          6           0       -6.063468   -0.830727    3.960794
      9          6           0       -6.312315   -0.296683    2.682449
     10          6           0       -4.198281    0.826086    4.360078
     11          6           0       -2.821954    0.718205    4.126671
     12          6           0       -2.084258    1.820285    3.714472
     13          6           0       -2.711859    3.064040    3.525741
     14          6           0       -4.088002    3.181911    3.789771
     15          6           0       -4.820098    2.074327    4.196058
     16          6           0       -1.979062    4.166724    2.999598
     17          6           0       -1.364150    5.062087    2.448892
     18          6           0       -0.646887    5.980181    1.614433
     19          6           0       -0.662965    7.368447    1.821517
     20          6           0        0.029763    8.174211    0.922529
     21          6           0        0.712040    7.588719   -0.139998
     22          6           0        0.675354    6.190629   -0.260279
     23          6           0        1.385985    5.480881   -1.282291
     24          6           0        1.998781    4.730970   -2.020620
     25          6           0        2.730247    3.772804   -2.779848
     26          6           0        4.104211    3.950838   -3.020848
     27          6           0        4.836555    2.959993   -3.661035
     28          6           0        4.216815    1.773927   -4.086289
     29          6           0        2.842068    1.613253   -3.875151
     30          6           0        2.104155    2.597405   -3.230389
     31          6           0        5.008435    0.709953   -4.746089
     32          6           0        4.747599    0.314959   -6.043242
     33          6           0        5.549063   -0.653816   -6.689969
     34          6           0        6.617875   -1.240303   -6.049490
     35          6           0        6.896483   -0.900660   -4.704989
     36          6           0        7.941521   -1.494231   -3.953775
     37          6           0        8.110248   -1.175876   -2.631917
     38          6           0        6.317618    0.307201   -2.682019
     39          6           0        6.077001    0.065673   -4.047857
     40          6           0       -8.123099    2.313241    1.725343
     41          6           0       -7.954276    3.533438    2.325381
     42          6           0       -6.905056    4.393549    1.914689
     43          6           0       -6.626894    5.631212    2.540479
     44          6           0       -5.553797    6.381412    2.113574
     45          6           0       -4.747731    5.959324    1.031468
     46          6           0       -5.008237    4.780587    0.360916
     47          6           0       -6.081261    3.961181    0.832178
     48          6           0       -6.322187    2.681246    0.298112
     49          6           0       -4.211535    4.369133   -0.817812
     50          6           0       -2.833337    4.148266   -0.706173
     51          6           0       -2.089586    3.737214   -1.804655
     52          6           0       -2.712974    3.537726   -3.048843
     53          6           0       -4.090708    3.791249   -3.171207
     54          6           0       -4.828788    4.196035   -2.067147
     55          6           0       -1.975481    3.011305   -4.148286
     56          6           0       -1.359750    2.460292   -5.042889
     57          6           0       -0.641564    1.626519   -5.960870
     58          6           0       -0.655753    1.835662   -7.348882
     59          6           0        0.036844    0.936993   -8.155208
     60          6           0        0.717413   -0.126860   -7.570287
     61          6           0        0.678619   -0.249354   -6.172464
     62          6           0        1.386198   -1.273974   -5.463422
     63          6           0        1.995884   -2.015240   -4.713847
     64          6           0        2.727084   -2.777983   -3.758300
     65          6           0        2.100357   -3.238398   -2.587143
     66          6           0        2.838950   -3.885875   -1.605239
     67          6           0        4.215040   -4.089587   -1.763768
     68          6           0        4.835404   -3.654664   -2.946043
     69          6           0        4.102413   -3.012260   -3.934828
     70          6           0        5.008310   -4.750896   -0.702097
     71          6           0        4.748191   -6.048192   -0.307259
     72          6           0        5.551830   -6.695553    0.659393
     73          6           0        6.622794   -6.056005    1.243106
     74          6           0        6.901279   -4.711483    0.903168
     75          6           0        7.949295   -3.961114    1.492881
     76          6           0        8.117029   -2.639024    1.174959
     77          6           0        6.317562   -2.687254   -0.299690
     78          6           0        6.078656   -4.053521   -0.059819
     79          6           0       -8.127247    1.721400   -2.314164
     80          6           0       -7.955124    2.325169   -3.532029
     81          6           0       -6.902635    1.918257   -4.390013
     82          6           0       -6.621378    2.548325   -5.624759
     83          6           0       -5.545718    2.124537   -6.373131
     84          6           0       -4.740340    1.041331   -5.952454
     85          6           0       -5.003879    0.366739   -4.776662
     86          6           0       -6.079331    0.835012   -3.958742
     87          6           0       -6.323701    0.297075   -2.681070
     88          6           0       -4.208905   -0.813809   -4.367116
     89          6           0       -4.828121   -2.062865   -4.198763
     90          6           0       -4.092318   -3.169149   -3.795986
     91          6           0       -2.714835   -3.049336   -3.539654
     92          6           0       -2.089452   -1.805348   -3.734136
     93          6           0       -2.830946   -0.704574   -4.143269
     94          6           0       -1.980080   -4.151230   -3.014598
     95          6           0       -1.367554   -5.047900   -2.463309
     96          6           0       -0.655893   -5.968328   -1.626677
     97          6           0       -0.681719   -7.357041   -1.830231
     98          6           0        0.003909   -8.165441   -0.928199
     99          6           0        0.688919   -7.582000    0.133668
    100          6           0        0.661365   -6.183485    0.250891
    101          6           0        1.372731   -5.475939    1.274060
    102          6           0        1.984814   -4.727085    2.014055
    103          6           0        2.716605   -3.770609    2.775186
    104          6           0        2.088154   -2.601540    3.238671
    105          6           0        2.825898   -1.618461    3.885210
    106          6           0        4.203060   -1.773346    4.084750
    107          6           0        4.825421   -2.953200    3.645956
    108          6           0        4.093160   -3.943459    3.004903
    109          6           0        4.994129   -0.710985    4.747408
    110          6           0        4.729665   -0.316232    6.043972
    111          6           0        5.530535    0.650725    6.694150
    112          6           0        6.603441    1.234887    6.058260
    113          6           0        6.886566    0.894990    4.714753
    114          6           0        7.937381    1.484993    3.968592
    115          6           0        8.111001    1.166835    2.647309
    116          6           0        6.310681   -0.307294    2.688110
    117          6           0        6.066539   -0.068156    4.053667
    118          6           0       -8.131300   -2.316709   -1.723606
    119          6           0       -7.960426   -3.532732   -2.331425
    120          6           0       -6.907672   -4.392255   -1.928478
    121          6           0       -6.626483   -5.624834   -2.562898
    122          6           0       -5.551281   -6.375153   -2.141403
    123          6           0       -4.746383   -5.959031   -1.056019
    124          6           0       -5.009562   -4.785352   -0.377872
    125          6           0       -6.083965   -3.965039   -0.844092
    126          6           0       -6.325881   -2.688362   -0.302876
    127          6           0       -4.215626   -4.378592    0.804397
    128          6           0       -4.835184   -4.219729    2.054512
    129          6           0       -4.101563   -3.814937    3.161559
    130          6           0       -2.726341   -3.546864    3.041275
    131          6           0       -2.100244   -3.733621    1.796455
    132          6           0       -2.839466   -4.144716    0.694912
    133          6           0       -1.994583   -3.017604    4.143065
    134          6           0       -1.384589   -2.463366    5.039621
    135          6           0       -0.676818   -1.624467    5.960779
    136          6           0       -0.715109   -1.819772    7.350345
    137          6           0       -0.033700   -0.915252    8.159449
    138          6           0        0.659110    0.141517    7.575885
    139          6           0        0.643436    0.251036    6.176554
    140          6           0        1.360345    1.270348    5.469007
    141          6           0        1.974839    2.008237    4.720034
    142          6           0        2.709033    2.768033    3.764301
    143          6           0        2.084036    3.229017    2.592406
    144          6           0        2.824164    3.875408    1.610951
    145          6           0        4.200363    4.077676    1.770718
    146          6           0        4.819260    3.641100    2.953185
    147          6           0        4.084637    2.999778    3.941474
    148          6           0        4.994636    4.741359    0.711295
    149          6           0        4.732428    6.038683    0.317701
    150          6           0        5.537384    6.689737   -0.645210
    151          6           0        6.612334    6.054240   -1.226023
    152          6           0        6.893101    4.709845   -0.887555
    153          6           0        7.945459    3.963527   -1.474667
    154          6           0        8.116131    2.641370   -1.158329
    155          6           0        6.311074    2.681976    0.309879
    156          6           0        6.068886    4.047909    0.071339
    157          1           0       -8.900599   -2.036920    1.637462
    158          1           0       -8.598096   -3.141563    3.840684
    159          1           0       -7.219125   -3.369778    5.972990
    160          1           0       -5.285644   -2.603192    7.324153
    161          1           0       -3.894678   -0.687246    6.583197
    162          1           0       -5.673644    0.499189    2.295818
    163          1           0       -2.323113   -0.244228    4.242163
    164          1           0       -1.013959    1.710610    3.529809
    165          1           0       -4.578041    4.148505    3.664322
    166          1           0       -5.888468    2.179492    4.401791
    167          1           0       -1.205625    7.793911    2.666592
    168          1           0        0.038340    9.258356    1.050278
    169          1           0        1.262999    8.190381   -0.863975
    170          1           0        4.592475    4.869331   -2.691908
    171          1           0        5.903447    3.111208   -3.845075
    172          1           0        2.345464    0.696436   -4.193522
    173          1           0        1.035233    2.446766   -3.067824
    174          1           0        3.926915    0.784420   -6.590161
    175          1           0        5.321120   -0.926673   -7.722430
    176          1           0        7.244036   -1.974582   -6.559477
    177          1           0        8.610425   -2.219542   -4.419337
    178          1           0        8.898532   -1.624417   -2.026745
    179          1           0        5.677185    1.001214   -2.135162
    180          1           0       -8.914818    1.626695    2.026559
    181          1           0       -8.626048    3.832055    3.131490
    182          1           0       -7.257610    5.970188    3.364278
    183          1           0       -5.325640    7.328949    2.606066
    184          1           0       -3.923580    6.593154    0.697046
    185          1           0       -5.678463    2.296638   -0.494688
    186          1           0       -2.337891    4.272044    0.257005
    187          1           0       -1.018037    3.561868   -1.691463
    188          1           0       -4.577190    3.658632   -4.138608
    189          1           0       -5.898348    4.393346   -2.176416
    190          1           0       -1.196997    2.681995   -7.773663
    191          1           0        0.046440    1.065569   -9.239261
    192          1           0        1.268363   -0.850441   -8.172424
    193          1           0        1.030416   -3.081496   -2.437670
    194          1           0        2.341517   -4.211781   -0.691543
    195          1           0        5.903557   -3.832514   -3.095536
    196          1           0        4.591003   -2.675718   -4.850323
    197          1           0        3.925486   -6.594150   -0.774184
    198          1           0        5.323812   -7.727903    0.932659
    199          1           0        7.250764   -6.566681    1.975347
    200          1           0        8.621466   -4.427604    2.214575
    201          1           0        8.908375   -2.034971    1.619796
    202          1           0        5.673592   -2.139201   -0.989456
    203          1           0       -8.921649    2.019642   -1.629333
    204          1           0       -8.626254    3.131760   -3.830530
    205          1           0       -7.251688    3.372937   -5.962578
    206          1           0       -5.314938    2.620454   -7.318232
    207          1           0       -3.914390    0.709344   -6.585260
    208          1           0       -5.680215   -0.496062   -2.296739
    209          1           0       -5.897547   -2.170033   -4.397830
    210          1           0       -4.580410   -4.136219   -3.666855
    211          1           0       -1.018122   -1.694153   -3.556211
    212          1           0       -2.333870    0.258276   -4.263127
    213          1           0       -1.226362   -7.780738   -2.674928
    214          1           0        0.004668   -9.250026   -1.052600
    215          1           0        1.234651   -8.185799    0.859793
    216          1           0        1.017401   -2.454638    3.084866
    217          1           0        2.326803   -0.706593    4.213668
    218          1           0        5.894516   -3.100385    3.820346
    219          1           0        4.583429   -4.857301    2.666293
    220          1           0        3.906247   -0.784717    6.587491
    221          1           0        5.298797    0.924097    7.725653
    222          1           0        7.229436    1.967386    6.570990
    223          1           0        8.606805    2.207140    4.438257
    224          1           0        8.905316    1.611150    2.046692
    225          1           0        5.668705   -0.996655    2.137221
    226          1           0       -8.926044   -1.630959   -2.018790
    227          1           0       -8.632800   -3.828385   -3.138057
    228          1           0       -7.256446   -5.959671   -3.388963
    229          1           0       -5.320694   -7.318380   -2.641009
    230          1           0       -3.920670   -6.593066   -0.725819
    231          1           0       -5.680828   -2.306727    0.490273
    232          1           0       -5.903131   -4.427110    2.161587
    233          1           0       -4.589809   -3.692278    4.129379
    234          1           0       -1.030331   -3.547461    1.685245
    235          1           0       -2.342515   -4.257880   -0.268806
    236          1           0       -1.266251   -2.660087    7.774306
    237          1           0       -0.042751   -1.033801    9.244656
    238          1           0        1.201398    0.869643    8.180365
    239          1           0        1.013925    3.074072    2.442343
    240          1           0        2.327583    4.202385    0.697148
    241          1           0        5.887513    3.817432    3.103922
    242          1           0        4.572280    2.662894    4.857331
    243          1           0        3.907805    6.582576    0.783781
    244          1           0        5.306971    7.721797   -0.917599
    245          1           0        7.241761    6.567516   -1.955184
    246          1           0        8.618826    4.434008   -2.192687
    247          1           0        8.911225    2.040461   -1.600614
    248          1           0        5.666230    2.130897    0.996440
    249          7           0       -7.282855   -0.732834    1.894712
    250          7           0        0.008897    5.410332    0.597524
    251          7           0        7.282438   -0.292871   -2.002401
    252          7           0       -7.291085    1.889540    0.730694
    253          7           0        0.012207    0.608017   -5.391711
    254          7           0        7.284684   -2.008342    0.297218
    255          7           0       -7.295290    0.726519   -1.890880
    256          7           0        0.002264   -5.400592   -0.610190
    257          7           0        7.280629    0.289623    2.013106
    258          7           0       -7.297006   -1.896113   -0.729375
    259          7           0       -0.010922   -0.613060    5.393013
    260          7           0        7.282225    2.006766   -0.284771
    261         46           0       -7.376038   -0.003686    0.002000
    262         46           0        7.365073   -0.000941    0.005398
 ---------------------------------------------------------------------

 SCF Done:  E(RPBE1PBE) =  -6900.10992278     A.U. after   17 cycles

 The electronic state is 1-A.
 Alpha  occ. eigenvalues --  -14.48532 -14.48530 -14.48528 -14.48524 -14.48524
 Alpha  occ. eigenvalues --  -14.48523 -14.48521 -14.48518 -14.41751 -14.41748
 Alpha  occ. eigenvalues --  -14.41746 -14.41746 -10.32448 -10.32448 -10.32446
 Alpha  occ. eigenvalues --  -10.32443 -10.32441 -10.32440 -10.32439 -10.32433
 Alpha  occ. eigenvalues --  -10.31782 -10.31781 -10.31779 -10.31778 -10.31777
 Alpha  occ. eigenvalues --  -10.31776 -10.31776 -10.31775 -10.31100 -10.31098
 Alpha  occ. eigenvalues --  -10.31098 -10.31097 -10.31096 -10.31093 -10.31091
 Alpha  occ. eigenvalues --  -10.31089 -10.29266 -10.29263 -10.29262 -10.29261
 Alpha  occ. eigenvalues --  -10.29261 -10.29260 -10.29255 -10.29255 -10.28993
 Alpha  occ. eigenvalues --  -10.28992 -10.28991 -10.28990 -10.28988 -10.28986
 Alpha  occ. eigenvalues --  -10.28982 -10.28980 -10.28660 -10.28656 -10.28655
 Alpha  occ. eigenvalues --  -10.28654 -10.28654 -10.28651 -10.28648 -10.28647
 Alpha  occ. eigenvalues --  -10.28600 -10.28598 -10.28597 -10.28597 -10.28595
 Alpha  occ. eigenvalues --  -10.28594 -10.28593 -10.28592 -10.28031 -10.28030
 Alpha  occ. eigenvalues --  -10.28029 -10.28028 -10.28027 -10.28025 -10.28023
 Alpha  occ. eigenvalues --  -10.28022 -10.27633 -10.27630 -10.27630 -10.27630
 Alpha  occ. eigenvalues --  -10.27598 -10.27597 -10.27596 -10.27596 -10.27594
 Alpha  occ. eigenvalues --  -10.27592 -10.27592 -10.27591 -10.27419 -10.27418
 Alpha  occ. eigenvalues --  -10.27417 -10.27417 -10.27413 -10.27412 -10.27409
 Alpha  occ. eigenvalues --  -10.27409 -10.27142 -10.27140 -10.27139 -10.27139
 Alpha  occ. eigenvalues --  -10.27139 -10.27137 -10.27137 -10.27137 -10.27116
 Alpha  occ. eigenvalues --  -10.27114 -10.27114 -10.27113 -10.27112 -10.27109
 Alpha  occ. eigenvalues --  -10.27108 -10.27107 -10.27020 -10.27019 -10.27018
 Alpha  occ. eigenvalues --  -10.27017 -10.27014 -10.27014 -10.27011 -10.27009
 Alpha  occ. eigenvalues --  -10.26746 -10.26746 -10.26745 -10.26743 -10.26740
 Alpha  occ. eigenvalues --  -10.26739 -10.26738 -10.26736 -10.26551 -10.26550
 Alpha  occ. eigenvalues --  -10.26550 -10.26548 -10.26546 -10.26545 -10.26545
 Alpha  occ. eigenvalues --  -10.26542 -10.26452 -10.26447 -10.26446 -10.26445
 Alpha  occ. eigenvalues --  -10.26445 -10.26444 -10.26441 -10.26438 -10.26437
 Alpha  occ. eigenvalues --  -10.26435 -10.26435 -10.26432 -10.26431 -10.26430
 Alpha  occ. eigenvalues --  -10.26429 -10.26429 -10.26115 -10.26114 -10.26113
 Alpha  occ. eigenvalues --  -10.26111 -10.26110 -10.26108 -10.26108 -10.26104
 Alpha  occ. eigenvalues --  -10.25944 -10.25941 -10.25940 -10.25939 -10.25939
 Alpha  occ. eigenvalues --  -10.25939 -10.25937 -10.25931  -3.57120  -3.57105
 Alpha  occ. eigenvalues --   -2.24968  -2.24965  -2.24953  -2.24951  -2.20735
 Alpha  occ. eigenvalues --   -2.20718  -1.03469  -1.03463  -1.02721  -1.02716
 Alpha  occ. eigenvalues --   -1.02713  -1.02712  -1.02486  -1.02480  -1.00173
 Alpha  occ. eigenvalues --   -1.00167  -1.00166  -1.00166  -0.92777  -0.92775
 Alpha  occ. eigenvalues --   -0.92655  -0.92653  -0.92652  -0.92651  -0.92598
 Alpha  occ. eigenvalues --   -0.92594  -0.90591  -0.90570  -0.90531  -0.90530
 Alpha  occ. eigenvalues --   -0.90516  -0.90514  -0.90501  -0.90498  -0.85920
 Alpha  occ. eigenvalues --   -0.85852  -0.85852  -0.85808  -0.85652  -0.85634
 Alpha  occ. eigenvalues --   -0.85620  -0.85619  -0.84866  -0.84829  -0.84828
 Alpha  occ. eigenvalues --   -0.84818  -0.84606  -0.84600  -0.84598  -0.84596
 Alpha  occ. eigenvalues --   -0.83048  -0.82908  -0.82907  -0.82874  -0.82839
 Alpha  occ. eigenvalues --   -0.82681  -0.82680  -0.82679  -0.82332  -0.82191
 Alpha  occ. eigenvalues --   -0.82191  -0.82150  -0.81984  -0.81893  -0.81893
 Alpha  occ. eigenvalues --   -0.81847  -0.79600  -0.79557  -0.79557  -0.79547
 Alpha  occ. eigenvalues --   -0.78882  -0.78847  -0.78846  -0.78834  -0.78756
 Alpha  occ. eigenvalues --   -0.78747  -0.78746  -0.78705  -0.78694  -0.78621
 Alpha  occ. eigenvalues --   -0.78619  -0.78563  -0.76485  -0.76474  -0.76467
 Alpha  occ. eigenvalues --   -0.76465  -0.75221  -0.75178  -0.75177  -0.75155
 Alpha  occ. eigenvalues --   -0.70844  -0.70823  -0.70758  -0.70704  -0.70663
 Alpha  occ. eigenvalues --   -0.70663  -0.70628  -0.70627  -0.69611  -0.69546
 Alpha  occ. eigenvalues --   -0.69515  -0.69514  -0.69479  -0.69478  -0.69458
 Alpha  occ. eigenvalues --   -0.69448  -0.68664  -0.68645  -0.68599  -0.68594
 Alpha  occ. eigenvalues --   -0.68535  -0.68535  -0.68484  -0.68483  -0.66994
 Alpha  occ. eigenvalues --   -0.66990  -0.66988  -0.66975  -0.66861  -0.66797
 Alpha  occ. eigenvalues --   -0.66796  -0.66742  -0.64719  -0.64649  -0.64644
 Alpha  occ. eigenvalues --   -0.64618  -0.64607  -0.64556  -0.64554  -0.64545
 Alpha  occ. eigenvalues --   -0.63409  -0.63220  -0.63219  -0.63195  -0.63112
 Alpha  occ. eigenvalues --   -0.63040  -0.63040  -0.63029  -0.60300  -0.60119
 Alpha  occ. eigenvalues --   -0.60116  -0.59944  -0.58594  -0.58571  -0.58309
 Alpha  occ. eigenvalues --   -0.58202  -0.58176  -0.58173  -0.58096  -0.58095
 Alpha  occ. eigenvalues --   -0.57748  -0.57681  -0.57458  -0.57457  -0.57428
 Alpha  occ. eigenvalues --   -0.57427  -0.57424  -0.57359  -0.57282  -0.57125
 Alpha  occ. eigenvalues --   -0.57084  -0.57083  -0.56819  -0.56595  -0.56376
 Alpha  occ. eigenvalues --   -0.56347  -0.56346  -0.56261  -0.56025  -0.56018
 Alpha  occ. eigenvalues --   -0.55503  -0.55502  -0.55476  -0.55475  -0.54240
 Alpha  occ. eigenvalues --   -0.54214  -0.54212  -0.54188  -0.52144  -0.52022
 Alpha  occ. eigenvalues --   -0.52021  -0.52012  -0.52009  -0.51843  -0.51764
 Alpha  occ. eigenvalues --   -0.51763  -0.51679  -0.51560  -0.51401  -0.51400
 Alpha  occ. eigenvalues --   -0.51305  -0.51156  -0.50839  -0.50701  -0.50698
 Alpha  occ. eigenvalues --   -0.50683  -0.50655  -0.50653  -0.50485  -0.50464
 Alpha  occ. eigenvalues --   -0.50285  -0.50243  -0.50163  -0.50163  -0.50123
 Alpha  occ. eigenvalues --   -0.50122  -0.50036  -0.49891  -0.49821  -0.49820
 Alpha  occ. eigenvalues --   -0.49791  -0.49616  -0.49479  -0.49452  -0.49318
 Alpha  occ. eigenvalues --   -0.49316  -0.49218  -0.49215  -0.49058  -0.49051
 Alpha  occ. eigenvalues --   -0.47994  -0.47990  -0.47989  -0.47988  -0.47945
 Alpha  occ. eigenvalues --   -0.47944  -0.47861  -0.47792  -0.47483  -0.47482
 Alpha  occ. eigenvalues --   -0.47408  -0.47404  -0.47204  -0.47188  -0.47171
 Alpha  occ. eigenvalues --   -0.46988  -0.46984  -0.46789  -0.46726  -0.46723
 Alpha  occ. eigenvalues --   -0.46650  -0.46589  -0.46366  -0.46287  -0.46283
 Alpha  occ. eigenvalues --   -0.46103  -0.45882  -0.45778  -0.45725  -0.45723
 Alpha  occ. eigenvalues --   -0.45644  -0.45637  -0.45086  -0.44943  -0.44940
 Alpha  occ. eigenvalues --   -0.44883  -0.44869  -0.44862  -0.44222  -0.44221
 Alpha  occ. eigenvalues --   -0.44193  -0.44192  -0.44106  -0.44092  -0.44086
 Alpha  occ. eigenvalues --   -0.44083  -0.43560  -0.43556  -0.43451  -0.43424
 Alpha  occ. eigenvalues --   -0.42485  -0.42389  -0.42385  -0.42349  -0.42333
 Alpha  occ. eigenvalues --   -0.42283  -0.42280  -0.42195  -0.42179  -0.42177
 Alpha  occ. eigenvalues --   -0.42133  -0.42129  -0.42068  -0.42018  -0.41815
 Alpha  occ. eigenvalues --   -0.41793  -0.41655  -0.41655  -0.41590  -0.41533
 Alpha  occ. eigenvalues --   -0.41502  -0.41502  -0.41424  -0.41423  -0.41394
 Alpha  occ. eigenvalues --   -0.41356  -0.40789  -0.40786  -0.40760  -0.40757
 Alpha  occ. eigenvalues --   -0.40430  -0.40417  -0.39875  -0.39626  -0.39293
 Alpha  occ. eigenvalues --   -0.39289  -0.38713  -0.38712  -0.38643  -0.38543
 Alpha  occ. eigenvalues --   -0.38531  -0.38260  -0.38258  -0.38148  -0.37892
 Alpha  occ. eigenvalues --   -0.37890  -0.37840  -0.37840  -0.37752  -0.37650
 Alpha  occ. eigenvalues --   -0.37640  -0.37549  -0.36950  -0.36909  -0.36904
 Alpha  occ. eigenvalues --   -0.36840  -0.36301  -0.36300  -0.36297  -0.36040
 Alpha  occ. eigenvalues --   -0.36036  -0.35608  -0.35296  -0.35293  -0.35044
 Alpha  occ. eigenvalues --   -0.34981  -0.34975  -0.34884  -0.34882  -0.34571
 Alpha  occ. eigenvalues --   -0.34382  -0.34288  -0.34284  -0.33739  -0.33675
 Alpha  occ. eigenvalues --   -0.33671  -0.33481  -0.33478  -0.33395  -0.33354
 Alpha  occ. eigenvalues --   -0.33241  -0.33236  -0.33154  -0.33048  -0.33044
 Alpha  occ. eigenvalues --   -0.33007  -0.31557  -0.31443  -0.31116  -0.31110
 Alpha  occ. eigenvalues --   -0.31107  -0.30944  -0.30939  -0.30931  -0.30546
 Alpha  occ. eigenvalues --   -0.30542  -0.30542  -0.30519  -0.30509  -0.30382
 Alpha  occ. eigenvalues --   -0.30380  -0.30308  -0.29467  -0.29291  -0.29253
 Alpha  occ. eigenvalues --   -0.29248  -0.29246  -0.29230  -0.29180  -0.29178
 Alpha  occ. eigenvalues --   -0.29156  -0.29154  -0.29088  -0.29084  -0.29020
 Alpha  occ. eigenvalues --   -0.28791  -0.28150  -0.27912  -0.27908  -0.27682
 Alpha  occ. eigenvalues --   -0.27660  -0.27283  -0.27281  -0.26997  -0.25895
 Alpha  occ. eigenvalues --   -0.25891  -0.25871  -0.25868  -0.25132  -0.25103
 Alpha  occ. eigenvalues --   -0.25100  -0.25072
 Alpha virt. eigenvalues --   -0.09836  -0.09825  -0.09614  -0.09614  -0.09567
 Alpha virt. eigenvalues --   -0.09566  -0.09523  -0.09454  -0.08059  -0.08010
 Alpha virt. eigenvalues --   -0.07921  -0.07743  -0.07741  -0.07618  -0.07481

 Mulliken charges:
               1
     1  C    0.129146
     2  C   -0.027192
     3  C    0.020964
     4  C   -0.011648
     5  C    0.002279
     6  C   -0.013645
     7  C    0.046458
     8  C   -0.017330
     9  C    0.153807
    10  C   -0.062728
    11  C    0.014982
    12  C    0.000015
    13  C   -0.074100
    14  C    0.017853
    15  C   -0.031659
    16  C   -0.006403
    17  C    0.040574
    18  C   -0.072116
    19  C    0.026469
    20  C    0.033889
    21  C    0.026144
    22  C   -0.073127
    23  C    0.040125
    24  C   -0.005052
    25  C   -0.074658
    26  C    0.017084
    27  C   -0.030187
    28  C   -0.065636
    29  C    0.016296
    30  C    0.000542
    31  C    0.045059
    32  C   -0.013125
    33  C    0.001999
    34  C   -0.011510
    35  C    0.021684
    36  C   -0.027205
    37  C    0.128870
    38  C    0.154625
    39  C   -0.017548
    40  C    0.129604
    41  C   -0.027150
    42  C    0.021471
    43  C   -0.011397
    44  C    0.002268
    45  C   -0.014877
    46  C    0.047112
    47  C   -0.017963
    48  C    0.153360
    49  C   -0.061170
    50  C    0.014948
    51  C    0.000691
    52  C   -0.074537
    53  C    0.017905
    54  C   -0.032746
    55  C   -0.006093
    56  C    0.040364
    57  C   -0.072097
    58  C    0.026406
    59  C    0.033871
    60  C    0.026135
    61  C   -0.073234
    62  C    0.039846
    63  C   -0.004883
    64  C   -0.074393
    65  C    0.000608
    66  C    0.015986
    67  C   -0.063669
    68  C   -0.032075
    69  C    0.017645
    70  C    0.046308
    71  C   -0.014004
    72  C    0.002042
    73  C   -0.011481
    74  C    0.021924
    75  C   -0.027028
    76  C    0.129163
    77  C    0.153377
    78  C   -0.017956
    79  C    0.129511
    80  C   -0.027213
    81  C    0.021030
    82  C   -0.011349
    83  C    0.002213
    84  C   -0.014984
    85  C    0.047427
    86  C   -0.018151
    87  C    0.153449
    88  C   -0.061036
    89  C   -0.032742
    90  C    0.017930
    91  C   -0.074549
    92  C    0.000699
    93  C    0.014684
    94  C   -0.005414
    95  C    0.040018
    96  C   -0.072770
    97  C    0.026383
    98  C    0.033820
    99  C    0.026286
   100  C   -0.072740
   101  C    0.040585
   102  C   -0.006004
   103  C   -0.074199
   104  C    0.000486
   105  C    0.015179
   106  C   -0.062232
   107  C   -0.032500
   108  C    0.017715
   109  C    0.046512
   110  C   -0.014092
   111  C    0.002085
   112  C   -0.011632
   113  C    0.021744
   114  C   -0.027119
   115  C    0.129231
   116  C    0.153029
   117  C   -0.017764
   118  C    0.129780
   119  C   -0.027187
   120  C    0.021353
   121  C   -0.011408
   122  C    0.002176
   123  C   -0.014606
   124  C    0.047053
   125  C   -0.018495
   126  C    0.153847
   127  C   -0.062759
   128  C   -0.032428
   129  C    0.017695
   130  C   -0.074565
   131  C    0.000657
   132  C    0.015654
   133  C   -0.004282
   134  C    0.039543
   135  C   -0.073138
   136  C    0.026024
   137  C    0.033989
   138  C    0.026437
   139  C   -0.072295
   140  C    0.040813
   141  C   -0.006294
   142  C   -0.073829
   143  C   -0.000010
   144  C    0.015329
   145  C   -0.063173
   146  C   -0.031854
   147  C    0.017642
   148  C    0.046393
   149  C   -0.013594
   150  C    0.001955
   151  C   -0.011666
   152  C    0.022376
   153  C   -0.027138
   154  C    0.129341
   155  C    0.152983
   156  C   -0.017630
   157  H    0.112445
   158  H    0.061829
   159  H    0.048578
   160  H    0.061324
   161  H    0.045630
   162  H    0.118271
   163  H    0.022637
   164  H    0.034533
   165  H    0.036122
   166  H    0.047271
   167  H    0.051358
   168  H    0.064116
   169  H    0.051472
   170  H    0.036734
   171  H    0.047060
   172  H    0.022889
   173  H    0.034740
   174  H    0.045649
   175  H    0.061412
   176  H    0.048556
   177  H    0.061927
   178  H    0.112750
   179  H    0.117916
   180  H    0.112609
   181  H    0.061863
   182  H    0.048548
   183  H    0.061460
   184  H    0.045783
   185  H    0.118309
   186  H    0.021929
   187  H    0.034509
   188  H    0.035820
   189  H    0.047306
   190  H    0.051371
   191  H    0.064126
   192  H    0.051453
   193  H    0.034674
   194  H    0.022546
   195  H    0.047336
   196  H    0.036353
   197  H    0.045706
   198  H    0.061487
   199  H    0.048576
   200  H    0.061965
   201  H    0.112917
   202  H    0.118546
   203  H    0.112638
   204  H    0.061858
   205  H    0.048594
   206  H    0.061496
   207  H    0.045834
   208  H    0.118508
   209  H    0.047361
   210  H    0.035859
   211  H    0.034573
   212  H    0.022223
   213  H    0.051416
   214  H    0.064126
   215  H    0.051414
   216  H    0.034502
   217  H    0.022570
   218  H    0.047367
   219  H    0.036128
   220  H    0.045812
   221  H    0.061462
   222  H    0.048579
   223  H    0.061907
   224  H    0.112932
   225  H    0.118411
   226  H    0.112632
   227  H    0.061859
   228  H    0.048570
   229  H    0.061493
   230  H    0.045636
   231  H    0.118678
   232  H    0.047443
   233  H    0.036455
   234  H    0.034621
   235  H    0.022254
   236  H    0.051454
   237  H    0.064148
   238  H    0.051408
   239  H    0.034460
   240  H    0.022766
   241  H    0.047337
   242  H    0.036145
   243  H    0.045676
   244  H    0.061358
   245  H    0.048515
   246  H    0.061883
   247  H    0.112703
   248  H    0.118397
   249  N   -0.342898
   250  N   -0.192350
   251  N   -0.342496
   252  N   -0.342866
   253  N   -0.192293
   254  N   -0.342755
   255  N   -0.343013
   256  N   -0.192097
   257  N   -0.342694
   258  N   -0.342809
   259  N   -0.192683
   260  N   -0.342658
   261  Pd   0.457290
   262  Pd   0.455964
 Sum of Mulliken charges =   4.00000

 Dipole moment (field-independent basis, Debye):
    X=             -0.0126    Y=              0.0168    Z=              0.0552  Tot=              0.0591
 Quadrupole moment (field-independent basis, Debye-Ang):
   XX=             -6.1552   YY=           -621.4527   ZZ=           -621.8594
   XY=              0.1872   XZ=             -0.1668   YZ=              0.1868

 Normal termination of Gaussian 16 at Fri Nov 17 10:13:46 2023.
