 Gaussian 16, Revision C.01,
 Gaussian 16:  ES64L-G16RevC.01  3-Jul-2019

 ----------------------------------------------------------------------
 #P PBE1PBE/Def2SVP SP SCF=(YQC,MaxCycle=900) int=(Grid=Superfinegrid)
 EmpiricalDispersion=GD3BJ SCRF=(PCM,Solvent=DiMethylSulfoxide)
 ----------------------------------------------------------------------

 --------
 _s_5d3_a
 --------
 Symbolic Z-matrix:
 Charge =  4 Multiplicity = 1

                         Standard orientation:
 ---------------------------------------------------------------------
 Center     Atomic      Atomic             Coordinates (Angstroms)
 Number     Number       Type             X           Y           Z
 ---------------------------------------------------------------------
      1         46           0       -4.643861   -0.003722   -0.001204
      2         46           0        5.960917   -0.001978   -0.001772
      3          6           0       -1.631881    5.087674    4.888542
      4          6           0       -2.785471    4.836657    4.627213
      5          6           0       -4.086090    4.456630    4.242534
      6          6           0       -5.217367    5.043938    4.777983
      7          6           0       -6.495838    4.639887    4.372872
      8          6           0       -6.665096    3.652760    3.436046
      9          6           0       -5.535790    3.027890    2.864553
     10          6           0       -5.636668    2.008022    1.897059
     11          7           0       -4.581597    1.428503    1.366302
     12          6           0       -3.334840    1.806305    1.745987
     13          6           0       -3.128134    2.783411    2.675043
     14          6           0       -4.231364    3.429276    3.267381
     15          1           0       -5.113599    5.823424    5.517575
     16          1           0       -7.356631    5.120400    4.812184
     17          1           0       -7.653721    3.348739    3.130884
     18          1           0       -6.611826    1.668399    1.558413
     19          1           0       -2.504876    1.286854    1.269196
     20          1           0       -2.132708    3.074674    2.968143
     21          6           0       -0.276132    5.355321    5.173727
     22          6           0        0.081482    6.337837    6.101660
     23          6           0        1.417707    6.581635    6.367308
     24          6           0        2.406705    5.860189    5.722887
     25          6           0        2.057252    4.875164    4.791917
     26          6           0        0.714952    4.624855    4.518147
     27          1           0       -0.687724    6.901912    6.607275
     28          1           0        1.689870    7.341546    7.084777
     29          1           0        3.446851    6.054866    5.935191
     30          1           0        0.444726    3.865297    3.801604
     31          6           0        3.074635    4.144065    4.143067
     32          6           0        3.947618    3.517746    3.588344
     33          6           0        5.065198    2.866554    3.030557
     34          6           0        6.347568    3.175243    3.507821
     35          6           0        7.443859    2.538750    2.956872
     36          6           0        7.244879    1.614061    1.945040
     37          7           0        6.022160    1.319744    1.489747
     38          6           0        4.951424    1.918850    2.008086
     39          1           0        6.465287    3.902413    4.295910
     40          1           0        8.440793    2.755877    3.304660
     41          1           0        8.084951    1.093354    1.488500
     42          1           0        3.985358    1.638026    1.597569
     43          6           0       -1.631706   -4.889362    5.092960
     44          6           0       -2.785485   -4.628021    4.842860
     45          6           0       -4.086170   -4.243056    4.463277
     46          6           0       -5.217431   -4.777036    5.052131
     47          6           0       -6.495850   -4.371849    4.648216
     48          6           0       -6.665231   -3.436321    3.659739
     49          6           0       -5.535896   -2.866365    3.033360
     50          6           0       -5.636808   -1.900210    2.012177
     51          7           0       -4.581872   -1.370843    1.431501
     52          6           0       -3.335051   -1.750476    1.809272
     53          6           0       -3.128324   -2.678345    2.787401
     54          6           0       -4.231447   -3.269325    3.434632
     55          1           0       -5.113559   -5.515501    5.832555
     56          1           0       -7.356642   -4.809948    5.129894
     57          1           0       -7.653833   -3.131299    3.355743
     58          1           0       -6.612014   -1.561624    1.672663
     59          1           0       -2.505186   -1.274742    1.288777
     60          1           0       -2.132928   -2.971420    3.078656
     61          6           0       -0.275855   -5.174708    5.359926
     62          6           0        0.082186   -6.103024    6.341979
     63          6           0        1.418583   -6.368808    6.584914
     64          6           0        2.407234   -5.724428    5.863049
     65          6           0        2.057361   -4.793046    4.878464
     66          6           0        0.714824   -4.519031    4.629008
     67          1           0       -0.686715   -6.608734    6.906384
     68          1           0        1.691150   -7.086483    7.344400
     69          1           0        3.447386   -5.936874    6.056962
     70          1           0        0.444249   -3.802260    3.869850
     71          6           0        3.074334   -4.144526    4.146796
     72          6           0        3.947312   -3.590281    3.519921
     73          6           0        5.064843   -3.032961    2.868115
     74          6           0        6.347156   -3.510516    3.176671
     75          6           0        7.443374   -2.960347    2.539478
     76          6           0        7.244464   -1.948952    1.614296
     77          7           0        6.021814   -1.493399    1.320131
     78          6           0        4.951070   -2.011008    1.919866
     79          1           0        6.464898   -4.298149    3.904339
     80          1           0        8.440282   -3.308263    2.756528
     81          1           0        8.084511   -1.492952    1.093063
     82          1           0        3.984997   -1.600350    1.639038
     83          6           0       -1.633023   -5.089013   -4.896829
     84          6           0       -2.786817   -4.838597   -4.635453
     85          6           0       -4.087353   -4.458948   -4.250451
     86          6           0       -5.218768   -5.044789   -4.787254
     87          6           0       -6.497153   -4.640862   -4.381667
     88          6           0       -6.666166   -3.655367   -3.443075
     89          6           0       -5.536790   -3.032013   -2.870229
     90          6           0       -5.637439   -2.013735   -1.900896
     91          7           0       -4.582293   -1.435631   -1.368973
     92          6           0       -3.335579   -1.813526   -1.748788
     93          6           0       -3.129035   -2.789080   -2.679429
     94          6           0       -4.232441   -3.433282   -3.273345
     95          1           0       -5.115120   -5.822906   -5.528276
     96          1           0       -7.357984   -5.120165   -4.822114
     97          1           0       -7.654796   -3.351383   -3.137753
     98          1           0       -6.612565   -1.674315   -1.562106
     99          1           0       -2.505473   -1.295400   -1.270881
    100          1           0       -2.133671   -3.080494   -2.972661
    101          6           0       -0.277165   -5.356216   -5.181919
    102          6           0        0.080906   -6.337745   -6.110827
    103          6           0        1.417274   -6.580944   -6.376220
    104          6           0        2.405850   -5.860198   -5.730680
    105          6           0        2.056064   -4.876170   -4.798780
    106          6           0        0.713527   -4.626330   -4.525134
    107          1           0       -0.688059   -6.901349   -6.617279
    108          1           0        1.689848   -7.340051   -7.094459
    109          1           0        3.446095   -6.054435   -5.942808
    110          1           0        0.442934   -3.867597   -3.807900
    111          6           0        3.073105   -4.145639   -4.148912
    112          6           0        3.945932   -3.519586   -3.593521
    113          6           0        5.063616   -2.869115   -3.035089
    114          6           0        6.345921   -3.177940   -3.512781
    115          6           0        7.442407   -2.542114   -2.961488
    116          6           0        7.243732   -1.617986   -1.949000
    117          7           0        6.021188   -1.323628   -1.493369
    118          6           0        4.950274   -1.922151   -2.011994
    119          1           0        6.463331   -3.904560   -4.301360
    120          1           0        8.439176   -2.759355   -3.309486
    121          1           0        8.084033   -1.097909   -1.492163
    122          1           0        3.984289   -1.641311   -1.601176
    123          6           0       -1.633313    4.899280   -5.080032
    124          6           0       -2.786952    4.636439   -4.830691
    125          6           0       -4.087401    4.249792   -4.452309
    126          6           0       -5.218876    4.786743   -5.037869
    127          6           0       -6.497274    4.379923   -4.635219
    128          6           0       -6.666213    3.439876   -3.650942
    129          6           0       -5.536716    2.866831   -3.027922
    130          6           0       -5.637294    1.896480   -2.010712
    131          7           0       -4.582115    1.364246   -1.432888
    132          6           0       -3.335411    1.744692   -1.810264
    133          6           0       -3.128896    2.676732   -2.784590
    134          6           0       -4.232395    3.271147   -3.428174
    135          1           0       -5.115297    5.528927   -5.814906
    136          1           0       -7.358172    4.820409   -5.114458
    137          1           0       -7.654777    3.133643   -3.347875
    138          1           0       -6.612312    1.556862   -1.671782
    139          1           0       -2.505302    1.266112   -1.292743
    140          1           0       -2.133647    2.970559   -3.075466
    141          6           0       -0.277617    5.186254   -5.346236
    142          6           0        0.079747    6.118821   -6.324374
    143          6           0        1.415998    6.386110   -6.566529
    144          6           0        2.405047    5.738882   -5.847849
    145          6           0        2.055751    4.803232   -4.867099
    146          6           0        0.713509    4.527705   -4.618427
    147          1           0       -0.689468    6.626687   -6.886375
    148          1           0        1.688075    7.107178   -7.323034
    149          1           0        3.445151    5.952535   -6.041220
    150          1           0        0.443445    3.807659   -3.862178
    151          6           0        3.073234    4.151570   -4.138733
    152          6           0        3.946429    3.594676   -3.514562
    153          6           0        5.064256    3.034401   -2.865924
    154          6           0        6.346645    3.511262   -3.175205
    155          6           0        7.443256    2.958177   -2.540916
    156          6           0        7.244419    1.944878   -1.617815
    157          7           0        6.021679    1.489922   -1.323023
    158          6           0        4.950738    2.010157   -1.920012
    159          1           0        6.464257    4.300520   -3.901048
    160          1           0        8.440180    3.305636   -2.758530
    161          1           0        8.084633    1.486754   -1.098744
    162          1           0        3.984667    1.599799   -1.639024
 ---------------------------------------------------------------------

 SCF Done:  E(RPBE1PBE) =  -4377.37282340     a.u. after   30 cycles
 SCF Done:  E(RPBE1PBE) =  -4377.37290468     A.U. after   10 cycles

 The electronic state is 1-A.
 Alpha  occ. eigenvalues --  -14.49302 -14.49294 -14.49294 -14.49291 -14.48587
 Alpha  occ. eigenvalues --  -14.48578 -14.48577 -14.48574 -10.32701 -10.32701
 Alpha  occ. eigenvalues --  -10.32700 -10.32698 -10.32511 -10.32511 -10.32510
 Alpha  occ. eigenvalues --  -10.32508 -10.32259 -10.32258 -10.32257 -10.32254
 Alpha  occ. eigenvalues --  -10.31215 -10.31212 -10.31212 -10.31209 -10.31005
 Alpha  occ. eigenvalues --  -10.31005 -10.31004 -10.31004 -10.29462 -10.29462
 Alpha  occ. eigenvalues --  -10.29462 -10.29461 -10.29454 -10.29454 -10.29454
 Alpha  occ. eigenvalues --  -10.29453 -10.29380 -10.29379 -10.29379 -10.29379
 Alpha  occ. eigenvalues --  -10.28927 -10.28927 -10.28927 -10.28926 -10.28623
 Alpha  occ. eigenvalues --  -10.28623 -10.28623 -10.28623 -10.28574 -10.28574
 Alpha  occ. eigenvalues --  -10.28574 -10.28573 -10.28368 -10.28367 -10.28367
 Alpha  occ. eigenvalues --  -10.28367 -10.27860 -10.27859 -10.27859 -10.27857
 Alpha  occ. eigenvalues --  -10.27615 -10.27615 -10.27614 -10.27614 -10.27409
 Alpha  occ. eigenvalues --  -10.27409 -10.27408 -10.27407 -10.27096 -10.27096
 Alpha  occ. eigenvalues --  -10.27096 -10.27095 -10.27013 -10.27013 -10.27013
 Alpha  occ. eigenvalues --  -10.27012 -10.26849 -10.26847 -10.26847 -10.26847
 Alpha  occ. eigenvalues --  -10.26586 -10.26586 -10.26585 -10.26584 -10.26558
 Alpha  occ. eigenvalues --  -10.26557 -10.26557 -10.26556 -10.26556 -10.26556
 Alpha  occ. eigenvalues --  -10.26556 -10.26555 -10.26381 -10.26380 -10.26380
 Alpha  occ. eigenvalues --  -10.26379 -10.26068 -10.26067 -10.26067 -10.26067
 Alpha  occ. eigenvalues --  -10.25951 -10.25951 -10.25951 -10.25951  -3.57839
 Alpha  occ. eigenvalues --   -3.57371  -2.25735  -2.25734  -2.25279  -2.25278
 Alpha  occ. eigenvalues --   -2.21559  -2.21101  -1.04641  -1.04042  -1.03925
 Alpha  occ. eigenvalues --   -1.03925  -1.03851  -1.03295  -1.03295  -1.03229
 Alpha  occ. eigenvalues --   -0.92942  -0.92842  -0.92836  -0.92835  -0.92057
 Alpha  occ. eigenvalues --   -0.92053  -0.92053  -0.92052  -0.89078  -0.88829
 Alpha  occ. eigenvalues --   -0.88801  -0.88801  -0.85744  -0.85705  -0.85705
 Alpha  occ. eigenvalues --   -0.85663  -0.84885  -0.84789  -0.84788  -0.84747
 Alpha  occ. eigenvalues --   -0.84304  -0.84151  -0.84151  -0.84123  -0.83532
 Alpha  occ. eigenvalues --   -0.83377  -0.83376  -0.83372  -0.81717  -0.81653
 Alpha  occ. eigenvalues --   -0.81653  -0.81582  -0.80638  -0.80571  -0.80571
 Alpha  occ. eigenvalues --   -0.80466  -0.77750  -0.77660  -0.77660  -0.77572
 Alpha  occ. eigenvalues --   -0.76159  -0.76134  -0.76134  -0.76100  -0.71808
 Alpha  occ. eigenvalues --   -0.71699  -0.71653  -0.71653  -0.71360  -0.71360
 Alpha  occ. eigenvalues --   -0.71330  -0.71202  -0.69880  -0.69612  -0.69418
 Alpha  occ. eigenvalues --   -0.69418  -0.69307  -0.68995  -0.68995  -0.68995
 Alpha  occ. eigenvalues --   -0.68304  -0.68283  -0.68283  -0.68257  -0.66602
 Alpha  occ. eigenvalues --   -0.66542  -0.66541  -0.66527  -0.65555  -0.65518
 Alpha  occ. eigenvalues --   -0.65518  -0.65494  -0.62361  -0.61751  -0.61357
 Alpha  occ. eigenvalues --   -0.61357  -0.60916  -0.60453  -0.60209  -0.60209
 Alpha  occ. eigenvalues --   -0.59401  -0.59026  -0.58934  -0.58934  -0.58756
 Alpha  occ. eigenvalues --   -0.58129  -0.58128  -0.58104  -0.57141  -0.56831
 Alpha  occ. eigenvalues --   -0.56738  -0.56693  -0.56693  -0.56456  -0.56228
 Alpha  occ. eigenvalues --   -0.56228  -0.55388  -0.54938  -0.54937  -0.54552
 Alpha  occ. eigenvalues --   -0.53000  -0.52906  -0.52507  -0.52507  -0.52192
 Alpha  occ. eigenvalues --   -0.52053  -0.52006  -0.51831  -0.51781  -0.51780
 Alpha  occ. eigenvalues --   -0.51760  -0.51698  -0.51515  -0.51515  -0.51297
 Alpha  occ. eigenvalues --   -0.51214  -0.51139  -0.51139  -0.51120  -0.51053
 Alpha  occ. eigenvalues --   -0.49969  -0.49820  -0.49820  -0.49697  -0.49697
 Alpha  occ. eigenvalues --   -0.49428  -0.49428  -0.49408  -0.49277  -0.49154
 Alpha  occ. eigenvalues --   -0.49091  -0.49090  -0.48985  -0.48985  -0.48846
 Alpha  occ. eigenvalues --   -0.48739  -0.48739  -0.48551  -0.48025  -0.48025
 Alpha  occ. eigenvalues --   -0.47301  -0.47177  -0.46927  -0.46927  -0.46656
 Alpha  occ. eigenvalues --   -0.46648  -0.46647  -0.46643  -0.46197  -0.45476
 Alpha  occ. eigenvalues --   -0.44667  -0.44666  -0.44501  -0.44203  -0.43929
 Alpha  occ. eigenvalues --   -0.43916  -0.43915  -0.43798  -0.43778  -0.43609
 Alpha  occ. eigenvalues --   -0.43608  -0.43593  -0.43272  -0.42837  -0.42837
 Alpha  occ. eigenvalues --   -0.42101  -0.42051  -0.41913  -0.41912  -0.41851
 Alpha  occ. eigenvalues --   -0.41412  -0.40405  -0.40356  -0.40355  -0.40348
 Alpha  occ. eigenvalues --   -0.40300  -0.40196  -0.39669  -0.39668  -0.39601
 Alpha  occ. eigenvalues --   -0.39589  -0.39588  -0.39542  -0.39517  -0.39516
 Alpha  occ. eigenvalues --   -0.39428  -0.39368  -0.38926  -0.38160  -0.37663
 Alpha  occ. eigenvalues --   -0.37662  -0.36904  -0.36903  -0.36810  -0.36675
 Alpha  occ. eigenvalues --   -0.36483  -0.36482  -0.36296  -0.35034  -0.35034
 Alpha  occ. eigenvalues --   -0.34713  -0.34526  -0.34526  -0.34116  -0.34057
 Alpha  occ. eigenvalues --   -0.34057  -0.33825  -0.33825  -0.33655  -0.32499
 Alpha  occ. eigenvalues --   -0.32481  -0.32480  -0.32247  -0.32128  -0.31882
 Alpha  occ. eigenvalues --   -0.31841  -0.31782  -0.31780  -0.31587  -0.31585
 Alpha  occ. eigenvalues --   -0.31376  -0.31195  -0.31174  -0.31132  -0.31131
 Alpha  occ. eigenvalues --   -0.30638  -0.29791  -0.29609  -0.29609  -0.29393
 Alpha  occ. eigenvalues --   -0.29377  -0.28900  -0.26729  -0.26591  -0.26590
 Alpha  occ. eigenvalues --   -0.26403  -0.24940  -0.24873  -0.24873  -0.24761
 Alpha virt. eigenvalues --   -0.10238  -0.10128  -0.10127  -0.09609  -0.09592
 Alpha virt. eigenvalues --   -0.09199  -0.09198  -0.08508  -0.07489  -0.07488
 Alpha virt. eigenvalues --   -0.07461  -0.07181  -0.07030  -0.06975  -0.06975

 Mulliken charges:
               1
     1  Pd   0.511342
     2  Pd   0.512261
     3  C    0.014909
     4  C   -0.064948
     5  C   -0.016232
     6  C    0.020554
     7  C   -0.002151
     8  C    0.021594
     9  C   -0.063811
    10  C    0.183669
    11  N   -0.318293
    12  C    0.149757
    13  C   -0.010028
    14  C    0.064725
    15  H    0.044057
    16  H    0.054807
    17  H    0.044012
    18  H    0.088070
    19  H    0.089633
    20  H    0.043934
    21  C   -0.063994
    22  C    0.023292
    23  C   -0.011669
    24  C    0.019543
    25  C   -0.066285
    26  C    0.013699
    27  H    0.038853
    28  H    0.048350
    29  H    0.039165
    30  H    0.035463
    31  C    0.027079
    32  C   -0.023964
    33  C   -0.120078
    34  C    0.102575
    35  C   -0.028489
    36  C    0.145135
    37  N   -0.312559
    38  C    0.197667
    39  H    0.065641
    40  H    0.072228
    41  H    0.106956
    42  H    0.091227
    43  C    0.014929
    44  C   -0.064987
    45  C   -0.016287
    46  C    0.020678
    47  C   -0.002178
    48  C    0.021630
    49  C   -0.063933
    50  C    0.183718
    51  N   -0.318133
    52  C    0.149715
    53  C   -0.009975
    54  C    0.064736
    55  H    0.044006
    56  H    0.054821
    57  H    0.043983
    58  H    0.088054
    59  H    0.089619
    60  H    0.043876
    61  C   -0.063989
    62  C    0.023322
    63  C   -0.011633
    64  C    0.019631
    65  C   -0.066411
    66  C    0.013741
    67  H    0.038862
    68  H    0.048319
    69  H    0.039104
    70  H    0.035457
    71  C    0.027027
    72  C   -0.023901
    73  C   -0.120104
    74  C    0.102596
    75  C   -0.028491
    76  C    0.145088
    77  N   -0.312526
    78  C    0.197652
    79  H    0.065648
    80  H    0.072226
    81  H    0.106951
    82  H    0.091282
    83  C    0.014948
    84  C   -0.065003
    85  C   -0.016242
    86  C    0.020566
    87  C   -0.002129
    88  C    0.021531
    89  C   -0.063870
    90  C    0.183766
    91  N   -0.318141
    92  C    0.149704
    93  C   -0.009966
    94  C    0.064623
    95  H    0.044044
    96  H    0.054781
    97  H    0.044030
    98  H    0.088032
    99  H    0.089649
   100  H    0.043924
   101  C   -0.064029
   102  C    0.023363
   103  C   -0.011665
   104  C    0.019584
   105  C   -0.066353
   106  C    0.013716
   107  H    0.038843
   108  H    0.048370
   109  H    0.039143
   110  H    0.035465
   111  C    0.027136
   112  C   -0.024034
   113  C   -0.120121
   114  C    0.102624
   115  C   -0.028454
   116  C    0.145069
   117  N   -0.312480
   118  C    0.197664
   119  H    0.065621
   120  H    0.072194
   121  H    0.106932
   122  H    0.091253
   123  C    0.014960
   124  C   -0.065024
   125  C   -0.016224
   126  C    0.020537
   127  C   -0.002165
   128  C    0.021548
   129  C   -0.063760
   130  C    0.183682
   131  N   -0.318251
   132  C    0.149757
   133  C   -0.009909
   134  C    0.064632
   135  H    0.044051
   136  H    0.054815
   137  H    0.044014
   138  H    0.088042
   139  H    0.089640
   140  H    0.043869
   141  C   -0.063980
   142  C    0.023318
   143  C   -0.011668
   144  C    0.019595
   145  C   -0.066339
   146  C    0.013737
   147  H    0.038853
   148  H    0.048339
   149  H    0.039156
   150  H    0.035460
   151  C    0.027076
   152  C   -0.023970
   153  C   -0.120119
   154  C    0.102553
   155  C   -0.028463
   156  C    0.145088
   157  N   -0.312524
   158  C    0.197740
   159  H    0.065624
   160  H    0.072226
   161  H    0.106957
   162  H    0.091219
 Sum of Mulliken charges =   4.00000

 Dipole moment (field-independent basis, Debye):
    X=             12.2446    Y=             -0.0119    Z=             -0.0090  Tot=             12.2446
 Quadrupole moment (field-independent basis, Debye-Ang):
   XX=            137.1645   YY=           -386.7364   ZZ=           -386.9282
   XY=             -0.0542   XZ=             -0.0586   YZ=             -0.0013

 Normal termination of Gaussian 16 at Fri Feb 26 14:54:14 2021.
