 Gaussian 16, Revision C.01,
 Gaussian 16:  ES64L-G16RevC.01  3-Jul-2019

 ------------------------------------------------------------------
 # SP PBE1PBE/def2svp empiricaldispersion=GD3BJ scrf=(solvent=dmso)
 ------------------------------------------------------------------

 -----
 m2_lb
 -----
 Symbolic Z-matrix:
 Charge =  4 Multiplicity = 1

                         Standard orientation:
 ---------------------------------------------------------------------
 Center     Atomic      Atomic             Coordinates (Angstroms)
 Number     Number       Type             X           Y           Z
 ---------------------------------------------------------------------
      1         46           0        9.173496   -0.540397    1.012896
      2         46           0       -9.140804   -1.333204    0.289496
      3          6           0       11.488197   -2.844997   -1.735304
      4          6           0       11.084596   -1.907697   -0.820604
      5          7           0        9.768696   -1.736697   -0.513104
      6          6           0        8.848696   -2.475798   -1.105104
      7          6           0        9.161497   -3.488797   -2.033604
      8          6           0        8.144297   -4.296598   -2.633504
      9          6           0        6.732097   -4.041498   -2.264804
     10          6           0        6.283497   -4.227299   -0.948004
     11          6           0        5.032897   -3.769899   -0.551404
     12          6           0        4.202897   -3.105999   -1.471404
     13          6           0        3.011796   -2.432900   -1.077704
     14          6           0        2.054896   -1.718700   -0.838504
     15          6           0        1.034596   -0.727601   -0.697004
     16          7           0        0.120396   -0.858901    0.270796
     17          6           0       -0.810305    0.096599    0.388196
     18          6           0       -1.790104   -0.010002    1.423696
     19          6           0       -2.693804    0.039498    2.237696
     20          6           0       -3.827205    0.225698    3.078596
     21          6           0       -4.164005    1.528498    3.489496
     22          6           0       -5.370505    1.770897    4.133896
     23          6           0       -6.271605    0.725597    4.376496
     24          6           0       -7.644705    1.022196    4.844196
     25          6           0       -7.900705    1.669096    6.036196
     26          6           0       -9.224105    1.951196    6.446596
     27          6           0      -10.303905    1.593495    5.671696
     28          6           0      -10.091405    0.947895    4.430496
     29          6           0      -11.145905    0.562095    3.564796
     30          6           0      -10.869504   -0.049405    2.370096
     31          7           0       -9.588504   -0.284605    1.973296
     32          6           0       -8.579205    0.076896    2.745596
     33          6           0       -8.755705    0.673496    4.010396
     34          6           0       -5.885304   -0.586703    4.060296
     35          6           0       -4.678904   -0.838503    3.421096
     36          6           0       -0.869205    1.214199   -0.460204
     37          6           0        0.089495    1.347999   -1.456204
     38          6           0        1.059795    0.363999   -1.582504
     39          6           0        4.614497   -3.005199   -2.813404
     40          6           0        5.862897   -3.470499   -3.202504
     41          6           0        8.521997   -5.234298   -3.571804
     42          6           0        9.882498   -5.417097   -3.914004
     43          6           0       10.874797   -4.663497   -3.329404
     44          6           0       10.533597   -3.675897   -2.374804
     45          1           0       12.549597   -2.951896   -1.964604
     46          1           0       11.794996   -1.262896   -0.301504
     47          1           0        7.811196   -2.278498   -0.832604
     48          1           0        6.941197   -4.701898   -0.215204
     49          1           0        4.712797   -3.883999    0.485596
     50          1           0       -3.490405    2.352998    3.246896
     51          1           0       -5.649006    2.793797    4.398596
     52          1           0       -7.066905    1.950396    6.682896
     53          1           0       -9.385305    2.453896    7.402596
     54          1           0      -11.324105    1.804295    5.998196
     55          1           0      -12.183105    0.747494    3.848096
     56          1           0      -11.658604   -0.368705    1.687996
     57          1           0       -7.575704   -0.111204    2.361996
     58          1           0       -6.555504   -1.419003    4.289196
     59          1           0       -4.411504   -1.858703    3.142596
     60          1           0       -1.648805    1.962898   -0.320504
     61          1           0        0.073795    2.232399   -2.100104
     62          1           0        1.826895    0.411500   -2.354204
     63          1           0        3.964796   -2.506199   -3.533804
     64          1           0        6.195597   -3.336099   -4.234404
     65          1           0        7.759698   -5.854598   -4.047904
     66          1           0       10.143798   -6.177197   -4.653504
     67          1           0       11.923397   -4.813496   -3.594204
     68          6           0        8.906697   -4.423698    2.772496
     69          6           0        9.358097   -3.267497    2.195996
     70          7           0        8.532396   -2.201598    2.000096
     71          6           0        7.275096   -2.252998    2.405996
     72          6           0        6.723797   -3.378398    3.054196
     73          6           0        5.363597   -3.414599    3.501696
     74          6           0        4.485696   -2.225899    3.419196
     75          6           0        4.862196   -0.995499    3.984396
     76          6           0        4.037195    0.116701    3.880296
     77          6           0        2.807896    0.029600    3.198596
     78          6           0        2.011895    1.190800    2.981996
     79          6           0        1.374195    2.193300    2.712796
     80          6           0        0.729194    3.401499    2.295896
     81          7           0       -0.539306    3.322199    1.879096
     82          6           0       -1.117306    4.422799    1.386296
     83          6           0       -2.470306    4.299398    0.926696
     84          6           0       -3.615906    4.207598    0.522896
     85          6           0       -4.947306    4.101497    0.023096
     86          6           0       -5.266106    4.602797   -1.250704
     87          6           0       -6.547506    4.459697   -1.762504
     88          6           0       -7.560706    3.831496   -1.020404
     89          6           0       -8.912506    3.692896   -1.606504
     90          6           0       -9.489006    4.769495   -2.258404
     91          6           0      -10.775306    4.692895   -2.832904
     92          6           0      -11.513906    3.535495   -2.758804
     93          6           0      -10.970905    2.401995   -2.110204
     94          6           0      -11.681505    1.180895   -2.002004
     95          6           0      -11.118405    0.111495   -1.360304
     96          7           0       -9.864205    0.184395   -0.837204
     97          6           0       -9.156405    1.295396   -0.943904
     98          6           0       -9.660305    2.470395   -1.542404
     99          6           0       -7.250806    3.381196    0.273796
    100          6           0       -5.964306    3.498297    0.783296
    101          6           0       -0.452807    5.657899    1.295096
    102          6           0        0.852693    5.740799    1.765496
    103          6           0        1.459494    4.602900    2.282096
    104          6           0        2.409396   -1.211000    2.669996
    105          6           0        3.238896   -2.318400    2.784496
    106          6           0        4.879197   -4.605099    4.011996
    107          6           0        5.702198   -5.745599    4.138196
    108          6           0        7.024798   -5.710598    3.761296
    109          6           0        7.561097   -4.525698    3.205796
    110          1           0        9.585998   -5.269097    2.891696
    111          1           0       10.388097   -3.155197    1.855596
    112          1           0        6.653096   -1.380598    2.200196
    113          1           0        5.807896   -0.910699    4.525396
    114          1           0        4.344795    1.067601    4.320196
    115          1           0       -4.491606    5.085697   -1.846004
    116          1           0       -6.763806    4.823997   -2.769304
    117          1           0       -8.944707    5.714696   -2.307004
    118          1           0      -11.187907    5.573995   -3.328904
    119          1           0      -12.514806    3.476094   -3.190404
    120          1           0      -12.683305    1.091994   -2.424904
    121          1           0      -11.640104   -0.839505   -1.246404
    122          1           0       -8.145405    1.272996   -0.535704
    123          1           0       -8.029206    2.949596    0.906296
    124          1           0       -5.742006    3.123597    1.782796
    125          1           0       -0.960807    6.522299    0.865696
    126          1           0        1.399793    6.684500    1.716996
    127          1           0        2.487594    4.619900    2.644896
    128          1           0        1.462896   -1.287900    2.129396
    129          1           0        2.927097   -3.267400    2.342496
    130          1           0        3.843397   -4.654199    4.354196
    131          1           0        5.279398   -6.660199    4.559296
    132          1           0        7.667398   -6.585398    3.877396
    133          6           0        8.698195    1.045202    4.914996
    134          6           0        9.094195    0.344903    3.809396
    135          7           0        8.565595    0.599702    2.579496
    136          6           0        7.641995    1.533802    2.430896
    137          6           0        7.145395    2.294902    3.510096
    138          6           0        6.142094    3.301901    3.345596
    139          6           0        5.447394    3.574801    2.065696
    140          6           0        5.328794    4.901301    1.619496
    141          6           0        4.499194    5.224201    0.556296
    142          6           0        3.745394    4.223301   -0.083504
    143          6           0        2.716194    4.591400   -0.994304
    144          6           0        1.741394    4.947100   -1.632604
    145          6           0        0.509493    5.352299   -2.236204
    146          7           0       -0.366206    4.380399   -2.507704
    147          6           0       -1.574606    4.705498   -2.979104
    148          6           0       -2.470106    3.611598   -3.196704
    149          6           0       -3.189405    2.637498   -3.323904
    150          6           0       -3.947905    1.442998   -3.477904
    151          6           0       -3.271905    0.211098   -3.545304
    152          6           0       -3.982904   -0.964102   -3.728604
    153          6           0       -5.381504   -0.960103   -3.828204
    154          6           0       -6.078404   -2.244703   -4.061904
    155          6           0       -5.644403   -3.075703   -5.080104
    156          6           0       -6.266303   -4.314603   -5.345004
    157          6           0       -7.334303   -4.743604   -4.592004
    158          6           0       -7.801703   -3.942604   -3.524404
    159          6           0       -8.875403   -4.340904   -2.690304
    160          6           0       -9.256103   -3.553804   -1.638104
    161          7           0       -8.615004   -2.385304   -1.358804
    162          6           0       -7.621304   -1.968704   -2.124104
    163          6           0       -7.168503   -2.691504   -3.248604
    164          6           0       -6.056005    0.268697   -3.747304
    165          6           0       -5.350905    1.454997   -3.579804
    166          6           0       -1.953907    6.035398   -3.226804
    167          6           0       -1.031307    7.042999   -2.963504
    168          6           0        0.220593    6.710099   -2.458104
    169          6           0        3.927194    2.883701    0.301796
    170          6           0        4.772795    2.567301    1.357996
    171          6           0        5.775794    4.039401    4.458896
    172          6           0        6.339094    3.802401    5.730696
    173          6           0        7.282994    2.819102    5.910196
    174          6           0        7.709295    2.052602    4.801296
    175          1           0        9.149995    0.828003    5.883896
    176          1           0        9.848196   -0.440697    3.862696
    177          1           0        7.268895    1.709602    1.420796
    178          1           0        5.875893    5.692701    2.135996
    179          1           0        4.385993    6.264301    0.245496
    180          1           0       -2.184205    0.184698   -3.453404
    181          1           0       -3.442504   -1.909202   -3.779004
    182          1           0       -4.812003   -2.753903   -5.709604
    183          1           0       -5.894903   -4.930103   -6.167004
    184          1           0       -7.824102   -5.696704   -4.799304
    185          1           0       -9.395002   -5.281704   -2.878104
    186          1           0      -10.072903   -3.830805   -0.971004
    187          1           0       -7.134304   -1.034904   -1.838004
    188          1           0       -7.143005    0.306796   -3.851604
    189          1           0       -5.886105    2.404097   -3.533104
    190          1           0       -2.946407    6.261598   -3.619304
    191          1           0       -1.290808    8.087799   -3.146204
    192          1           0        0.963293    7.473999   -2.225704
    193          1           0        3.352795    2.097200   -0.191204
    194          1           0        4.841795    1.528001    1.685796
    195          1           0        5.004594    4.805501    4.356196
    196          1           0        6.004994    4.402801    6.579396
    197          1           0        7.713695    2.621402    6.893496
    198          6           0       11.035194    3.085303   -0.207604
    199          6           0       10.782895    1.861603    0.351896
    200          7           0        9.682295    1.139103    0.004896
    201          6           0        8.848095    1.592402   -0.914604
    202          6           0        9.024494    2.832902   -1.561604
    203          6           0        8.090094    3.329702   -2.525304
    204          6           0        6.944795    2.515002   -2.990304
    205          6           0        7.137695    1.236602   -3.537904
    206          6           0        6.061895    0.492701   -4.004304
    207          6           0        4.755895    1.008701   -3.929604
    208          6           0        3.645795    0.243200   -4.395304
    209          6           0        2.689896   -0.415500   -4.762704
    210          6           0        1.543896   -1.205600   -5.113504
    211          7           0        0.809696   -1.656001   -4.092104
    212          6           0       -0.276204   -2.389301   -4.357104
    213          6           0       -1.054003   -2.825701   -3.237904
    214          6           0       -1.763603   -3.150602   -2.302604
    215          6           0       -2.618703   -3.487102   -1.215504
    216          6           0       -3.906603   -4.007002   -1.446404
    217          6           0       -4.739903   -4.317403   -0.379804
    218          6           0       -4.312303   -4.127003    0.945296
    219          6           0       -5.152903   -4.523803    2.096296
    220          6           0       -4.615302   -5.332503    3.082396
    221          6           0       -5.386202   -5.788503    4.172796
    222          6           0       -6.713702   -5.448803    4.288796
    223          6           0       -7.303303   -4.600204    3.323596
    224          6           0       -8.657203   -4.190904    3.398996
    225          6           0       -9.162603   -3.318804    2.474996
    226          7           0       -8.385603   -2.804004    1.480496
    227          6           0       -7.125303   -3.185004    1.358796
    228          6           0       -6.518603   -4.113903    2.232796
    229          6           0       -3.026903   -3.610002    1.167396
    230          6           0       -2.190703   -3.286902    0.108796
    231          6           0       -0.673603   -2.708901   -5.668004
    232          6           0        0.098596   -2.240301   -6.724504
    233          6           0        1.228696   -1.474900   -6.455204
    234          6           0        4.558995    2.287401   -3.379104
    235          6           0        5.641794    3.028201   -2.922804
    236          6           0        8.280594    4.607902   -3.016404
    237          6           0        9.385793    5.394103   -2.622504
    238          6           0       10.314794    4.914703   -1.728404
    239          6           0       10.146094    3.626003   -1.169904
    240          1           0       11.913394    3.651904    0.105596
    241          1           0       11.432995    1.422903    1.110096
    242          1           0        7.978595    0.971702   -1.139604
    243          1           0        8.147095    0.827402   -3.624104
    244          1           0        6.227596   -0.495899   -4.435404
    245          1           0       -4.247803   -4.175803   -2.469804
    246          1           0       -5.724103   -4.747503   -0.581404
    247          1           0       -3.575902   -5.655202    2.995096
    248          1           0       -4.920102   -6.435603    4.918696
    249          1           0       -7.320402   -5.817204    5.117996
    250          1           0       -9.298203   -4.561604    4.200296
    251          1           0      -10.199303   -2.983705    2.509596
    252          1           0       -6.544003   -2.725903    0.557496
    253          1           0       -2.680203   -3.443102    2.189696
    254          1           0       -1.206403   -2.852601    0.298096
    255          1           0       -1.568803   -3.308702   -5.838904
    256          1           0       -0.180204   -2.468801   -7.755204
    257          1           0        1.858496   -1.086200   -7.256304
    258          1           0        3.549294    2.697100   -3.306104
    259          1           0        5.473694    4.016001   -2.488604
    260          1           0        7.575494    5.007402   -3.748404
    261          1           0        9.504393    6.392403   -3.049004
    262          1           0       11.175993    5.517403   -1.433704
 ---------------------------------------------------------------------

 SCF Done:  E(RPBE1PBE) =  -6900.09674954     A.U. after   19 cycles

 The electronic state is 1-A.
 Alpha  occ. eigenvalues --  -14.48392 -14.48327 -14.48308 -14.48276 -14.48270
 Alpha  occ. eigenvalues --  -14.48252 -14.48183 -14.48158 -14.41569 -14.41323
 Alpha  occ. eigenvalues --  -14.41153 -14.41149 -10.32471 -10.32401 -10.32342
 Alpha  occ. eigenvalues --  -10.32332 -10.32276 -10.32239 -10.32127 -10.32051
 Alpha  occ. eigenvalues --  -10.31696 -10.31685 -10.31548 -10.31519 -10.31270
 Alpha  occ. eigenvalues --  -10.31191 -10.30941 -10.30930 -10.30926 -10.30888
 Alpha  occ. eigenvalues --  -10.30883 -10.30877 -10.30867 -10.30852 -10.30652
 Alpha  occ. eigenvalues --  -10.30647 -10.29165 -10.29113 -10.29110 -10.29097
 Alpha  occ. eigenvalues --  -10.29093 -10.29062 -10.29061 -10.29058 -10.29054
 Alpha  occ. eigenvalues --  -10.29016 -10.29008 -10.29006 -10.28986 -10.28925
 Alpha  occ. eigenvalues --  -10.28830 -10.28759 -10.28720 -10.28682 -10.28670
 Alpha  occ. eigenvalues --  -10.28651 -10.28634 -10.28623 -10.28586 -10.28554
 Alpha  occ. eigenvalues --  -10.28541 -10.28514 -10.28512 -10.28504 -10.28445
 Alpha  occ. eigenvalues --  -10.28421 -10.28413 -10.28395 -10.27879 -10.27865
 Alpha  occ. eigenvalues --  -10.27855 -10.27838 -10.27835 -10.27831 -10.27829
 Alpha  occ. eigenvalues --  -10.27820 -10.27798 -10.27751 -10.27706 -10.27659
 Alpha  occ. eigenvalues --  -10.27614 -10.27613 -10.27601 -10.27528 -10.27458
 Alpha  occ. eigenvalues --  -10.27395 -10.27214 -10.27181 -10.27177 -10.27167
 Alpha  occ. eigenvalues --  -10.27161 -10.27136 -10.27133 -10.27109 -10.27100
 Alpha  occ. eigenvalues --  -10.27041 -10.27038 -10.26988 -10.26972 -10.26968
 Alpha  occ. eigenvalues --  -10.26962 -10.26959 -10.26921 -10.26921 -10.26916
 Alpha  occ. eigenvalues --  -10.26902 -10.26881 -10.26870 -10.26824 -10.26818
 Alpha  occ. eigenvalues --  -10.26815 -10.26778 -10.26778 -10.26766 -10.26748
 Alpha  occ. eigenvalues --  -10.26673 -10.26655 -10.26621 -10.26619 -10.26609
 Alpha  occ. eigenvalues --  -10.26605 -10.26592 -10.26567 -10.26566 -10.26547
 Alpha  occ. eigenvalues --  -10.26542 -10.26526 -10.26524 -10.26509 -10.26508
 Alpha  occ. eigenvalues --  -10.26493 -10.26491 -10.26485 -10.26479 -10.26467
 Alpha  occ. eigenvalues --  -10.26459 -10.26457 -10.26454 -10.26444 -10.26432
 Alpha  occ. eigenvalues --  -10.26431 -10.26401 -10.26381 -10.26370 -10.26319
 Alpha  occ. eigenvalues --  -10.26282 -10.26281 -10.26259 -10.26200 -10.26138
 Alpha  occ. eigenvalues --  -10.26136 -10.26123 -10.26115 -10.26027 -10.25971
 Alpha  occ. eigenvalues --  -10.25922 -10.25917 -10.25905 -10.25903 -10.25861
 Alpha  occ. eigenvalues --  -10.25844 -10.25830 -10.25803 -10.25794 -10.25625
 Alpha  occ. eigenvalues --  -10.25590 -10.25435 -10.25384  -3.56825  -3.56804
 Alpha  occ. eigenvalues --   -2.24703  -2.24646  -2.24623  -2.24620  -2.20485
 Alpha  occ. eigenvalues --   -2.20479  -1.03269  -1.03218  -1.02622  -1.02570
 Alpha  occ. eigenvalues --   -1.02545  -1.02542  -1.02388  -1.02381  -1.00019
 Alpha  occ. eigenvalues --   -0.99819  -0.99485  -0.99119  -0.92655  -0.92614
 Alpha  occ. eigenvalues --   -0.92536  -0.92529  -0.92510  -0.92506  -0.92486
 Alpha  occ. eigenvalues --   -0.92470  -0.90587  -0.90512  -0.90477  -0.90451
 Alpha  occ. eigenvalues --   -0.90415  -0.90389  -0.90379  -0.90345  -0.85777
 Alpha  occ. eigenvalues --   -0.85715  -0.85615  -0.85555  -0.85544  -0.85509
 Alpha  occ. eigenvalues --   -0.85462  -0.85416  -0.84714  -0.84632  -0.84499
 Alpha  occ. eigenvalues --   -0.84399  -0.84399  -0.84153  -0.84048  -0.83388
 Alpha  occ. eigenvalues --   -0.82847  -0.82777  -0.82727  -0.82703  -0.82627
 Alpha  occ. eigenvalues --   -0.82529  -0.82484  -0.82457  -0.82243  -0.82166
 Alpha  occ. eigenvalues --   -0.82121  -0.81953  -0.81929  -0.81875  -0.81815
 Alpha  occ. eigenvalues --   -0.81569  -0.79535  -0.79501  -0.79426  -0.79304
 Alpha  occ. eigenvalues --   -0.78962  -0.78926  -0.78898  -0.78825  -0.78780
 Alpha  occ. eigenvalues --   -0.78749  -0.78674  -0.78622  -0.78503  -0.78407
 Alpha  occ. eigenvalues --   -0.78368  -0.78301  -0.76413  -0.76379  -0.76311
 Alpha  occ. eigenvalues --   -0.76230  -0.74999  -0.74973  -0.74759  -0.74384
 Alpha  occ. eigenvalues --   -0.70757  -0.70713  -0.70620  -0.70583  -0.70540
 Alpha  occ. eigenvalues --   -0.70518  -0.70478  -0.70417  -0.69620  -0.69540
 Alpha  occ. eigenvalues --   -0.69471  -0.69433  -0.69323  -0.69196  -0.69158
 Alpha  occ. eigenvalues --   -0.68776  -0.68512  -0.68475  -0.68453  -0.68422
 Alpha  occ. eigenvalues --   -0.68359  -0.68329  -0.68261  -0.68119  -0.66915
 Alpha  occ. eigenvalues --   -0.66868  -0.66763  -0.66674  -0.66650  -0.66520
 Alpha  occ. eigenvalues --   -0.66464  -0.66099  -0.64694  -0.64681  -0.64621
 Alpha  occ. eigenvalues --   -0.64572  -0.64559  -0.64491  -0.64364  -0.64346
 Alpha  occ. eigenvalues --   -0.63285  -0.63185  -0.63086  -0.63048  -0.62970
 Alpha  occ. eigenvalues --   -0.62957  -0.62879  -0.62815  -0.60077  -0.59896
 Alpha  occ. eigenvalues --   -0.59660  -0.59051  -0.58460  -0.58432  -0.58169
 Alpha  occ. eigenvalues --   -0.58140  -0.58087  -0.58063  -0.58044  -0.57950
 Alpha  occ. eigenvalues --   -0.57826  -0.57669  -0.57335  -0.57282  -0.57280
 Alpha  occ. eigenvalues --   -0.57256  -0.57191  -0.57151  -0.57140  -0.57061
 Alpha  occ. eigenvalues --   -0.56998  -0.56943  -0.56630  -0.56369  -0.56211
 Alpha  occ. eigenvalues --   -0.56183  -0.56139  -0.56119  -0.55958  -0.55823
 Alpha  occ. eigenvalues --   -0.55357  -0.55345  -0.55337  -0.55333  -0.54199
 Alpha  occ. eigenvalues --   -0.54072  -0.53840  -0.53413  -0.52030  -0.51969
 Alpha  occ. eigenvalues --   -0.51917  -0.51790  -0.51738  -0.51652  -0.51559
 Alpha  occ. eigenvalues --   -0.51492  -0.51439  -0.51368  -0.51228  -0.50945
 Alpha  occ. eigenvalues --   -0.50933  -0.50863  -0.50786  -0.50692  -0.50617
 Alpha  occ. eigenvalues --   -0.50572  -0.50508  -0.50475  -0.50284  -0.50249
 Alpha  occ. eigenvalues --   -0.50176  -0.50093  -0.50047  -0.49992  -0.49964
 Alpha  occ. eigenvalues --   -0.49932  -0.49824  -0.49797  -0.49651  -0.49511
 Alpha  occ. eigenvalues --   -0.49430  -0.49388  -0.49196  -0.49154  -0.49126
 Alpha  occ. eigenvalues --   -0.49108  -0.49087  -0.49056  -0.48968  -0.48512
 Alpha  occ. eigenvalues --   -0.47902  -0.47885  -0.47845  -0.47843  -0.47820
 Alpha  occ. eigenvalues --   -0.47796  -0.47747  -0.47665  -0.47468  -0.47265
 Alpha  occ. eigenvalues --   -0.47170  -0.47114  -0.46885  -0.46834  -0.46756
 Alpha  occ. eigenvalues --   -0.46701  -0.46679  -0.46654  -0.46611  -0.46571
 Alpha  occ. eigenvalues --   -0.46380  -0.46324  -0.46266  -0.46113  -0.45988
 Alpha  occ. eigenvalues --   -0.45869  -0.45729  -0.45639  -0.45608  -0.45512
 Alpha  occ. eigenvalues --   -0.45397  -0.45318  -0.45254  -0.45209  -0.45184
 Alpha  occ. eigenvalues --   -0.45027  -0.44998  -0.44599  -0.44459  -0.44057
 Alpha  occ. eigenvalues --   -0.44056  -0.44038  -0.44015  -0.43952  -0.43759
 Alpha  occ. eigenvalues --   -0.43417  -0.43337  -0.43318  -0.43277  -0.42936
 Alpha  occ. eigenvalues --   -0.42652  -0.42641  -0.42587  -0.42491  -0.42428
 Alpha  occ. eigenvalues --   -0.42368  -0.42323  -0.42243  -0.42098  -0.42054
 Alpha  occ. eigenvalues --   -0.41965  -0.41913  -0.41804  -0.41701  -0.41654
 Alpha  occ. eigenvalues --   -0.41614  -0.41562  -0.41477  -0.41401  -0.41307
 Alpha  occ. eigenvalues --   -0.41263  -0.41238  -0.41207  -0.41199  -0.40796
 Alpha  occ. eigenvalues --   -0.40761  -0.40652  -0.40639  -0.40591  -0.40472
 Alpha  occ. eigenvalues --   -0.40385  -0.40227  -0.39484  -0.39455  -0.39424
 Alpha  occ. eigenvalues --   -0.39349  -0.38482  -0.38415  -0.38382  -0.38332
 Alpha  occ. eigenvalues --   -0.38230  -0.38193  -0.38162  -0.38123  -0.37939
 Alpha  occ. eigenvalues --   -0.37849  -0.37815  -0.37782  -0.37713  -0.37632
 Alpha  occ. eigenvalues --   -0.37581  -0.37516  -0.37340  -0.36940  -0.36853
 Alpha  occ. eigenvalues --   -0.36646  -0.36242  -0.36072  -0.36033  -0.35898
 Alpha  occ. eigenvalues --   -0.35856  -0.35652  -0.35390  -0.35176  -0.35091
 Alpha  occ. eigenvalues --   -0.34880  -0.34798  -0.34731  -0.34490  -0.34319
 Alpha  occ. eigenvalues --   -0.34042  -0.33983  -0.33845  -0.33789  -0.33666
 Alpha  occ. eigenvalues --   -0.33415  -0.33367  -0.33344  -0.33251  -0.33030
 Alpha  occ. eigenvalues --   -0.32662  -0.32532  -0.32346  -0.32277  -0.32000
 Alpha  occ. eigenvalues --   -0.31774  -0.31176  -0.31148  -0.31122  -0.31040
 Alpha  occ. eigenvalues --   -0.31024  -0.30988  -0.30900  -0.30874  -0.30664
 Alpha  occ. eigenvalues --   -0.30488  -0.30459  -0.30438  -0.30405  -0.30243
 Alpha  occ. eigenvalues --   -0.29779  -0.29698  -0.29512  -0.29421  -0.29370
 Alpha  occ. eigenvalues --   -0.29318  -0.29304  -0.29220  -0.29197  -0.29044
 Alpha  occ. eigenvalues --   -0.28976  -0.28841  -0.28724  -0.28655  -0.28573
 Alpha  occ. eigenvalues --   -0.28515  -0.28144  -0.28102  -0.27989  -0.27655
 Alpha  occ. eigenvalues --   -0.27311  -0.27178  -0.27070  -0.26950  -0.25658
 Alpha  occ. eigenvalues --   -0.25641  -0.25551  -0.25379  -0.24714  -0.24390
 Alpha  occ. eigenvalues --   -0.24377  -0.24089
 Alpha virt. eigenvalues --   -0.09827  -0.09749  -0.09618  -0.09520  -0.09494
 Alpha virt. eigenvalues --   -0.09397  -0.09289  -0.09139  -0.08004  -0.07780
 Alpha virt. eigenvalues --   -0.07693  -0.07634  -0.07610  -0.07484  -0.07149

 Mulliken charges:
               1
     1  Pd   0.466846
     2  Pd   0.480237
     3  C   -0.033858
     4  C    0.136242
     5  N   -0.328375
     6  C    0.156485
     7  C   -0.015315
     8  C    0.028956
     9  C   -0.080611
    10  C   -0.039344
    11  C    0.006094
    12  C   -0.068435
    13  C   -0.004215
    14  C    0.023895
    15  C   -0.036244
    16  N   -0.185155
    17  C   -0.034106
    18  C    0.021343
    19  C   -0.004885
    20  C   -0.068119
    21  C   -0.009392
    22  C    0.010875
    23  C   -0.064207
    24  C    0.037986
    25  C   -0.023414
    26  C    0.003621
    27  C   -0.005702
    28  C    0.034768
    29  C   -0.030126
    30  C    0.131336
    31  N   -0.330194
    32  C    0.142692
    33  C   -0.012668
    34  C   -0.048222
    35  C    0.013428
    36  C    0.018768
    37  C    0.021871
    38  C    0.028060
    39  C   -0.000740
    40  C    0.017548
    41  C   -0.020940
    42  C    0.002525
    43  C   -0.005318
    44  C    0.037910
    45  H    0.060359
    46  H    0.098868
    47  H    0.121580
    48  H    0.047687
    49  H    0.035558
    50  H    0.041212
    51  H    0.049902
    52  H    0.045736
    53  H    0.060813
    54  H    0.047223
    55  H    0.060109
    56  H    0.101656
    57  H    0.126304
    58  H    0.049112
    59  H    0.031342
    60  H    0.033276
    61  H    0.048683
    62  H    0.027281
    63  H    0.039881
    64  H    0.045502
    65  H    0.044780
    66  H    0.060667
    67  H    0.046957
    68  C   -0.028387
    69  C    0.133657
    70  N   -0.336195
    71  C    0.140298
    72  C   -0.013215
    73  C    0.026242
    74  C   -0.038034
    75  C   -0.039858
    76  C   -0.012248
    77  C   -0.084425
    78  C   -0.012918
    79  C    0.042689
    80  C   -0.065153
    81  N   -0.161913
    82  C   -0.069429
    83  C    0.028050
    84  C   -0.007964
    85  C   -0.073193
    86  C    0.023678
    87  C   -0.038089
    88  C   -0.013981
    89  C    0.058153
    90  C   -0.038858
    91  C    0.006926
    92  C   -0.004859
    93  C    0.026727
    94  C   -0.031689
    95  C    0.137104
    96  N   -0.323599
    97  C    0.133630
    98  C   -0.011592
    99  C   -0.053505
   100  C    0.011873
   101  C    0.020514
   102  C    0.033796
   103  C    0.027551
   104  C    0.015483
   105  C   -0.017595
   106  C   -0.020677
   107  C    0.006098
   108  C   -0.002967
   109  C    0.028480
   110  H    0.060569
   111  H    0.108010
   112  H    0.118376
   113  H    0.048102
   114  H    0.044772
   115  H    0.026038
   116  H    0.050035
   117  H    0.049159
   118  H    0.059902
   119  H    0.047508
   120  H    0.060359
   121  H    0.101966
   122  H    0.102760
   123  H    0.053123
   124  H    0.024726
   125  H    0.046599
   126  H    0.056858
   127  H    0.046096
   128  H    0.034406
   129  H    0.042986
   130  H    0.048138
   131  H    0.060457
   132  H    0.047240
   133  C   -0.029746
   134  C    0.138596
   135  N   -0.329716
   136  C    0.145500
   137  C   -0.021797
   138  C    0.029732
   139  C   -0.027579
   140  C   -0.029681
   141  C    0.008843
   142  C   -0.121480
   143  C   -0.018169
   144  C    0.079542
   145  C   -0.059130
   146  N   -0.170862
   147  C   -0.040997
   148  C    0.037572
   149  C   -0.022382
   150  C   -0.073238
   151  C    0.002793
   152  C   -0.012822
   153  C   -0.023345
   154  C    0.032795
   155  C   -0.037989
   156  C    0.009371
   157  C   -0.005305
   158  C    0.030277
   159  C   -0.030169
   160  C    0.140564
   161  N   -0.327352
   162  C    0.144293
   163  C   -0.015387
   164  C   -0.035576
   165  C    0.006735
   166  C    0.003865
   167  C    0.039666
   168  C    0.010705
   169  C    0.025520
   170  C   -0.029792
   171  C   -0.033579
   172  C    0.011929
   173  C   -0.003946
   174  C    0.032799
   175  H    0.061061
   176  H    0.110023
   177  H    0.099001
   178  H    0.044090
   179  H    0.042550
   180  H    0.041600
   181  H    0.028558
   182  H    0.051532
   183  H    0.059885
   184  H    0.047510
   185  H    0.060790
   186  H    0.108668
   187  H    0.098405
   188  H    0.049220
   189  H    0.037424
   190  H    0.058533
   191  H    0.063007
   192  H    0.049964
   193  H    0.037207
   194  H    0.056266
   195  H    0.053378
   196  H    0.060027
   197  H    0.047844
   198  C   -0.030693
   199  C    0.140037
   200  N   -0.328688
   201  C    0.139791
   202  C   -0.019002
   203  C    0.045761
   204  C   -0.049637
   205  C   -0.033886
   206  C    0.008856
   207  C   -0.080301
   208  C   -0.029402
   209  C    0.044483
   210  C   -0.064590
   211  N   -0.159017
   212  C   -0.064799
   213  C    0.048691
   214  C   -0.026008
   215  C   -0.080448
   216  C    0.001085
   217  C   -0.036645
   218  C   -0.029743
   219  C    0.018940
   220  C   -0.020098
   221  C    0.006856
   222  C   -0.001390
   223  C    0.024716
   224  C   -0.027792
   225  C    0.136279
   226  N   -0.328331
   227  C    0.137654
   228  C   -0.014054
   229  C   -0.027310
   230  C    0.017083
   231  C    0.008991
   232  C    0.037845
   233  C    0.018562
   234  C    0.000554
   235  C   -0.001401
   236  C   -0.026362
   237  C    0.004799
   238  C   -0.004743
   239  C    0.027948
   240  H    0.060967
   241  H    0.104061
   242  H    0.111767
   243  H    0.051621
   244  H    0.038578
   245  H    0.041644
   246  H    0.049665
   247  H    0.049667
   248  H    0.060261
   249  H    0.047361
   250  H    0.060263
   251  H    0.107337
   252  H    0.109208
   253  H    0.046006
   254  H    0.036153
   255  H    0.052617
   256  H    0.062417
   257  H    0.050307
   258  H    0.040927
   259  H    0.045991
   260  H    0.048032
   261  H    0.060373
   262  H    0.047413
 Sum of Mulliken charges =   4.00000

 Dipole moment (field-independent basis, Debye):
    X=             -0.1976    Y=             -7.1849    Z=              7.4733  Tot=             10.3688
 Quadrupole moment (field-independent basis, Debye-Ang):
   XX=            667.9765   YY=           -631.5689   ZZ=           -706.2616
   XY=             28.3597   XZ=             33.8000   YZ=             -4.0637

 Normal termination of Gaussian 16 at Fri Jun  2 08:05:54 2023.
