 Gaussian 16, Revision C.01,
 Gaussian 16:  ES64L-G16RevC.01  3-Jul-2019

 ------------------------------------------------------------------
 # SP PBE1PBE/def2svp empiricaldispersion=GD3BJ scrf=(solvent=dmso)
 ------------------------------------------------------------------

 ---------
 cis_l3_lb
 ---------
 Symbolic Z-matrix:
 Charge =  4 Multiplicity = 1

                         Standard orientation:
 ---------------------------------------------------------------------
 Center     Atomic      Atomic             Coordinates (Angstroms)
 Number     Number       Type             X           Y           Z
 ---------------------------------------------------------------------
      1         46           0        6.619301   -2.155803    0.220505
      2         46           0       -6.070799   -2.160901    0.695905
      3          6           0        4.071301   -2.355802   -2.975395
      4          6           0        5.292001   -2.223803   -2.332695
      5          7           0        5.697701   -3.082503   -1.381995
      6          6           0        4.978101   -4.196602   -1.169295
      7          6           0        3.732901   -4.384702   -1.741895
      8          6           0        3.212101   -3.394002   -2.589895
      9          6           0        1.784401   -3.327102   -2.898895
     10          6           0        1.108401   -2.981202   -4.049095
     11          6           0       -0.286899   -2.836202   -3.842795
     12          6           0       -0.655699   -3.026602   -2.526695
     13         16           0        0.702301   -3.464802   -1.557095
     14          6           0       -1.938999   -2.791402   -1.866795
     15          6           0       -1.964799   -2.125402   -0.633095
     16          6           0       -3.170999   -1.920101    0.009605
     17          7           0       -4.332699   -2.339101   -0.506895
     18          6           0       -4.333599   -2.939301   -1.704595
     19          6           0       -3.166499   -3.183301   -2.415895
     20          1           0        3.744801   -1.582002   -3.671295
     21          1           0        5.930101   -1.357703   -2.521495
     22          1           0        5.382301   -4.918303   -0.457695
     23          1           0        3.145601   -5.264002   -1.472895
     24          1           0        1.604201   -2.829302   -5.008695
     25          1           0       -0.992299   -2.540902   -4.620895
     26          1           0       -1.048899   -1.746002   -0.180795
     27          1           0       -3.208999   -1.403701    0.970905
     28          1           0       -5.304299   -3.250201   -2.097895
     29          1           0       -3.216399   -3.699201   -3.375495
     30          6           0        2.512701   -2.364002    1.299305
     31          6           0        3.759601   -1.865102    0.964205
     32          7           0        4.887701   -2.542502    1.221205
     33          6           0        4.816901   -3.700802    1.897705
     34          6           0        3.607701   -4.280202    2.236005
     35          6           0        2.410901   -3.638502    1.881305
     36          6           0        1.128901   -4.320202    2.010105
     37          6           0        0.880201   -5.659702    1.773405
     38          6           0       -0.498399   -5.971802    1.762505
     39          6           0       -1.294499   -4.877302    2.027205
     40         16           0       -0.339999   -3.455402    2.275205
     41          6           0       -2.749299   -4.744201    2.017005
     42          6           0       -3.408899   -3.897701    2.920805
     43          6           0       -4.741399   -3.587901    2.703105
     44          7           0       -5.430399   -4.048101    1.643705
     45          6           0       -4.847899   -4.973801    0.867305
     46          6           0       -3.524799   -5.363401    1.025505
     47          1           0        1.626501   -1.789002    1.028905
     48          1           0        3.855601   -0.920202    0.424805
     49          1           0        5.762401   -4.195103    2.130905
     50          1           0        3.601401   -5.241302    2.750505
     51          1           0        1.668901   -6.380902    1.555505
     52          1           0       -0.899499   -6.967802    1.571605
     53          1           0       -2.878999   -3.443801    3.759805
     54          1           0       -5.262999   -2.894101    3.367405
     55          1           0       -5.443899   -5.360101    0.036705
     56          1           0       -3.077699   -6.059101    0.314105
     57          6           0        8.935102   -0.317103    3.277805
     58          6           0        8.425901   -1.202903    2.368705
     59          7           0        7.260701   -0.948503    1.713605
     60          6           0        6.570302    0.150497    1.974505
     61          6           0        6.986802    1.111397    2.920205
     62          6           0        6.242802    2.305097    3.200405
     63          6           0        4.899002    2.609298    2.649605
     64          6           0        4.647602    3.895798    2.143305
     65          6           0        3.365602    4.294498    1.799805
     66          6           0        2.276102    3.414698    1.947005
     67          6           0        0.964002    3.921498    1.706505
     68          6           0       -0.101898    4.490498    1.539205
     69          6           0       -1.240298    5.345098    1.364405
     70          7           0       -2.460198    4.811699    1.222805
     71          6           0       -3.503698    5.638099    1.065905
     72          6           0       -4.808198    5.052999    0.907205
     73          6           0       -5.932698    4.606699    0.762405
     74          6           0       -7.223098    4.013899    0.586005
     75          6           0       -7.730998    3.771999   -0.702595
     76          6           0       -8.931398    3.089199   -0.870795
     77          6           0       -9.657898    2.643300    0.239405
     78          6           0      -10.824798    1.730200    0.058105
     79          6           0      -12.134098    2.217500   -0.095495
     80          6           0      -13.236498    1.367500   -0.286295
     81          6           0      -13.037998    0.010400   -0.333995
     82          6           0      -11.718299   -0.537100   -0.179395
     83          6           0      -11.581099   -1.901600   -0.396695
     84          6           0      -10.413399   -2.774900   -0.363395
     85          7           0       -9.319499   -2.625800    0.283505
     86          6           0       -9.212698   -0.138000    0.250505
     87          6           0      -10.609698    0.351200    0.051305
     88          6           0       -9.188398    2.944300    1.525905
     89          6           0       -7.983798    3.615799    1.700105
     90          6           0       -3.372697    7.035999    1.041505
     91          6           0       -2.103297    7.584499    1.186705
     92          6           0       -1.017497    6.735598    1.352205
     93          6           0        2.529502    2.105098    2.393905
     94          6           0        3.820002    1.713698    2.741505
     95          6           0        6.809902    3.226797    4.065405
     96          6           0        8.056702    3.007097    4.687505
     97          6           0        8.760502    1.848697    4.461405
     98          6           0        8.241102    0.882397    3.569705
     99          1           0        9.883701   -0.533603    3.771205
    100          1           0        8.935501   -2.133903    2.118505
    101          1           0        5.656602    0.310297    1.399305
    102          1           0        5.471002    4.604997    2.034705
    103          1           0        3.189702    5.306298    1.431205
    104          1           0       -7.160798    4.091199   -1.576695
    105          1           0       -9.286998    2.866400   -1.878895
    106          1           0      -12.294098    3.297800   -0.056495
    107          1           0      -14.235398    1.789900   -0.398895
    108          1           0      -13.873499   -0.673700   -0.494295
    109          1           0      -12.501099   -2.429400   -0.672995
    110          1           0      -10.542499   -3.719400   -0.907095
    111          1           0       -8.763498    0.616899    0.911805
    112          1           0       -9.751798    2.611600    2.401005
    113          1           0       -7.611498    3.814399    2.706405
    114          1           0       -4.254097    7.664599    0.909905
    115          1           0       -1.962197    8.667098    1.170905
    116          1           0       -0.004997    7.123398    1.469205
    117          1           0        1.701302    1.403498    2.510905
    118          1           0        3.973602    0.713398    3.153605
    119          1           0        6.258002    4.138597    4.301805
    120          1           0        8.450002    3.763797    5.369405
    121          1           0        9.716902    1.662397    4.953405
    122          6           0       10.542501   -2.637503   -1.345595
    123          6           0        9.284901   -2.863603   -0.851095
    124          7           0        8.376801   -1.854103   -0.734595
    125          6           0        8.695101   -0.629103   -1.108195
    126          6           0        9.968502   -0.288403   -1.608395
    127          6           0       10.290102    1.051797   -1.992995
    128          6           0        9.238902    2.088597   -1.868495
    129          6           0        8.649502    2.623297   -3.020295
    130          6           0        7.503502    3.403097   -2.929295
    131          6           0        6.922802    3.666697   -1.676995
    132          6           0        5.640902    4.288097   -1.607095
    133          6           0        4.497702    4.704398   -1.590095
    134          6           0        3.125402    5.120198   -1.592595
    135          7           0        2.215702    4.148298   -1.738195
    136          6           0        0.924402    4.489898   -1.753595
    137          6           0       -0.060498    3.455698   -1.868695
    138          6           0       -1.001298    2.683698   -1.928795
    139          6           0       -2.232798    1.964699   -1.914195
    140          6           0       -2.521598    0.874299   -2.751695
    141          6           0       -3.797098    0.315599   -2.758395
    142          6           0       -4.810398    0.815199   -1.927395
    143          6           0       -6.213098    0.343899   -2.011195
    144          6           0       -6.813898    0.276799   -3.273895
    145          6           0       -8.173198    0.019999   -3.414395
    146          6           0       -8.970898   -0.123201   -2.281995
    147          6           0       -8.394998   -0.094501   -1.013995
    148          6           0       -9.082099   -1.436500    1.047605
    149          6           0       -7.745299   -1.441701    1.784705
    150          7           0       -6.794899   -0.479701    1.671905
    151          6           0       -6.343298   -0.079401    0.443005
    152          6           0       -7.005098    0.067899   -0.865795
    153          6           0       -4.502098    1.887999   -1.076695
    154          6           0       -3.238098    2.448199   -1.056695
    155          6           0        0.487502    5.822998   -1.638595
    156          6           0        1.438403    6.821998   -1.480195
    157          6           0        2.784902    6.474198   -1.451095
    158          6           0        7.569802    3.213097   -0.514495
    159          6           0        8.714102    2.432697   -0.613695
    160          6           0       11.540502    1.300197   -2.518995
    161          6           0       12.495202    0.264596   -2.650695
    162          6           0       12.207901   -1.026104   -2.268895
    163          6           0       10.930401   -1.332603   -1.742395
    164          1           0       11.244401   -3.468503   -1.430995
    165          1           0        8.955901   -3.853003   -0.530895
    166          1           0        7.922602    0.132997   -1.003995
    167          1           0        9.058702    2.372097   -4.001395
    168          1           0        7.018502    3.771597   -3.834895
    169          1           0       -1.750198    0.477398   -3.414595
    170          1           0       -4.009899   -0.519801   -3.428595
    171          1           0       -6.205698    0.479299   -4.157795
    172          1           0       -8.623398   -0.017601   -4.408095
    173          1           0      -10.050298   -0.233300   -2.397495
    174          1           0       -9.841399   -1.395600    1.855305
    175          1           0       -7.799299   -1.879601    2.788805
    176          1           0       -5.384798    0.435999    0.527805
    177          1           0       -5.278398    2.322399   -0.445995
    178          1           0       -3.013998    3.273799   -0.377995
    179          1           0       -0.578498    6.050998   -1.665495
    180          1           0        1.132703    7.865398   -1.378295
    181          1           0        3.566403    7.224998   -1.327695
    182          1           0        7.143902    3.436697    0.464905
    183          1           0        9.183602    2.045997    0.294405
    184          1           0       11.801302    2.314697   -2.827595
    185          1           0       13.479102    0.502196   -3.061295
    186          1           0       12.950301   -1.820004   -2.371395
 ---------------------------------------------------------------------

 SCF Done:  E(RPBE1PBE) =  -5669.04040262     A.U. after   22 cycles

 The electronic state is 1-A.
 Alpha  occ. eigenvalues --  -89.07015 -89.06788 -14.48696 -14.48590 -14.48402
 Alpha  occ. eigenvalues --  -14.47838 -14.46908 -14.46209 -14.46090 -14.45387
 Alpha  occ. eigenvalues --  -14.41882 -14.41251 -10.35555 -10.33557 -10.33180
 Alpha  occ. eigenvalues --  -10.32880 -10.32693 -10.32669 -10.32465 -10.32365
 Alpha  occ. eigenvalues --  -10.32319 -10.32282 -10.32173 -10.32093 -10.32022
 Alpha  occ. eigenvalues --  -10.32009 -10.31905 -10.31837 -10.31496 -10.31447
 Alpha  occ. eigenvalues --  -10.31408 -10.31383 -10.31376 -10.31284 -10.31265
 Alpha  occ. eigenvalues --  -10.31070 -10.31038 -10.30961 -10.30928 -10.30861
 Alpha  occ. eigenvalues --  -10.30661 -10.30638 -10.30407 -10.30347 -10.30178
 Alpha  occ. eigenvalues --  -10.30084 -10.30003 -10.29307 -10.29283 -10.29217
 Alpha  occ. eigenvalues --  -10.29185 -10.29066 -10.28974 -10.28931 -10.28887
 Alpha  occ. eigenvalues --  -10.28860 -10.28804 -10.28710 -10.28688 -10.28570
 Alpha  occ. eigenvalues --  -10.28563 -10.28531 -10.28514 -10.28467 -10.28337
 Alpha  occ. eigenvalues --  -10.28229 -10.28146 -10.28023 -10.27954 -10.27944
 Alpha  occ. eigenvalues --  -10.27899 -10.27895 -10.27809 -10.27516 -10.27507
 Alpha  occ. eigenvalues --  -10.27504 -10.27436 -10.27283 -10.27261 -10.27247
 Alpha  occ. eigenvalues --  -10.27201 -10.27192 -10.27172 -10.27075 -10.27073
 Alpha  occ. eigenvalues --  -10.27064 -10.27037 -10.27017 -10.27009 -10.26953
 Alpha  occ. eigenvalues --  -10.26920 -10.26892 -10.26891 -10.26887 -10.26787
 Alpha  occ. eigenvalues --  -10.26777 -10.26773 -10.26738 -10.26683 -10.26621
 Alpha  occ. eigenvalues --  -10.26617 -10.26595 -10.26537 -10.26529 -10.26500
 Alpha  occ. eigenvalues --  -10.26426 -10.26424 -10.26414 -10.26319 -10.26304
 Alpha  occ. eigenvalues --  -10.26294 -10.26239 -10.26147 -10.26022 -10.25835
 Alpha  occ. eigenvalues --  -10.25775 -10.25655 -10.25646  -8.07082  -8.06847
 Alpha  occ. eigenvalues --   -6.01214  -6.00981  -6.00829  -6.00596  -6.00539
 Alpha  occ. eigenvalues --   -6.00301  -3.57128  -3.54439  -2.25176  -2.24752
 Alpha  occ. eigenvalues --   -2.22768  -2.21680  -2.20812  -2.18981  -1.03696
 Alpha  occ. eigenvalues --   -1.02997  -1.02736  -1.02607  -1.02594  -1.02125
 Alpha  occ. eigenvalues --   -1.01125  -1.00717  -0.99944  -0.99611  -0.96028
 Alpha  occ. eigenvalues --   -0.95179  -0.94989  -0.92686  -0.92631  -0.92556
 Alpha  occ. eigenvalues --   -0.91654  -0.90543  -0.90525  -0.90482  -0.89135
 Alpha  occ. eigenvalues --   -0.88930  -0.88565  -0.87330  -0.86622  -0.86483
 Alpha  occ. eigenvalues --   -0.85737  -0.85586  -0.85150  -0.84738  -0.84603
 Alpha  occ. eigenvalues --   -0.84388  -0.84286  -0.83417  -0.83257  -0.82786
 Alpha  occ. eigenvalues --   -0.82769  -0.82649  -0.82613  -0.82310  -0.82251
 Alpha  occ. eigenvalues --   -0.81843  -0.81710  -0.81221  -0.79753  -0.79293
 Alpha  occ. eigenvalues --   -0.79278  -0.78962  -0.78907  -0.78742  -0.78731
 Alpha  occ. eigenvalues --   -0.78654  -0.78480  -0.78088  -0.77940  -0.77631
 Alpha  occ. eigenvalues --   -0.77020  -0.76453  -0.75295  -0.74957  -0.74287
 Alpha  occ. eigenvalues --   -0.73818  -0.71030  -0.70831  -0.70692  -0.70561
 Alpha  occ. eigenvalues --   -0.70457  -0.70353  -0.69889  -0.69593  -0.69340
 Alpha  occ. eigenvalues --   -0.69282  -0.69055  -0.68715  -0.68589  -0.68552
 Alpha  occ. eigenvalues --   -0.68382  -0.67972  -0.67129  -0.66980  -0.66960
 Alpha  occ. eigenvalues --   -0.66800  -0.66630  -0.65349  -0.64908  -0.64725
 Alpha  occ. eigenvalues --   -0.64705  -0.64557  -0.64029  -0.63292  -0.62985
 Alpha  occ. eigenvalues --   -0.62028  -0.61811  -0.61645  -0.61349  -0.60964
 Alpha  occ. eigenvalues --   -0.60782  -0.60263  -0.59955  -0.59692  -0.58437
 Alpha  occ. eigenvalues --   -0.58349  -0.58229  -0.58065  -0.57946  -0.57655
 Alpha  occ. eigenvalues --   -0.57548  -0.57526  -0.57287  -0.57098  -0.56940
 Alpha  occ. eigenvalues --   -0.56720  -0.56566  -0.56230  -0.55917  -0.55794
 Alpha  occ. eigenvalues --   -0.55764  -0.55112  -0.55088  -0.54719  -0.54416
 Alpha  occ. eigenvalues --   -0.54359  -0.54074  -0.53964  -0.53395  -0.53103
 Alpha  occ. eigenvalues --   -0.52807  -0.52688  -0.52070  -0.51873  -0.51759
 Alpha  occ. eigenvalues --   -0.51718  -0.51609  -0.51506  -0.51418  -0.51284
 Alpha  occ. eigenvalues --   -0.51231  -0.51178  -0.50968  -0.50717  -0.50686
 Alpha  occ. eigenvalues --   -0.50660  -0.50510  -0.50246  -0.50160  -0.50072
 Alpha  occ. eigenvalues --   -0.50017  -0.49577  -0.49491  -0.49394  -0.49302
 Alpha  occ. eigenvalues --   -0.49131  -0.48976  -0.48875  -0.48680  -0.48409
 Alpha  occ. eigenvalues --   -0.48353  -0.48061  -0.47911  -0.47855  -0.47559
 Alpha  occ. eigenvalues --   -0.47493  -0.47271  -0.47159  -0.47103  -0.46870
 Alpha  occ. eigenvalues --   -0.46860  -0.46709  -0.46537  -0.46460  -0.46392
 Alpha  occ. eigenvalues --   -0.46196  -0.46075  -0.45934  -0.45884  -0.45719
 Alpha  occ. eigenvalues --   -0.45568  -0.45417  -0.45320  -0.45100  -0.45023
 Alpha  occ. eigenvalues --   -0.44802  -0.44487  -0.44365  -0.44192  -0.44158
 Alpha  occ. eigenvalues --   -0.44061  -0.43993  -0.43955  -0.43677  -0.43591
 Alpha  occ. eigenvalues --   -0.43303  -0.43114  -0.43025  -0.42679  -0.42477
 Alpha  occ. eigenvalues --   -0.42439  -0.42319  -0.42131  -0.42053  -0.41887
 Alpha  occ. eigenvalues --   -0.41748  -0.41707  -0.41604  -0.41506  -0.41359
 Alpha  occ. eigenvalues --   -0.41235  -0.40889  -0.40833  -0.40663  -0.40551
 Alpha  occ. eigenvalues --   -0.40334  -0.40042  -0.39970  -0.39739  -0.39421
 Alpha  occ. eigenvalues --   -0.39064  -0.38965  -0.38691  -0.38505  -0.38412
 Alpha  occ. eigenvalues --   -0.38381  -0.38213  -0.38029  -0.37897  -0.37660
 Alpha  occ. eigenvalues --   -0.37579  -0.37330  -0.37237  -0.37069  -0.36588
 Alpha  occ. eigenvalues --   -0.36265  -0.36116  -0.35401  -0.35064  -0.35006
 Alpha  occ. eigenvalues --   -0.34880  -0.34646  -0.34619  -0.34346  -0.34021
 Alpha  occ. eigenvalues --   -0.33996  -0.33941  -0.33710  -0.33492  -0.33260
 Alpha  occ. eigenvalues --   -0.32971  -0.32870  -0.32620  -0.32555  -0.32453
 Alpha  occ. eigenvalues --   -0.32181  -0.31817  -0.31756  -0.31458  -0.31077
 Alpha  occ. eigenvalues --   -0.30988  -0.30982  -0.30780  -0.30650  -0.30402
 Alpha  occ. eigenvalues --   -0.30202  -0.30174  -0.30019  -0.29961  -0.29819
 Alpha  occ. eigenvalues --   -0.29468  -0.29370  -0.29282  -0.29219  -0.29128
 Alpha  occ. eigenvalues --   -0.28879  -0.28754  -0.27962  -0.27755  -0.27438
 Alpha  occ. eigenvalues --   -0.27268  -0.27154  -0.26899  -0.26548  -0.26176
 Alpha  occ. eigenvalues --   -0.25929  -0.24841  -0.24664
 Alpha virt. eigenvalues --   -0.19550  -0.10933  -0.10554  -0.09860  -0.09445
 Alpha virt. eigenvalues --   -0.09162  -0.08800  -0.08188  -0.07917  -0.07436
 Alpha virt. eigenvalues --   -0.07189  -0.07090  -0.06620  -0.06561  -0.06248

 Mulliken charges:
               1
     1  Pd   0.477166
     2  Pd   0.198175
     3  C    0.001825
     4  C    0.140264
     5  N   -0.317612
     6  C    0.139275
     7  C   -0.037359
     8  C    0.036983
     9  C   -0.121233
    10  C    0.011675
    11  C    0.020475
    12  C   -0.135519
    13  S    0.170068
    14  C    0.074373
    15  C   -0.037869
    16  C    0.125383
    17  N   -0.314529
    18  C    0.122255
    19  C   -0.030241
    20  H    0.072099
    21  H    0.105240
    22  H    0.110309
    23  H    0.072282
    24  H    0.059670
    25  H    0.059461
    26  H    0.060056
    27  H    0.110469
    28  H    0.102859
    29  H    0.062497
    30  C   -0.037540
    31  C    0.124544
    32  N   -0.318764
    33  C    0.125657
    34  C   -0.021379
    35  C    0.082510
    36  C   -0.134064
    37  C    0.011591
    38  C    0.022306
    39  C   -0.125665
    40  S    0.175852
    41  C    0.039862
    42  C   -0.035353
    43  C    0.119282
    44  N   -0.300253
    45  C    0.116847
    46  C   -0.016353
    47  H    0.070225
    48  H    0.112346
    49  H    0.116050
    50  H    0.071370
    51  H    0.062496
    52  H    0.059951
    53  H    0.066321
    54  H    0.100141
    55  H    0.093087
    56  H    0.064344
    57  C   -0.027890
    58  C    0.135443
    59  N   -0.326155
    60  C    0.154821
    61  C   -0.014367
    62  C    0.026722
    63  C   -0.020930
    64  C   -0.036801
    65  C    0.018869
    66  C   -0.083239
    67  C    0.014514
    68  C    0.018155
    69  C   -0.045063
    70  N   -0.184114
    71  C   -0.045098
    72  C    0.036273
    73  C   -0.015075
    74  C   -0.094849
    75  C    0.003277
    76  C    0.054367
    77  C   -0.145017
    78  C   -0.027909
    79  C    0.105121
    80  C    0.004392
    81  C    0.079158
    82  C   -0.016986
    83  C    0.060859
    84  C    0.082418
    85  N   -0.101598
    86  C   -0.084994
    87  C    0.025647
    88  C    0.024337
    89  C    0.020985
    90  C    0.013495
    91  C    0.042168
    92  C   -0.008214
    93  C    0.008902
    94  C   -0.035132
    95  C   -0.026596
    96  C    0.008589
    97  C   -0.002267
    98  C    0.028003
    99  H    0.061663
   100  H    0.109350
   101  H    0.078335
   102  H    0.050604
   103  H    0.042694
   104  H    0.046444
   105  H    0.048829
   106  H    0.083410
   107  H    0.084783
   108  H    0.086807
   109  H    0.121752
   110  H    0.103993
   111  H    0.121844
   112  H    0.053356
   113  H    0.046639
   114  H    0.052583
   115  H    0.064265
   116  H    0.053948
   117  H    0.041024
   118  H    0.050073
   119  H    0.053017
   120  H    0.060637
   121  H    0.048391
   122  C   -0.031789
   123  C    0.136445
   124  N   -0.326391
   125  C    0.157075
   126  C   -0.015862
   127  C    0.029528
   128  C   -0.081924
   129  C    0.020084
   130  C    0.004761
   131  C   -0.075091
   132  C   -0.046948
   133  C    0.068407
   134  C   -0.071617
   135  N   -0.181824
   136  C   -0.048724
   137  C    0.035116
   138  C   -0.023938
   139  C   -0.065973
   140  C    0.012890
   141  C   -0.038737
   142  C   -0.026549
   143  C    0.014231
   144  C   -0.008610
   145  C    0.002210
   146  C   -0.014431
   147  C   -0.069349
   148  C    0.144020
   149  C    0.050731
   150  N   -0.251177
   151  C    0.010755
   152  C    0.103356
   153  C   -0.027546
   154  C   -0.001044
   155  C    0.008922
   156  C    0.033306
   157  C    0.016051
   158  C    0.012271
   159  C   -0.039584
   160  C   -0.020626
   161  C    0.002912
   162  C   -0.004496
   163  C    0.037387
   164  H    0.061189
   165  H    0.103602
   166  H    0.120820
   167  H    0.043238
   168  H    0.043184
   169  H    0.035746
   170  H    0.043114
   171  H    0.042864
   172  H    0.052227
   173  H    0.046266
   174  H    0.124134
   175  H    0.106080
   176  H    0.101960
   177  H    0.047809
   178  H    0.026978
   179  H    0.051324
   180  H    0.061157
   181  H    0.049695
   182  H    0.033967
   183  H    0.050456
   184  H    0.045089
   185  H    0.061091
   186  H    0.047222
 Sum of Mulliken charges =   4.00000

 Dipole moment (field-independent basis, Debye):
    X=            -16.0698    Y=            -22.3640    Z=             -0.2410  Tot=             27.5399
 Quadrupole moment (field-independent basis, Debye-Ang):
   XX=            652.2419   YY=           -442.6878   ZZ=           -605.9622
   XY=            -30.6584   XZ=             45.1692   YZ=             14.8647

 Normal termination of Gaussian 16 at Fri Jun  2 07:07:04 2023.
