                         Program Version 4.2.1 -  RELEASE  -
|  1> # closed shell KS, PBE0/def2-SVP/D4
|  2> ! DFT SP RKS PBE0 def2-TZVP D4 Grid6 NOFINALGRID SlowConv TightSCF printbasis
|  3>
|  4> %base "_ba"
|  5> %maxcore 4000
|  6> %scf
|  7>    MaxIter 2000
|  8> end
|  9>
| 10> %pal
| 11>    nprocs 48
| 12> end
| 13>
| 14> * xyzfile 0 1 binolA_dopt.xyz
| 15>
| 16>
| 17>                          ****END OF INPUT****

CARTESIAN COORDINATES (ANGSTROEM)
---------------------------------
  H     -1.073702   -0.707575    1.401196
  O     -1.860462   -0.578457    0.849309
  C     -1.684948   -1.244318   -0.301530
  C     -0.526210   -1.972338   -0.542948
  C     -0.358563   -2.658016   -1.784210
  C      0.794167   -3.431823   -2.075085
  C      0.925442   -4.065307   -3.290056
  C     -0.086876   -3.963703   -4.270052
  C     -1.221102   -3.230657   -4.010179
  C     -1.385717   -2.563208   -2.770840
  C     -2.548759   -1.813044   -2.477092
  C     -2.727860   -1.160630   -1.274458
  C     -3.951326   -0.378915   -1.016039
  C     -4.483066    0.453962   -2.014086
  N     -5.597967    1.155359   -1.881642
  C     -6.263255    1.072498   -0.725876
  C     -5.819097    0.287253    0.345946
  C     -4.650765   -0.440483    0.198798
  H     -4.276789   -1.060683    1.014075
  H     -6.408446    0.267878    1.264057
  C     -7.499486    1.859654   -0.636460
  N     -8.240061    1.833592    0.398814
  C     -9.381520    2.628710    0.480260
  C     -9.439788    3.940155   -0.019315
  C    -10.605931    4.688256    0.111562
  C    -11.729332    4.142212    0.731463
  C    -11.673427    2.843622    1.239632
  C    -10.505429    2.097973    1.131065
  H    -10.438173    1.086546    1.536329
  H    -12.546401    2.412584    1.735829
  H    -12.642847    4.732739    0.831746
  H    -10.634731    5.711893   -0.269785
  H     -8.553540    4.380037   -0.482514
  H     -7.730759    2.450790   -1.541841
  H     -3.948076    0.560807   -2.965391
  H     -3.343373   -1.770233   -3.226264
  H     -2.014620   -3.150300   -4.757876
  H      0.031676   -4.472323   -5.229186
  H      1.819028   -4.659169   -3.496659
  H      1.572935   -3.527097   -1.315379
  C      0.529580   -1.981587    0.500402
  C      1.687426   -1.247432    0.274104
  C      2.727867   -1.178594    1.250798
  C      2.547577   -1.851906    2.441591
  C      1.385993   -2.610445    2.719207
  C      1.220580   -3.300664    3.945893
  C      0.088155   -4.041940    4.189720
  C     -0.921361   -4.129268    3.205476
  C     -0.789326   -3.473357    2.002555
  C      0.361434   -2.690473    1.728599
  H     -1.565877   -3.557728    1.239290
  H     -1.813357   -4.729919    3.398950
  H     -0.031041   -4.568195    5.139230
  H      2.012144   -3.231418    4.696775
  H      3.340273   -1.819775    3.193345
  C      3.950422   -0.390470    1.008159
  C      4.476402    0.430125    2.019262
  N      5.590127    1.135901    1.900252
  C      6.260094    1.069390    0.746151
  C      5.822182    0.296930   -0.337499
  C      4.654609   -0.434698   -0.204623
  H      4.284950   -1.044890   -1.029396
  H      6.415447    0.290413   -1.253265
  C      7.494671    1.860744    0.671232
  N      8.240612    1.846700   -0.360377
  C      9.380015    2.645899   -0.428724
  C      9.430122    3.954415    0.079273
  C     10.594387    4.707538   -0.039400
  C     11.723895    4.169337   -0.655002
  C     11.676222    2.873536   -1.171100
  C     10.510227    2.123084   -1.074995
  H     10.449405    1.113894   -1.486798
  H     12.554094    2.448552   -1.663864
  H     12.635852    4.763805   -0.745700
  H     10.616897    5.728957    0.348256
  H      8.539145    4.388129    0.539231
  H      7.719730    2.443662    1.583484
  H      3.937578    0.522939    2.969888
  O      1.864405   -0.561284   -0.864579
  H      1.079066   -0.681907   -1.420385

 Total Charge           Charge          ....    0
 Multiplicity           Mult            ....    1
 Number of Electrons    NEL             ....  338
 Basis Dimension        Dim             .... 1730

ORBITAL ENERGIES
----------------

  NO   OCC          E(Eh)            E(eV)
   0   2.0000     -19.256245      -523.9891
   1   2.0000     -19.256214      -523.9882
   2   2.0000     -14.391029      -391.5998
   3   2.0000     -14.390992      -391.5988
   4   2.0000     -14.390768      -391.5927
   5   2.0000     -14.390737      -391.5918
   6   2.0000     -10.313331      -280.6400
   7   2.0000     -10.313315      -280.6396
   8   2.0000     -10.273711      -279.5619
   9   2.0000     -10.273656      -279.5604
  10   2.0000     -10.272102      -279.5181
  11   2.0000     -10.272071      -279.5173
  12   2.0000     -10.268444      -279.4186
  13   2.0000     -10.268418      -279.4178
  14   2.0000     -10.262289      -279.2511
  15   2.0000     -10.262278      -279.2508
  16   2.0000     -10.260974      -279.2153
  17   2.0000     -10.260963      -279.2150
  18   2.0000     -10.260530      -279.2032
  19   2.0000     -10.260524      -279.2030
  20   2.0000     -10.259069      -279.1635
  21   2.0000     -10.259066      -279.1634
  22   2.0000     -10.255232      -279.0591
  23   2.0000     -10.254909      -279.0503
  24   2.0000     -10.253286      -279.0061
  25   2.0000     -10.253278      -279.0059
  26   2.0000     -10.252278      -278.9787
  27   2.0000     -10.252266      -278.9783
  28   2.0000     -10.251498      -278.9575
  29   2.0000     -10.251453      -278.9562
  30   2.0000     -10.244701      -278.7725
  31   2.0000     -10.244696      -278.7723
  32   2.0000     -10.243813      -278.7483
  33   2.0000     -10.243798      -278.7479
  34   2.0000     -10.241514      -278.6858
  35   2.0000     -10.241497      -278.6853
  36   2.0000     -10.241381      -278.6821
  37   2.0000     -10.241351      -278.6813
  38   2.0000     -10.240440      -278.6565
  39   2.0000     -10.240439      -278.6565
  40   2.0000     -10.231376      -278.4099
  41   2.0000     -10.231366      -278.4096
  42   2.0000     -10.230439      -278.3844
  43   2.0000     -10.230433      -278.3842
  44   2.0000     -10.230266      -278.3797
  45   2.0000     -10.230261      -278.3796
  46   2.0000     -10.228423      -278.3295
  47   2.0000     -10.228396      -278.3288
  48   2.0000     -10.227119      -278.2940
  49   2.0000     -10.227108      -278.2938
  50   2.0000      -1.122505       -30.5449
  51   2.0000      -1.119507       -30.4633
  52   2.0000      -0.990229       -26.9455
  53   2.0000      -0.990204       -26.9448
  54   2.0000      -0.967584       -26.3293
  55   2.0000      -0.967545       -26.3282
  56   2.0000      -0.927722       -25.2446
  57   2.0000      -0.917954       -24.9788
  58   2.0000      -0.877340       -23.8736
  59   2.0000      -0.877307       -23.8727
  60   2.0000      -0.874033       -23.7837
  61   2.0000      -0.873976       -23.7821
  62   2.0000      -0.857178       -23.3250
  63   2.0000      -0.836860       -22.7721
  64   2.0000      -0.828916       -22.5560
  65   2.0000      -0.813922       -22.1479
  66   2.0000      -0.810675       -22.0596
  67   2.0000      -0.802085       -21.8258
  68   2.0000      -0.781942       -21.2777
  69   2.0000      -0.781163       -21.2565
  70   2.0000      -0.771664       -20.9980
  71   2.0000      -0.771650       -20.9977
  72   2.0000      -0.767738       -20.8912
  73   2.0000      -0.762157       -20.7393
  74   2.0000      -0.757679       -20.6175
  75   2.0000      -0.744690       -20.2640
  76   2.0000      -0.699440       -19.0327
  77   2.0000      -0.698984       -19.0203
  78   2.0000      -0.694393       -18.8954
  79   2.0000      -0.673252       -18.3201
  80   2.0000      -0.658678       -17.9236
  81   2.0000      -0.655112       -17.8265
  82   2.0000      -0.651586       -17.7305
  83   2.0000      -0.649623       -17.6772
  84   2.0000      -0.644087       -17.5265
  85   2.0000      -0.632126       -17.2010
  86   2.0000      -0.630218       -17.1491
  87   2.0000      -0.622764       -16.9463
  88   2.0000      -0.621745       -16.9185
  89   2.0000      -0.614885       -16.7319
  90   2.0000      -0.590844       -16.0777
  91   2.0000      -0.589086       -16.0298
  92   2.0000      -0.585340       -15.9279
  93   2.0000      -0.584094       -15.8940
  94   2.0000      -0.558654       -15.2017
  95   2.0000      -0.558436       -15.1958
  96   2.0000      -0.553100       -15.0506
  97   2.0000      -0.549636       -14.9563
  98   2.0000      -0.547047       -14.8859
  99   2.0000      -0.535973       -14.5846
 100   2.0000      -0.518861       -14.1189
 101   2.0000      -0.517157       -14.0726
 102   2.0000      -0.512235       -13.9386
 103   2.0000      -0.508136       -13.8271
 104   2.0000      -0.494639       -13.4598
 105   2.0000      -0.492465       -13.4007
 106   2.0000      -0.490982       -13.3603
 107   2.0000      -0.489358       -13.3161
 108   2.0000      -0.482726       -13.1356
 109   2.0000      -0.481190       -13.0938
 110   2.0000      -0.476482       -12.9657
 111   2.0000      -0.474452       -12.9105
 112   2.0000      -0.474332       -12.9072
 113   2.0000      -0.467397       -12.7185
 114   2.0000      -0.465891       -12.6775
 115   2.0000      -0.461647       -12.5621
 116   2.0000      -0.458835       -12.4855
 117   2.0000      -0.453927       -12.3520
 118   2.0000      -0.453732       -12.3467
 119   2.0000      -0.448144       -12.1946
 120   2.0000      -0.447330       -12.1725
 121   2.0000      -0.445097       -12.1117
 122   2.0000      -0.439265       -11.9530
 123   2.0000      -0.436068       -11.8660
 124   2.0000      -0.435656       -11.8548
 125   2.0000      -0.433685       -11.8012
 126   2.0000      -0.433085       -11.7849
 127   2.0000      -0.428458       -11.6589
 128   2.0000      -0.427834       -11.6420
 129   2.0000      -0.424140       -11.5414
 130   2.0000      -0.421087       -11.4584
 131   2.0000      -0.414066       -11.2673
 132   2.0000      -0.407964       -11.1013
 133   2.0000      -0.404890       -11.0176
 134   2.0000      -0.402170       -10.9436
 135   2.0000      -0.402095       -10.9416
 136   2.0000      -0.398748       -10.8505
 137   2.0000      -0.390815       -10.6346
 138   2.0000      -0.390130       -10.6160
 139   2.0000      -0.374630       -10.1942
 140   2.0000      -0.374590       -10.1931
 141   2.0000      -0.373138       -10.1536
 142   2.0000      -0.370772       -10.0892
 143   2.0000      -0.368829       -10.0363
 144   2.0000      -0.364331        -9.9140
 145   2.0000      -0.364179        -9.9098
 146   2.0000      -0.355334        -9.6691
 147   2.0000      -0.354490        -9.6462
 148   2.0000      -0.351670        -9.5694
 149   2.0000      -0.344990        -9.3877
 150   2.0000      -0.343109        -9.3365
 151   2.0000      -0.324041        -8.8176
 152   2.0000      -0.314621        -8.5613
 153   2.0000      -0.310344        -8.4449
 154   2.0000      -0.305588        -8.3155
 155   2.0000      -0.302062        -8.2195
 156   2.0000      -0.301860        -8.2140
 157   2.0000      -0.287251        -7.8165
 158   2.0000      -0.286973        -7.8089
 159   2.0000      -0.277472        -7.5504
 160   2.0000      -0.276980        -7.5370
 161   2.0000      -0.268970        -7.3191
 162   2.0000      -0.268959        -7.3187
 163   2.0000      -0.255960        -6.9650
 164   2.0000      -0.255886        -6.9630
 165   2.0000      -0.245086        -6.6691
 166   2.0000      -0.237694        -6.4680
 167   2.0000      -0.236137        -6.4256
 168   2.0000      -0.232503        -6.3267
 169   0.0000      -0.081321        -2.2129
 170   0.0000      -0.079588        -2.1657
 171   0.0000      -0.059375        -1.6157
 172   0.0000      -0.050906        -1.3852
 173   0.0000      -0.030493        -0.8298

MULLIKEN ATOMIC CHARGES
-----------------------
   0 H :    0.344961
   1 O :   -0.364175
   2 C :    0.216976
   3 C :   -0.117918
   4 C :    0.080776
   5 C :   -0.195515
   6 C :   -0.108321
   7 C :   -0.102602
   8 C :   -0.237043
   9 C :    0.180797
  10 C :   -0.319436
  11 C :    0.060483
  12 C :    0.077641
  13 C :   -0.143461
  14 N :   -0.205823
  15 C :    0.233133
  16 C :   -0.195371
  17 C :   -0.135075
  18 H :    0.134037
  19 H :    0.137157
  20 C :   -0.101670
  21 N :   -0.166926
  22 C :    0.269273
  23 C :   -0.260938
  24 C :   -0.099296
  25 C :   -0.131898
  26 C :   -0.071551
  27 C :   -0.242487
  28 H :    0.112111
  29 H :    0.117314
  30 H :    0.117907
  31 H :    0.118753
  32 H :    0.128133
  33 H :    0.099745
  34 H :    0.136526
  35 H :    0.140327
  36 H :    0.119590
  37 H :    0.121770
  38 H :    0.121400
  39 H :    0.130722
  40 C :   -0.120339
  41 C :    0.219247
  42 C :    0.059174
  43 C :   -0.318935
  44 C :    0.180818
  45 C :   -0.236868
  46 C :   -0.102660
  47 C :   -0.108323
  48 C :   -0.195751
  49 C :    0.081425
  50 H :    0.130885
  51 H :    0.121387
  52 H :    0.121761
  53 H :    0.119643
  54 H :    0.140228
  55 C :    0.078072
  56 C :   -0.143640
  57 N :   -0.205763
  58 C :    0.233367
  59 C :   -0.195323
  60 C :   -0.135084
  61 H :    0.133832
  62 H :    0.137204
  63 C :   -0.102088
  64 N :   -0.166845
  65 C :    0.269112
  66 C :   -0.261106
  67 C :   -0.099132
  68 C :   -0.131943
  69 C :   -0.071586
  70 C :   -0.242539
  71 H :    0.112117
  72 H :    0.117311
  73 H :    0.117900
  74 H :    0.118738
  75 H :    0.128226
  76 H :    0.099930
  77 H :    0.136570
  78 O :   -0.363990
  79 H :    0.344943
Sum of atomic charges:   -0.0000000

LOEWDIN ATOMIC CHARGES
----------------------
   0 H :    0.201843
   1 O :    0.142041
   2 C :   -0.212011
   3 C :   -0.098422
   4 C :   -0.077840
   5 C :   -0.104541
   6 C :   -0.136140
   7 C :   -0.145830
   8 C :   -0.099407
   9 C :   -0.100936
  10 C :   -0.050329
  11 C :   -0.083614
  12 C :   -0.103775
  13 C :   -0.169784
  14 N :    0.168746
  15 C :   -0.224146
  16 C :   -0.087428
  17 C :   -0.072501
  18 H :    0.157650
  19 H :    0.159233
  20 C :   -0.163685
  21 N :    0.177952
  22 C :   -0.216499
  23 C :   -0.118579
  24 C :   -0.144253
  25 C :   -0.148883
  26 C :   -0.143548
  27 C :   -0.107660
  28 H :    0.151058
  29 H :    0.147520
  30 H :    0.146058
  31 H :    0.147601
  32 H :    0.150682
  33 H :    0.140122
  34 H :    0.147233
  35 H :    0.161556
  36 H :    0.152237
  37 H :    0.148565
  38 H :    0.149661
  39 H :    0.160037
  40 C :   -0.098442
  41 C :   -0.212164
  42 C :   -0.083685
  43 C :   -0.050322
  44 C :   -0.100969
  45 C :   -0.099428
  46 C :   -0.145815
  47 C :   -0.136143
  48 C :   -0.104393
  49 C :   -0.077778
  50 H :    0.160067
  51 H :    0.149665
  52 H :    0.148568
  53 H :    0.152240
  54 H :    0.161572
  55 C :   -0.103815
  56 C :   -0.169753
  57 N :    0.168760
  58 C :   -0.224121
  59 C :   -0.087413
  60 C :   -0.072469
  61 H :    0.157638
  62 H :    0.159242
  63 C :   -0.163626
  64 N :    0.178043
  65 C :   -0.216526
  66 C :   -0.118621
  67 C :   -0.144247
  68 C :   -0.148940
  69 C :   -0.143546
  70 C :   -0.107714
  71 H :    0.151053
  72 H :    0.147519
  73 H :    0.146055
  74 H :    0.147599
  75 H :    0.150690
  76 H :    0.140137
  77 H :    0.147244
  78 O :    0.142013
  79 H :    0.201836

  Mayer bond orders larger than 0.100000
B(  0-H ,  1-O ) :   0.8416 B(  1-O ,  2-C ) :   1.2267 B(  2-C ,  3-C ) :   1.3715
B(  2-C , 11-C ) :   1.2820 B(  3-C ,  4-C ) :   1.0493 B(  3-C , 40-C ) :   0.6488
B(  4-C ,  5-C ) :   1.3400 B(  4-C ,  9-C ) :   1.2911 B(  5-C ,  6-C ) :   1.5407
B(  5-C , 39-H ) :   0.9474 B(  6-C ,  7-C ) :   1.2705 B(  6-C , 38-H ) :   0.9664
B(  7-C ,  8-C ) :   1.5318 B(  7-C , 37-H ) :   0.9668 B(  8-C ,  9-C ) :   1.2346
B(  8-C , 36-H ) :   0.9813 B(  9-C , 10-C ) :   1.1887 B( 10-C , 11-C ) :   1.4920
B( 10-C , 35-H ) :   0.9783 B( 11-C , 12-C ) :   0.8774 B( 12-C , 13-C ) :   1.3493
B( 12-C , 17-C ) :   1.3306 B( 13-C , 14-N ) :   1.5602 B( 13-C , 34-H ) :   0.9784
B( 14-N , 15-C ) :   1.3842 B( 15-C , 16-C ) :   1.3725 B( 15-C , 20-C ) :   1.0519
B( 15-C , 21-N ) :  -0.1126 B( 16-C , 17-C ) :   1.4290 B( 16-C , 19-H ) :   0.9527
B( 17-C , 18-H ) :   0.9667 B( 20-C , 21-N ) :   1.8854 B( 20-C , 33-H ) :   0.9226
B( 21-N , 22-C ) :   1.0579 B( 22-C , 23-C ) :   1.3535 B( 22-C , 27-C ) :   1.4006
B( 23-C , 24-C ) :   1.4379 B( 23-C , 32-H ) :   0.9566 B( 24-C , 25-C ) :   1.4199
B( 24-C , 31-H ) :   0.9575 B( 25-C , 26-C ) :   1.4053 B( 25-C , 30-H ) :   0.9625
B( 26-C , 27-C ) :   1.4390 B( 26-C , 29-H ) :   0.9648 B( 27-C , 28-H ) :   0.9706
B( 40-C , 41-C ) :   1.3704 B( 40-C , 49-C ) :   1.0488 B( 41-C , 42-C ) :   1.2814
B( 41-C , 78-O ) :   1.2277 B( 42-C , 43-C ) :   1.4927 B( 42-C , 55-C ) :   0.8766
B( 43-C , 44-C ) :   1.1879 B( 43-C , 54-H ) :   0.9787 B( 44-C , 45-C ) :   1.2348
B( 44-C , 49-C ) :   1.2906 B( 45-C , 46-C ) :   1.5318 B( 45-C , 53-H ) :   0.9812
B( 46-C , 47-C ) :   1.2704 B( 46-C , 52-H ) :   0.9668 B( 47-C , 48-C ) :   1.5407
B( 47-C , 51-H ) :   0.9665 B( 48-C , 49-C ) :   1.3397 B( 48-C , 50-H ) :   0.9477
B( 55-C , 56-C ) :   1.3494 B( 55-C , 60-C ) :   1.3306 B( 56-C , 57-N ) :   1.5598
B( 56-C , 77-H ) :   0.9784 B( 57-N , 58-C ) :   1.3846 B( 58-C , 59-C ) :   1.3725
B( 58-C , 63-C ) :   1.0514 B( 58-C , 64-N ) :  -0.1127 B( 59-C , 60-C ) :   1.4292
B( 59-C , 62-H ) :   0.9526 B( 60-C , 61-H ) :   0.9668 B( 63-C , 64-N ) :   1.8855
B( 63-C , 76-H ) :   0.9229 B( 64-N , 65-C ) :   1.0576 B( 65-C , 66-C ) :   1.3539
B( 65-C , 70-C ) :   1.4005 B( 66-C , 67-C ) :   1.4376 B( 66-C , 75-H ) :   0.9567
B( 67-C , 68-C ) :   1.4201 B( 67-C , 74-H ) :   0.9575 B( 68-C , 69-C ) :   1.4052
B( 68-C , 73-H ) :   0.9625 B( 69-C , 70-C ) :   1.4391 B( 69-C , 72-H ) :   0.9648
B( 70-C , 71-H ) :   0.9706 B( 78-O , 79-H ) :   0.8417

Dispersion correction           -0.111238913
FINAL SINGLE POINT ENERGY     -2062.657607042877

DIPOLE MOMENT
-------------
                                X             Y             Z
Electronic contribution:      0.00494      -5.36461      -0.04584
Nuclear contribution   :     -0.00425       4.22804       0.03404
                        -----------------------------------------
Total Dipole Moment    :      0.00069      -1.13657      -0.01180
                        -----------------------------------------
Magnitude (a.u.)       :      1.13663
Magnitude (Debye)      :      2.88909

Rotational constants in cm-1:     0.002616     0.000606     0.000563
Rotational constants in MHz :    78.424099    18.182089    16.891296

                             ****ORCA TERMINATED NORMALLY****
TOTAL RUN TIME: 0 days 0 hours 16 minutes 36 seconds 813 msec
