                         Program Version 4.2.1 -  RELEASE  -
|  1> # closed shell KS, PBE0/def2-SVP/D4
|  2> ! DFT SP RKS PBE0 def2-TZVP D4 Grid6 NOFINALGRID SlowConv TightSCF printbasis
|  3>
|  4> %base "_bB"
|  5> %maxcore 4000
|  6> %scf
|  7>    MaxIter 2000
|  8> end
|  9>
| 10> %pal
| 11>    nprocs 48
| 12> end
| 13>
| 14> * xyzfile 0 1 binolB_dopt.xyz
| 15>
| 16>
| 17>                          ****END OF INPUT****

CARTESIAN COORDINATES (ANGSTROEM)
---------------------------------
  H     -7.658158   -1.977307   -0.150147
  C     -6.636512   -2.376201   -0.009594
  N     -6.351145   -3.616942   -0.028343
  C     -7.347625   -4.582698   -0.158587
  C     -8.626119   -4.454613    0.409366
  C     -9.566247   -5.469078    0.255745
  C     -9.252578   -6.620183   -0.466571
  C     -7.980365   -6.758388   -1.023454
  C     -7.030405   -5.756969   -0.858079
  H     -6.025141   -5.853257   -1.272899
  H     -7.722885   -7.661307   -1.582483
  H     -9.993772   -7.414106   -0.583669
  H    -10.553075   -5.362974    0.713036
  H     -8.868962   -3.568362    1.000034
  C     -5.608227   -1.347225    0.191026
  N     -6.039276   -0.082250    0.201102
  C     -5.149846    0.881094    0.387180
  C     -3.776283    0.660792    0.581156
  C     -3.336245   -0.672382    0.557006
  C     -4.259262   -1.685896    0.362530
  H     -3.975670   -2.739538    0.344037
  H     -2.278306   -0.898736    0.694439
  C     -2.863668    1.794398    0.821894
  C     -3.226758    2.824848    1.666248
  C     -2.366507    3.916506    1.927418
  C     -2.741005    4.962223    2.809872
  C     -1.882562    6.003137    3.072317
  C     -0.606056    6.035682    2.466950
  C     -0.214289    5.036446    1.605946
  C     -1.082795    3.956076    1.305691
  C     -0.710909    2.904421    0.416167
  C     -1.584101    1.854713    0.190916
  O     -1.209587    0.838925   -0.631598
  C     -1.568800    1.000901   -1.987229
  H     -1.195227    0.121049   -2.526631
  H     -1.108985    1.908140   -2.413707
  H     -2.665015    1.058203   -2.106769
  C      0.593087    2.890682   -0.291658
  C      1.541231    1.923332    0.009783
  C      2.725525    1.776858   -0.782178
  C      2.940447    2.662132   -1.817443
  C      2.024274    3.690808   -2.131573
  C      2.256138    4.587291   -3.205114
  C      1.331407    5.550231   -3.532331
  C      0.127677    5.642505   -2.799406
  C     -0.124348    4.787708   -1.750245
  C      0.821091    3.797904   -1.373108
  H     -1.061211    4.867828   -1.196745
  H     -0.612897    6.399388   -3.068631
  H      1.520439    6.237090   -4.360413
  H      3.185974    4.493928   -3.772240
  H      3.833466    2.552886   -2.437406
  C      3.704968    0.706452   -0.515977
  C      5.082044    0.967529   -0.614968
  N      6.026757    0.050195   -0.480798
  C      5.655077   -1.207055   -0.220114
  C      4.313012   -1.578837   -0.066441
  C      3.331305   -0.613305   -0.216244
  H      2.275920   -0.869588   -0.117852
  H      4.077493   -2.621821    0.151934
  C      6.743960   -2.185478   -0.115287
  N      6.530513   -3.417047    0.129266
  C      7.592695   -4.311194    0.257171
  C      8.826038   -3.968306    0.836155
  C      9.841736   -4.914398    0.934550
  C      9.649067   -6.211119    0.458306
  C      8.420390   -6.562744   -0.102419
  C      7.395621   -5.627128   -0.188259
  H      6.423764   -5.886474   -0.612713
  H      8.256886   -7.579571   -0.467596
  H     10.449246   -6.950526    0.538754
  H     10.792804   -4.637526    1.396288
  H      8.973873   -2.962575    1.236074
  H      7.749927   -1.760406   -0.289022
  H      5.421745    1.992746   -0.804380
  O      1.409773    1.046996    1.027239
  C      1.014113    1.479583    2.309563
  H      1.282057    2.534748    2.475817
  H      1.552674    0.853634    3.035433
  H     -0.068704    1.361715    2.467904
  H      0.771868    5.066473    1.138294
  H      0.075027    6.861570    2.684952
  H     -2.182078    6.803890    3.752370
  H     -3.726834    4.923194    3.280278
  H     -4.192514    2.787201    2.176297
  H     -5.531164    1.909188    0.367042

 Total Charge           Charge          ....    0
 Multiplicity           Mult            ....    1
 Number of Electrons    NEL             ....  354
 Basis Dimension        Dim             .... 1816

ORBITAL ENERGIES
----------------

  NO   OCC          E(Eh)            E(eV)
   0   2.0000     -19.241609      -523.5908
   1   2.0000     -19.235646      -523.4285
   2   2.0000     -14.392028      -391.6270
   3   2.0000     -14.391419      -391.6104
   4   2.0000     -14.387696      -391.5091
   5   2.0000     -14.387043      -391.4913
   6   2.0000     -10.301273      -280.3119
   7   2.0000     -10.298514      -280.2368
   8   2.0000     -10.276397      -279.6350
   9   2.0000     -10.275008      -279.5972
  10   2.0000     -10.274334      -279.5788
  11   2.0000     -10.273067      -279.5444
  12   2.0000     -10.270551      -279.4759
  13   2.0000     -10.269320      -279.4424
  14   2.0000     -10.268043      -279.4077
  15   2.0000     -10.263770      -279.2914
  16   2.0000     -10.263116      -279.2736
  17   2.0000     -10.260364      -279.1987
  18   2.0000     -10.259322      -279.1704
  19   2.0000     -10.258259      -279.1414
  20   2.0000     -10.254725      -279.0452
  21   2.0000     -10.254078      -279.0276
  22   2.0000     -10.253047      -278.9996
  23   2.0000     -10.252758      -278.9917
  24   2.0000     -10.252581      -278.9869
  25   2.0000     -10.251764      -278.9647
  26   2.0000     -10.251524      -278.9582
  27   2.0000     -10.248660      -278.8802
  28   2.0000     -10.248347      -278.8717
  29   2.0000     -10.246218      -278.8138
  30   2.0000     -10.246165      -278.8123
  31   2.0000     -10.243196      -278.7315
  32   2.0000     -10.242784      -278.7203
  33   2.0000     -10.242160      -278.7034
  34   2.0000     -10.242012      -278.6993
  35   2.0000     -10.240826      -278.6670
  36   2.0000     -10.239757      -278.6380
  37   2.0000     -10.238385      -278.6006
  38   2.0000     -10.237491      -278.5763
  39   2.0000     -10.237362      -278.5728
  40   2.0000     -10.235176      -278.5133
  41   2.0000     -10.234831      -278.5039
  42   2.0000     -10.232381      -278.4372
  43   2.0000     -10.231362      -278.4095
  44   2.0000     -10.231270      -278.4070
  45   2.0000     -10.229992      -278.3722
  46   2.0000     -10.229590      -278.3613
  47   2.0000     -10.228946      -278.3438
  48   2.0000     -10.228691      -278.3368
  49   2.0000     -10.227992      -278.3178
  50   2.0000     -10.227179      -278.2957
  51   2.0000     -10.225415      -278.2477
  52   2.0000      -1.110158       -30.2089
  53   2.0000      -1.103943       -30.0398
  54   2.0000      -0.990900       -26.9638
  55   2.0000      -0.986227       -26.8366
  56   2.0000      -0.967987       -26.3403
  57   2.0000      -0.964237       -26.2382
  58   2.0000      -0.924544       -25.1581
  59   2.0000      -0.912066       -24.8186
  60   2.0000      -0.877545       -23.8792
  61   2.0000      -0.874614       -23.7995
  62   2.0000      -0.873212       -23.7613
  63   2.0000      -0.869307       -23.6551
  64   2.0000      -0.853410       -23.2225
  65   2.0000      -0.834170       -22.6989
  66   2.0000      -0.825660       -22.4674
  67   2.0000      -0.812676       -22.1140
  68   2.0000      -0.807831       -21.9822
  69   2.0000      -0.797338       -21.6967
  70   2.0000      -0.783642       -21.3240
  71   2.0000      -0.781339       -21.2613
  72   2.0000      -0.773602       -21.0508
  73   2.0000      -0.771423       -20.9915
  74   2.0000      -0.770149       -20.9568
  75   2.0000      -0.765364       -20.8266
  76   2.0000      -0.756146       -20.5758
  77   2.0000      -0.746052       -20.3011
  78   2.0000      -0.729109       -19.8401
  79   2.0000      -0.712140       -19.3783
  80   2.0000      -0.698244       -19.0002
  81   2.0000      -0.693654       -18.8753
  82   2.0000      -0.672626       -18.3031
  83   2.0000      -0.664068       -18.0702
  84   2.0000      -0.651830       -17.7372
  85   2.0000      -0.647129       -17.6093
  86   2.0000      -0.645332       -17.5604
  87   2.0000      -0.637057       -17.3352
  88   2.0000      -0.634012       -17.2523
  89   2.0000      -0.630548       -17.1581
  90   2.0000      -0.627222       -17.0676
  91   2.0000      -0.622195       -16.9308
  92   2.0000      -0.618631       -16.8338
  93   2.0000      -0.604145       -16.4396
  94   2.0000      -0.588624       -16.0173
  95   2.0000      -0.585091       -15.9211
  96   2.0000      -0.559084       -15.2135
  97   2.0000      -0.557218       -15.1627
  98   2.0000      -0.555037       -15.1033
  99   2.0000      -0.551209       -14.9992
 100   2.0000      -0.550258       -14.9733
 101   2.0000      -0.546848       -14.8805
 102   2.0000      -0.542975       -14.7751
 103   2.0000      -0.532348       -14.4859
 104   2.0000      -0.518016       -14.0959
 105   2.0000      -0.513274       -13.9669
 106   2.0000      -0.511155       -13.9092
 107   2.0000      -0.505110       -13.7447
 108   2.0000      -0.498662       -13.5693
 109   2.0000      -0.495457       -13.4821
 110   2.0000      -0.491622       -13.3777
 111   2.0000      -0.485188       -13.2026
 112   2.0000      -0.484212       -13.1761
 113   2.0000      -0.481986       -13.1155
 114   2.0000      -0.479609       -13.0508
 115   2.0000      -0.476965       -12.9789
 116   2.0000      -0.474336       -12.9073
 117   2.0000      -0.471747       -12.8369
 118   2.0000      -0.470119       -12.7926
 119   2.0000      -0.465463       -12.6659
 120   2.0000      -0.461261       -12.5516
 121   2.0000      -0.455126       -12.3846
 122   2.0000      -0.452214       -12.3054
 123   2.0000      -0.451156       -12.2766
 124   2.0000      -0.450878       -12.2690
 125   2.0000      -0.447050       -12.1648
 126   2.0000      -0.444918       -12.1068
 127   2.0000      -0.442991       -12.0544
 128   2.0000      -0.439342       -11.9551
 129   2.0000      -0.436027       -11.8649
 130   2.0000      -0.434026       -11.8105
 131   2.0000      -0.433755       -11.8031
 132   2.0000      -0.431421       -11.7396
 133   2.0000      -0.423810       -11.5324
 134   2.0000      -0.420235       -11.4352
 135   2.0000      -0.419383       -11.4120
 136   2.0000      -0.417661       -11.3651
 137   2.0000      -0.412684       -11.2297
 138   2.0000      -0.406041       -11.0489
 139   2.0000      -0.401151       -10.9159
 140   2.0000      -0.399333       -10.8664
 141   2.0000      -0.391716       -10.6591
 142   2.0000      -0.387197       -10.5362
 143   2.0000      -0.384107       -10.4521
 144   2.0000      -0.380132       -10.3439
 145   2.0000      -0.375502       -10.2179
 146   2.0000      -0.373080       -10.1520
 147   2.0000      -0.370051       -10.0696
 148   2.0000      -0.366701        -9.9784
 149   2.0000      -0.366057        -9.9609
 150   2.0000      -0.364421        -9.9164
 151   2.0000      -0.363027        -9.8785
 152   2.0000      -0.357880        -9.7384
 153   2.0000      -0.355146        -9.6640
 154   2.0000      -0.351051        -9.5526
 155   2.0000      -0.347072        -9.4443
 156   2.0000      -0.345376        -9.3982
 157   2.0000      -0.324530        -8.8309
 158   2.0000      -0.312653        -8.5077
 159   2.0000      -0.311060        -8.4644
 160   2.0000      -0.305227        -8.3056
 161   2.0000      -0.304520        -8.2864
 162   2.0000      -0.301052        -8.1920
 163   2.0000      -0.297766        -8.1026
 164   2.0000      -0.297168        -8.0864
 165   2.0000      -0.283915        -7.7257
 166   2.0000      -0.282013        -7.6740
 167   2.0000      -0.281557        -7.6616
 168   2.0000      -0.273916        -7.4536
 169   2.0000      -0.269940        -7.3454
 170   2.0000      -0.267260        -7.2725
 171   2.0000      -0.258582        -7.0364
 172   2.0000      -0.251364        -6.8400
 173   2.0000      -0.243141        -6.6162
 174   2.0000      -0.236397        -6.4327
 175   2.0000      -0.234395        -6.3782
 176   2.0000      -0.229228        -6.2376
 177   0.0000      -0.080969        -2.2033
 178   0.0000      -0.076314        -2.0766
 179   0.0000      -0.058226        -1.5844
 180   0.0000      -0.048630        -1.3233
 181   0.0000      -0.031553        -0.8586

MULLIKEN ATOMIC CHARGES
-----------------------
   0 H :    0.097583
   1 C :   -0.100343
   2 N :   -0.167592
   3 C :    0.269818
   4 C :   -0.257540
   5 C :   -0.102059
   6 C :   -0.130713
   7 C :   -0.071934
   8 C :   -0.241273
   9 H :    0.112668
  10 H :    0.117924
  11 H :    0.118401
  12 H :    0.118795
  13 H :    0.125777
  14 C :    0.236826
  15 N :   -0.204987
  16 C :   -0.134425
  17 C :    0.009145
  18 C :   -0.123331
  19 C :   -0.200950
  20 H :    0.136687
  21 H :    0.144666
  22 C :    0.159030
  23 C :   -0.406325
  24 C :    0.197409
  25 C :   -0.233082
  26 C :   -0.105159
  27 C :   -0.105216
  28 C :   -0.226843
  29 C :    0.103413
  30 C :    0.009065
  31 C :    0.319493
  32 O :   -0.319060
  33 C :   -0.233933
  34 H :    0.136426
  35 H :    0.141517
  36 H :    0.131484
  37 C :   -0.010589
  38 C :    0.290905
  39 C :    0.121282
  40 C :   -0.374374
  41 C :    0.184677
  42 C :   -0.229971
  43 C :   -0.112236
  44 C :   -0.106644
  45 C :   -0.242760
  46 C :   -0.032158
  47 H :    0.135983
  48 H :    0.118929
  49 H :    0.118493
  50 H :    0.117000
  51 H :    0.137327
  52 C :    0.062334
  53 C :   -0.141268
  54 N :   -0.207081
  55 C :    0.229943
  56 C :   -0.193762
  57 C :   -0.148372
  58 H :    0.138944
  59 H :    0.134842
  60 C :   -0.096603
  61 N :   -0.167556
  62 C :    0.269519
  63 C :   -0.259080
  64 C :   -0.100967
  65 C :   -0.131993
  66 C :   -0.071181
  67 C :   -0.241207
  68 H :    0.111933
  69 H :    0.117010
  70 H :    0.117459
  71 H :    0.118083
  72 H :    0.126220
  73 H :    0.095977
  74 H :    0.135482
  75 O :   -0.290192
  76 C :   -0.225081
  77 H :    0.129764
  78 H :    0.144073
  79 H :    0.130071
  80 H :    0.142243
  81 H :    0.121663
  82 H :    0.120765
  83 H :    0.118626
  84 H :    0.135657
  85 H :    0.136506
Sum of atomic charges:   -0.0000000

LOEWDIN ATOMIC CHARGES
----------------------
   0 H :    0.139580
   1 C :   -0.164493
   2 N :    0.177341
   3 C :   -0.216525
   4 C :   -0.117970
   5 C :   -0.144257
   6 C :   -0.147872
   7 C :   -0.143157
   8 C :   -0.106727
   9 H :    0.151264
  10 H :    0.147691
  11 H :    0.146211
  12 H :    0.147591
  13 H :    0.150228
  14 C :   -0.224851
  15 N :    0.167744
  16 C :   -0.172430
  17 C :   -0.107380
  18 C :   -0.073534
  19 C :   -0.088899
  20 H :    0.159285
  21 H :    0.160676
  22 C :   -0.083548
  23 C :   -0.055705
  24 C :   -0.096249
  25 C :   -0.100310
  26 C :   -0.142747
  27 C :   -0.137449
  28 C :   -0.100282
  29 C :   -0.069436
  30 C :   -0.054369
  31 C :   -0.191338
  32 O :    0.248121
  33 C :   -0.334237
  34 H :    0.118158
  35 H :    0.117844
  36 H :    0.113289
  37 C :   -0.057670
  38 C :   -0.184004
  39 C :   -0.077283
  40 C :   -0.055677
  41 C :   -0.099489
  42 C :   -0.101400
  43 C :   -0.147690
  44 C :   -0.140412
  45 C :   -0.103116
  46 C :   -0.066527
  47 H :    0.161905
  48 H :    0.148639
  49 H :    0.147591
  50 H :    0.151352
  51 H :    0.160059
  52 C :   -0.101899
  53 C :   -0.172209
  54 N :    0.166738
  55 C :   -0.226467
  56 C :   -0.090141
  57 C :   -0.073598
  58 H :    0.159358
  59 H :    0.158424
  60 C :   -0.164850
  61 N :    0.175371
  62 C :   -0.216297
  63 C :   -0.118613
  64 C :   -0.144949
  65 C :   -0.149064
  66 C :   -0.143929
  67 C :   -0.107282
  68 H :    0.151123
  69 H :    0.147358
  70 H :    0.145861
  71 H :    0.147332
  72 H :    0.150281
  73 H :    0.139583
  74 H :    0.146725
  75 O :    0.269039
  76 C :   -0.327212
  77 H :    0.120076
  78 H :    0.115867
  79 H :    0.117595
  80 H :    0.161869
  81 H :    0.149439
  82 H :    0.148571
  83 H :    0.151689
  84 H :    0.159494
  85 H :    0.147178

  Mayer bond orders larger than 0.100000
B(  0-H ,  1-C ) :   0.9208 B(  1-C ,  2-N ) :   1.8856 B(  1-C , 14-C ) :   1.0541
B(  2-N ,  3-C ) :   1.0615 B(  2-N , 14-C ) :  -0.1140 B(  3-C ,  4-C ) :   1.3502
B(  3-C ,  8-C ) :   1.4016 B(  4-C ,  5-C ) :   1.4415 B(  4-C , 13-H ) :   0.9561
B(  5-C ,  6-C ) :   1.4191 B(  5-C , 12-H ) :   0.9574 B(  6-C ,  7-C ) :   1.4058
B(  6-C , 11-H ) :   0.9624 B(  7-C ,  8-C ) :   1.4381 B(  7-C , 10-H ) :   0.9648
B(  8-C ,  9-H ) :   0.9702 B( 14-C , 15-N ) :   1.3841 B( 14-C , 19-C ) :   1.3634
B( 15-N , 16-C ) :   1.5633 B( 16-C , 17-C ) :   1.3597 B( 16-C , 85-H ) :   0.9776
B( 17-C , 18-C ) :   1.3361 B( 17-C , 22-C ) :   0.8531 B( 18-C , 19-C ) :   1.4170
B( 18-C , 21-H ) :   0.9655 B( 19-C , 20-H ) :   0.9586 B( 22-C , 23-C ) :   1.4702
B( 22-C , 31-C ) :   1.2360 B( 23-C , 24-C ) :   1.1905 B( 23-C , 84-H ) :   0.9770
B( 24-C , 25-C ) :   1.2223 B( 24-C , 29-C ) :   1.3102 B( 25-C , 26-C ) :   1.5319
B( 25-C , 83-H ) :   0.9851 B( 26-C , 27-C ) :   1.2666 B( 26-C , 82-H ) :   0.9687
B( 27-C , 28-C ) :   1.5540 B( 27-C , 81-H ) :   0.9661 B( 28-C , 29-C ) :   1.3010
B( 28-C , 30-C ) :  -0.1049 B( 28-C , 80-H ) :   0.9460 B( 29-C , 30-C ) :   0.9761
B( 30-C , 31-C ) :   1.4103 B( 30-C , 37-C ) :   0.5081 B( 31-C , 32-O ) :   0.9439
B( 32-O , 33-C ) :   0.9333 B( 33-C , 34-H ) :   0.9727 B( 33-C , 35-H ) :   0.9644
B( 33-C , 36-H ) :   0.9656 B( 37-C , 38-C ) :   1.3184 B( 37-C , 45-C ) :  -0.1011
B( 37-C , 46-C ) :   1.0757 B( 38-C , 39-C ) :   1.2493 B( 38-C , 75-O ) :   1.0462
B( 39-C , 40-C ) :   1.4709 B( 39-C , 52-C ) :   0.8730 B( 40-C , 41-C ) :   1.1989
B( 40-C , 51-H ) :   0.9708 B( 41-C , 42-C ) :   1.2225 B( 41-C , 46-C ) :   1.3094
B( 42-C , 43-C ) :   1.5273 B( 42-C , 50-H ) :   0.9850 B( 43-C , 44-C ) :   1.2689
B( 43-C , 49-H ) :   0.9695 B( 44-C , 45-C ) :   1.5595 B( 44-C , 48-H ) :   0.9683
B( 45-C , 46-C ) :   1.2970 B( 45-C , 47-H ) :   0.9513 B( 52-C , 53-C ) :   1.3465
B( 52-C , 57-C ) :   1.3526 B( 53-C , 54-N ) :   1.5637 B( 53-C , 74-H ) :   0.9766
B( 54-N , 55-C ) :   1.3809 B( 55-C , 56-C ) :   1.3678 B( 55-C , 60-C ) :   1.0607
B( 55-C , 61-N ) :  -0.1109 B( 56-C , 57-C ) :   1.4112 B( 56-C , 59-H ) :   0.9567
B( 57-C , 58-H ) :   0.9663 B( 60-C , 61-N ) :   1.8840 B( 60-C , 73-H ) :   0.9178
B( 61-N , 62-C ) :   1.0640 B( 62-C , 63-C ) :   1.3506 B( 62-C , 67-C ) :   1.4031
B( 63-C , 64-C ) :   1.4397 B( 63-C , 72-H ) :   0.9559 B( 64-C , 65-C ) :   1.4187
B( 64-C , 71-H ) :   0.9574 B( 65-C , 66-C ) :   1.4066 B( 65-C , 70-H ) :   0.9628
B( 66-C , 67-C ) :   1.4370 B( 66-C , 69-H ) :   0.9651 B( 67-C , 68-H ) :   0.9702
B( 75-O , 76-C ) :   0.9522 B( 76-C , 77-H ) :   0.9672 B( 76-C , 78-H ) :   0.9615
B( 76-C , 79-H ) :   0.9629

Dispersion correction           -0.122037844
FINAL SINGLE POINT ENERGY     -2141.170720014495

DIPOLE MOMENT
-------------
                                X             Y             Z
Electronic contribution:      1.34042       6.34557       0.35720
Nuclear contribution   :     -1.81566      -5.17198      -0.22892
                        -----------------------------------------
Total Dipole Moment    :     -0.47524       1.17359       0.12828
                        -----------------------------------------
Magnitude (a.u.)       :      1.27264
Magnitude (Debye)      :      3.23480

Rotational constants in cm-1:     0.001525     0.000865     0.000603
Rotational constants in MHz :    45.707693    25.928445    18.069796

                             ****ORCA TERMINATED NORMALLY****
TOTAL RUN TIME: 0 days 0 hours 19 minutes 31 seconds 631 msec
