                         Program Version 4.2.1 -  RELEASE  -
|  1> # closed shell KS, PBE0/def2-SVP/D4
|  2> ! DFT SP RKS PBE0 def2-TZVP D4 Grid6 NOFINALGRID SlowConv TightSCF printbasis
|  3>
|  4> %base "_fe4dd_xtb_dft_sg46_2_2"
|  5> %maxcore 4000
|  6> %scf
|  7>    MaxIter 2000
|  8> end
|  9>
| 10> %pal
| 11>    nprocs 48
| 12> end
| 13>
| 14> * xyzfile 0 1 fe4dd_xtb_dft_sg46_2_2.xyz
| 15>
| 16>
| 17>                          ****END OF INPUT****

CARTESIAN COORDINATES (ANGSTROEM)
---------------------------------
  H     10.379000   14.512900   14.605700
  H      6.228600    5.741500    8.983500
  H     10.166400   11.142200   10.379100
  H      8.891600    8.024600   13.102400
  H     14.197600   18.857500   14.453800
  H      5.553000   -0.006700    9.020900
  H     14.073800   16.724900   15.735300
  H      4.658800    0.726900   11.224900
  H     12.907000   19.105900   12.339700
  H      6.962900    1.546100    7.678300
  H      8.892300   12.405800   14.952400
  H      6.760600    8.274400    8.683300
  H     11.530500   17.245400   11.496100
  H      7.480200    3.812000    8.535200
  H      8.028800   10.257700   14.016500
  H      7.846900   10.324200    9.609900
  H     12.671700   14.857600   14.909200
  H      5.176400    2.974000   12.092500
  N     10.325700   12.542700   11.898500
  N      7.846300    7.018600   11.623300
  N     11.179700   14.860200   12.708800
  N      6.639000    4.859200   10.831100
  C     10.507400   14.176400   13.570200
  C      6.637500    5.841000    9.995900
  C      9.849200   11.406700   11.389200
  C      8.410900    8.115500   12.127100
  C     13.573900   18.036400   14.093800
  C      5.773100    0.995700    9.394500
  C     13.499300   16.844500   14.814100
  C      5.275800    1.405500   10.632000
  C     12.854400   18.174000   12.906500
  C      6.558400    1.867500    8.640600
  C      9.156000   12.091100   13.941300
  C      7.249000    8.255700    9.659000
  C     12.069400   17.128300   12.434200
  C      6.832900    3.146500    9.111900
  C      8.681800   10.896700   13.417600
  C      7.857200    9.390700   10.177000
  C     12.697700   15.802700   14.361200
  C      5.561500    2.675900   11.119400
  C      9.959000   12.908500   13.143400
  C      7.240800    7.085100   10.420200
  C     11.964400   15.942500   13.171500
  C      6.324500    3.565500   10.352600
  C      9.002000   10.546300   12.098600
  C      8.434100    9.343000   11.453800

 Total Charge           Charge          ....    0
 Multiplicity           Mult            ....    1
 Number of Electrons    NEL             ....  190
 Basis Dimension        Dim             ....  976

ORBITAL ENERGIES
----------------

  NO   OCC          E(Eh)            E(eV)
   0   2.0000     -14.391612      -391.6157
   1   2.0000     -14.391608      -391.6156
   2   2.0000     -14.391003      -391.5991
   3   2.0000     -14.390919      -391.5968
   4   2.0000     -10.278635      -279.6959
   5   2.0000     -10.278598      -279.6949
   6   2.0000     -10.275798      -279.6187
   7   2.0000     -10.275709      -279.6163
   8   2.0000     -10.274205      -279.5753
   9   2.0000     -10.274072      -279.5717
  10   2.0000     -10.264894      -279.3220
  11   2.0000     -10.264570      -279.3132
  12   2.0000     -10.263179      -279.2753
  13   2.0000     -10.263106      -279.2733
  14   2.0000     -10.262834      -279.2659
  15   2.0000     -10.262811      -279.2653
  16   2.0000     -10.255653      -279.0705
  17   2.0000     -10.255612      -279.0694
  18   2.0000     -10.231155      -278.4039
  19   2.0000     -10.231153      -278.4038
  20   2.0000     -10.230347      -278.3819
  21   2.0000     -10.230327      -278.3813
  22   2.0000     -10.230098      -278.3751
  23   2.0000     -10.230050      -278.3738
  24   2.0000     -10.227902      -278.3154
  25   2.0000     -10.227857      -278.3141
  26   2.0000     -10.227505      -278.3046
  27   2.0000     -10.227475      -278.3037
  28   2.0000      -0.993638       -27.0383
  29   2.0000      -0.990847       -26.9623
  30   2.0000      -0.959378       -26.1060
  31   2.0000      -0.957071       -26.0432
  32   2.0000      -0.879783       -23.9401
  33   2.0000      -0.875694       -23.8288
  34   2.0000      -0.867856       -23.6156
  35   2.0000      -0.837868       -22.7995
  36   2.0000      -0.824442       -22.4342
  37   2.0000      -0.804225       -21.8841
  38   2.0000      -0.773519       -21.0485
  39   2.0000      -0.772537       -21.0218
  40   2.0000      -0.769201       -20.9310
  41   2.0000      -0.756320       -20.5805
  42   2.0000      -0.711788       -19.3687
  43   2.0000      -0.689759       -18.7693
  44   2.0000      -0.670521       -18.2458
  45   2.0000      -0.661388       -17.9973
  46   2.0000      -0.641311       -17.4510
  47   2.0000      -0.631117       -17.1736
  48   2.0000      -0.625221       -17.0131
  49   2.0000      -0.621139       -16.9020
  50   2.0000      -0.593623       -16.1533
  51   2.0000      -0.591627       -16.0990
  52   2.0000      -0.556688       -15.1483
  53   2.0000      -0.555941       -15.1279
  54   2.0000      -0.546920       -14.8825
  55   2.0000      -0.532921       -14.5015
  56   2.0000      -0.514356       -13.9963
  57   2.0000      -0.512701       -13.9513
  58   2.0000      -0.501207       -13.6385
  59   2.0000      -0.487095       -13.2545
  60   2.0000      -0.482818       -13.1381
  61   2.0000      -0.475904       -12.9500
  62   2.0000      -0.475505       -12.9392
  63   2.0000      -0.473801       -12.8928
  64   2.0000      -0.460035       -12.5182
  65   2.0000      -0.453564       -12.3421
  66   2.0000      -0.450946       -12.2709
  67   2.0000      -0.441588       -12.0162
  68   2.0000      -0.439550       -11.9608
  69   2.0000      -0.435730       -11.8568
  70   2.0000      -0.435567       -11.8524
  71   2.0000      -0.430793       -11.7225
  72   2.0000      -0.427581       -11.6351
  73   2.0000      -0.421600       -11.4723
  74   2.0000      -0.396987       -10.8026
  75   2.0000      -0.389804       -10.6071
  76   2.0000      -0.386981       -10.5303
  77   2.0000      -0.375444       -10.2163
  78   2.0000      -0.374485       -10.1902
  79   2.0000      -0.367977       -10.0132
  80   2.0000      -0.364370        -9.9150
  81   2.0000      -0.357191        -9.7197
  82   2.0000      -0.346877        -9.4390
  83   2.0000      -0.320388        -8.7182
  84   2.0000      -0.312557        -8.5051
  85   2.0000      -0.307522        -8.3681
  86   2.0000      -0.303570        -8.2605
  87   2.0000      -0.291283        -7.9262
  88   2.0000      -0.289589        -7.8801
  89   2.0000      -0.273634        -7.4460
  90   2.0000      -0.269689        -7.3386
  91   2.0000      -0.269572        -7.3354
  92   2.0000      -0.262207        -7.1350
  93   2.0000      -0.236147        -6.4259
  94   2.0000      -0.233595        -6.3564
  95   0.0000      -0.091282        -2.4839
  96   0.0000      -0.068571        -1.8659
  97   0.0000      -0.040431        -1.1002
  98   0.0000      -0.037000        -1.0068
  99   0.0000      -0.009707        -0.2641

MULLIKEN ATOMIC CHARGES
-----------------------
   0 H :    0.115374
   1 H :    0.115453
   2 H :    0.139424
   3 H :    0.139152
   4 H :    0.117168
   5 H :    0.117137
   6 H :    0.117624
   7 H :    0.118564
   8 H :    0.118574
   9 H :    0.117641
  10 H :    0.129184
  11 H :    0.129216
  12 H :    0.114706
  13 H :    0.131180
  14 H :    0.149251
  15 H :    0.149293
  16 H :    0.131261
  17 H :    0.114595
  18 N :   -0.163552
  19 N :   -0.163359
  20 N :   -0.099024
  21 N :   -0.098911
  22 C :   -0.246686
  23 C :   -0.245891
  24 C :   -0.157524
  25 C :   -0.157560
  26 C :   -0.139089
  27 C :   -0.139178
  28 C :   -0.100134
  29 C :   -0.061781
  30 C :   -0.061585
  31 C :   -0.099898
  32 C :   -0.181778
  33 C :   -0.180917
  34 C :   -0.257701
  35 C :   -0.274515
  36 C :   -0.207329
  37 C :   -0.208431
  38 C :   -0.274444
  39 C :   -0.257269
  40 C :    0.343679
  41 C :    0.342951
  42 C :    0.254204
  43 C :    0.253726
  44 C :    0.158286
  45 C :    0.158915
Sum of atomic charges:   -0.0000000

LOEWDIN ATOMIC CHARGES
----------------------
   0 H :    0.134534
   1 H :    0.134495
   2 H :    0.147450
   3 H :    0.147417
   4 H :    0.145763
   5 H :    0.145742
   6 H :    0.146960
   7 H :    0.147549
   8 H :    0.147547
   9 H :    0.146950
  10 H :    0.153633
  11 H :    0.153605
  12 H :    0.151657
  13 H :    0.150596
  14 H :    0.158222
  15 H :    0.158155
  16 H :    0.150603
  17 H :    0.151603
  18 N :    0.196463
  19 N :    0.196496
  20 N :    0.198724
  21 N :    0.198689
  22 C :   -0.174311
  23 C :   -0.174158
  24 C :   -0.159627
  25 C :   -0.159936
  26 C :   -0.150182
  27 C :   -0.150288
  28 C :   -0.145645
  29 C :   -0.142826
  30 C :   -0.142816
  31 C :   -0.145697
  32 C :   -0.104963
  33 C :   -0.104967
  34 C :   -0.107623
  35 C :   -0.124959
  36 C :   -0.079866
  37 C :   -0.079823
  38 C :   -0.124957
  39 C :   -0.107683
  40 C :   -0.224659
  41 C :   -0.224386
  42 C :   -0.205899
  43 C :   -0.205682
  44 C :   -0.110929
  45 C :   -0.110973

  Mayer bond orders larger than 0.100000
B(  0-H , 22-C ) :   0.9823 B(  1-H , 23-C ) :   0.9818 B(  2-H , 24-C ) :   0.9823
B(  3-H , 25-C ) :   0.9824 B(  4-H , 26-C ) :   0.9623 B(  5-H , 27-C ) :   0.9622
B(  6-H , 28-C ) :   0.9562 B(  7-H , 29-C ) :   0.9627 B(  8-H , 30-C ) :   0.9627
B(  9-H , 31-C ) :   0.9562 B( 10-H , 32-C ) :   0.9657 B( 11-H , 33-C ) :   0.9660
B( 12-H , 34-C ) :   0.9742 B( 13-H , 35-C ) :   0.9560 B( 14-H , 36-C ) :   0.9576
B( 15-H , 37-C ) :   0.9579 B( 16-H , 38-C ) :   0.9559 B( 17-H , 39-C ) :   0.9743
B( 18-N , 24-C ) :   1.5950 B( 18-N , 40-C ) :   1.3338 B( 19-N , 25-C ) :   1.5960
B( 19-N , 41-C ) :   1.3331 B( 20-N , 22-C ) :   1.9260 B( 20-N , 42-C ) :   1.0804
B( 21-N , 23-C ) :   1.9257 B( 21-N , 43-C ) :   1.0802 B( 22-C , 40-C ) :   0.9336
B( 23-C , 41-C ) :   0.9339 B( 24-C , 44-C ) :   1.3042 B( 25-C , 45-C ) :   1.3041
B( 26-C , 28-C ) :   1.4247 B( 26-C , 30-C ) :   1.4083 B( 27-C , 29-C ) :   1.4083
B( 27-C , 31-C ) :   1.4248 B( 28-C , 38-C ) :   1.4364 B( 29-C , 39-C ) :   1.4386
B( 30-C , 34-C ) :   1.4387 B( 31-C , 35-C ) :   1.4359 B( 32-C , 36-C ) :   1.4388
B( 32-C , 40-C ) :   1.3394 B( 33-C , 37-C ) :   1.4378 B( 33-C , 41-C ) :   1.3401
B( 34-C , 42-C ) :   1.3960 B( 35-C , 43-C ) :   1.3409 B( 36-C , 44-C ) :   1.3870
B( 37-C , 45-C ) :   1.3872 B( 38-C , 42-C ) :   1.3405 B( 39-C , 43-C ) :   1.3957
B( 44-C , 45-C ) :   0.8920

Dispersion correction           -0.053715130
FINAL SINGLE POINT ENERGY     -1143.458491026486

DIPOLE MOMENT
-------------
                                X             Y             Z
Electronic contribution:     -1.02450       0.47070       0.02243
Nuclear contribution   :      0.38462      -0.18672       0.00554
                        -----------------------------------------
Total Dipole Moment    :     -0.63988       0.28398       0.02797
                        -----------------------------------------
Magnitude (a.u.)       :      0.70062
Magnitude (Debye)      :      1.78084

Rotational constants in cm-1:     0.037130     0.001265     0.001246
Rotational constants in MHz :  1113.136239    37.916822    37.364810

                             ****ORCA TERMINATED NORMALLY****
TOTAL RUN TIME: 0 days 0 hours 5 minutes 51 seconds 94 msec
