                         Program Version 4.2.1 -  RELEASE  -
|  1> # closed shell KS, PBE0/def2-SVP/D4
|  2> ! DFT SP RKS PBE0 def2-TZVP D4 Grid6 NOFINALGRID SlowConv TightSCF printbasis
|  3>
|  4> %base "_fe4dd_xtb_dft_sg86_1_1"
|  5> %maxcore 4000
|  6> %scf
|  7>    MaxIter 2000
|  8> end
|  9>
| 10> %pal
| 11>    nprocs 48
| 12> end
| 13>
| 14> * xyzfile 0 1 fe4dd_xtb_dft_sg86_1_1.xyz
| 15>
| 16>
| 17>                          ****END OF INPUT****

CARTESIAN COORDINATES (ANGSTROEM)
---------------------------------
  H      8.704700   14.259500    8.331400
  H      8.136400    1.724200   13.579000
  H     13.143700   11.682100    9.987200
  H      9.773800    5.796800   10.428600
  H      5.336800   16.717300   12.285800
  H      4.627300    2.739100   17.989800
  H      5.119400   14.664100   10.890800
  H      3.412200    3.540700   15.968600
  H     18.700200    7.854100    8.350300
  H     12.933900    3.160700    3.311600
  H     17.637700    5.615000    8.083600
  H     13.991700    5.415100    3.355400
  H      7.592600   17.672500   12.732000
  H      7.090100    2.376100   17.888800
  H      9.789200   12.695300    6.536400
  H      9.831300    1.053100   11.721500
  H      9.603100   16.604500   11.795900
  H      8.325200    2.811300   15.781400
  H     11.385100   10.804600    6.151600
  H     11.317600    1.810900    9.856700
  H      7.141100   13.587800    9.940400
  H      4.634200    3.990300   13.877400
  H     17.292200    9.895400    8.395100
  H     11.783900    2.289200    5.325900
  H     15.070400   10.948800    8.288300
  H     11.012700    2.620100    7.628000
  H     15.197400    5.402500    7.855700
  H     13.927100    6.794700    5.397700
  H     11.243500    7.808400    5.819200
  H     10.336400    6.874600    7.041200
  H      9.704500    8.451900    6.471500
  H     12.845000    6.679700   11.844200
  H     14.034400    6.356600   10.538200
  H     13.063500    5.014000   11.219000
  N     11.535700   12.851900    9.418100
  N      9.012700    4.330100   11.671200
  N      9.646700   14.443700   10.185600
  N      7.285800    3.625900   13.482900
  O     11.271200    8.605600    7.749400
  O     12.016000    6.361700   10.012500
  C      9.562500   14.019700    8.971200
  C      8.107700    2.711700   13.101900
  C     12.412400   11.877700    9.200400
  C      9.803600    4.738300   10.686600
  C      6.225600   16.241800   11.865700
  C      5.172600    2.930900   17.063200
  C      6.104700   15.096200   11.080000
  C      4.492400    3.383800   15.932100
  C     17.614700    7.778100    8.259700
  C     12.890600    3.759700    4.223400
  C     17.011600    6.509600    8.108000
  C     13.490100    5.038800    4.249700
  C      7.489400   16.774500   12.119200
  C      6.549900    2.723200   17.005200
  C     10.538500   12.430700    7.285300
  C      9.842000    2.096600   11.401600
  C      8.626400   16.174400   11.589600
  C      7.242400    2.954300   15.820300
  C     11.424300   11.382500    7.076500
  C     10.659300    2.520300   10.363200
  C      7.236900   14.499600   10.534900
  C      5.180200    3.632400   14.749000
  C     16.834400    8.909200    8.283500
  C     12.253400    3.275700    5.340600
  C     14.602000    9.967100    8.174200
  C     11.515900    3.589500    7.677700
  C     15.646600    6.389300    7.978400
  C     13.452200    5.811900    5.388800
  C     10.589000   13.118200    8.500000
  C      9.018100    3.028700   12.029300
  C      8.508700   15.046000   10.770300
  C      6.558600    3.401200   14.680200
  C     12.626600    8.594900    7.831700
  C     12.078300    5.624300    8.862800
  C     12.368400   11.061900    8.063800
  C     10.649800    3.867500    9.975400
  C     15.425100    8.818800    8.148600
  C     12.193800    4.050300    6.528200
  C     13.236900    9.875400    8.001800
  C     11.431600    4.351800    8.829500
  C     14.814600    7.537800    7.981600
  C     12.809300    5.339100    6.558400
  C     13.394100    7.444400    7.840500
  C     12.748800    6.111500    7.759400
  C     10.616400    7.889400    6.720700
  C     13.046400    6.083200   10.944100

 Total Charge           Charge          ....    0
 Multiplicity           Mult            ....    1
 Number of Electrons    NEL             ....  354
 Basis Dimension        Dim             .... 1816

ORBITAL ENERGIES
----------------

  NO   OCC          E(Eh)            E(eV)
   0   2.0000     -19.238333      -523.5017
   1   2.0000     -19.233248      -523.3633
   2   2.0000     -14.386109      -391.4659
   3   2.0000     -14.381736      -391.3469
   4   2.0000     -14.381605      -391.3434
   5   2.0000     -14.376841      -391.2137
   6   2.0000     -10.298183      -280.2278
   7   2.0000     -10.297897      -280.2200
   8   2.0000     -10.275962      -279.6231
   9   2.0000     -10.272523      -279.5296
  10   2.0000     -10.270366      -279.4709
  11   2.0000     -10.269909      -279.4584
  12   2.0000     -10.267213      -279.3851
  13   2.0000     -10.266434      -279.3639
  14   2.0000     -10.262951      -279.2691
  15   2.0000     -10.260344      -279.1982
  16   2.0000     -10.258300      -279.1425
  17   2.0000     -10.257662      -279.1252
  18   2.0000     -10.257161      -279.1115
  19   2.0000     -10.255511      -279.0667
  20   2.0000     -10.255359      -279.0625
  21   2.0000     -10.255130      -279.0563
  22   2.0000     -10.253114      -279.0014
  23   2.0000     -10.252664      -278.9892
  24   2.0000     -10.251182      -278.9488
  25   2.0000     -10.250536      -278.9313
  26   2.0000     -10.250015      -278.9171
  27   2.0000     -10.249708      -278.9087
  28   2.0000     -10.248564      -278.8776
  29   2.0000     -10.248270      -278.8696
  30   2.0000     -10.248085      -278.8646
  31   2.0000     -10.246286      -278.8156
  32   2.0000     -10.243927      -278.7514
  33   2.0000     -10.243775      -278.7473
  34   2.0000     -10.242339      -278.7082
  35   2.0000     -10.241879      -278.6957
  36   2.0000     -10.241324      -278.6806
  37   2.0000     -10.240291      -278.6525
  38   2.0000     -10.237948      -278.5887
  39   2.0000     -10.236772      -278.5567
  40   2.0000     -10.234909      -278.5060
  41   2.0000     -10.234731      -278.5012
  42   2.0000     -10.226790      -278.2851
  43   2.0000     -10.226138      -278.2674
  44   2.0000     -10.225048      -278.2377
  45   2.0000     -10.224120      -278.2125
  46   2.0000     -10.223245      -278.1886
  47   2.0000     -10.222938      -278.1803
  48   2.0000     -10.222863      -278.1782
  49   2.0000     -10.222276      -278.1623
  50   2.0000     -10.220558      -278.1155
  51   2.0000     -10.219650      -278.0908
  52   2.0000      -1.103267       -30.0214
  53   2.0000      -1.098198       -29.8835
  54   2.0000      -0.985299       -26.8113
  55   2.0000      -0.981605       -26.7108
  56   2.0000      -0.952697       -25.9242
  57   2.0000      -0.948683       -25.8150
  58   2.0000      -0.924469       -25.1561
  59   2.0000      -0.911392       -24.8002
  60   2.0000      -0.875386       -23.8205
  61   2.0000      -0.871123       -23.7045
  62   2.0000      -0.869394       -23.6574
  63   2.0000      -0.865461       -23.5504
  64   2.0000      -0.852347       -23.1935
  65   2.0000      -0.833065       -22.6689
  66   2.0000      -0.825384       -22.4598
  67   2.0000      -0.813698       -22.1419
  68   2.0000      -0.808610       -22.0034
  69   2.0000      -0.797406       -21.6985
  70   2.0000      -0.781915       -21.2770
  71   2.0000      -0.779576       -21.2133
  72   2.0000      -0.770257       -20.9598
  73   2.0000      -0.767479       -20.8842
  74   2.0000      -0.765251       -20.8235
  75   2.0000      -0.760933       -20.7060
  76   2.0000      -0.751391       -20.4464
  77   2.0000      -0.742802       -20.2127
  78   2.0000      -0.726063       -19.7572
  79   2.0000      -0.711193       -19.3525
  80   2.0000      -0.698412       -19.0048
  81   2.0000      -0.691490       -18.8164
  82   2.0000      -0.667797       -18.1717
  83   2.0000      -0.663411       -18.0523
  84   2.0000      -0.655635       -17.8407
  85   2.0000      -0.645086       -17.5537
  86   2.0000      -0.640089       -17.4177
  87   2.0000      -0.635737       -17.2993
  88   2.0000      -0.632924       -17.2227
  89   2.0000      -0.626373       -17.0445
  90   2.0000      -0.622644       -16.9430
  91   2.0000      -0.618788       -16.8381
  92   2.0000      -0.614733       -16.7277
  93   2.0000      -0.602348       -16.3907
  94   2.0000      -0.586944       -15.9716
  95   2.0000      -0.583892       -15.8885
  96   2.0000      -0.558594       -15.2001
  97   2.0000      -0.555094       -15.1049
  98   2.0000      -0.553574       -15.0635
  99   2.0000      -0.549281       -14.9467
 100   2.0000      -0.548584       -14.9277
 101   2.0000      -0.541031       -14.7222
 102   2.0000      -0.539176       -14.6717
 103   2.0000      -0.536615       -14.6020
 104   2.0000      -0.522604       -14.2208
 105   2.0000      -0.515736       -14.0339
 106   2.0000      -0.503594       -13.7035
 107   2.0000      -0.500485       -13.6189
 108   2.0000      -0.495510       -13.4835
 109   2.0000      -0.494321       -13.4512
 110   2.0000      -0.489537       -13.3210
 111   2.0000      -0.484229       -13.1765
 112   2.0000      -0.481570       -13.1042
 113   2.0000      -0.479168       -13.0388
 114   2.0000      -0.475569       -12.9409
 115   2.0000      -0.474372       -12.9083
 116   2.0000      -0.470864       -12.8129
 117   2.0000      -0.469442       -12.7742
 118   2.0000      -0.467251       -12.7146
 119   2.0000      -0.466329       -12.6895
 120   2.0000      -0.464326       -12.6350
 121   2.0000      -0.453652       -12.3445
 122   2.0000      -0.452978       -12.3261
 123   2.0000      -0.449579       -12.2337
 124   2.0000      -0.447488       -12.1768
 125   2.0000      -0.444460       -12.0944
 126   2.0000      -0.444072       -12.0838
 127   2.0000      -0.440316       -11.9816
 128   2.0000      -0.438860       -11.9420
 129   2.0000      -0.433802       -11.8044
 130   2.0000      -0.432588       -11.7713
 131   2.0000      -0.430001       -11.7009
 132   2.0000      -0.427913       -11.6441
 133   2.0000      -0.423120       -11.5137
 134   2.0000      -0.421918       -11.4810
 135   2.0000      -0.418310       -11.3828
 136   2.0000      -0.417372       -11.3573
 137   2.0000      -0.413678       -11.2567
 138   2.0000      -0.403671       -10.9844
 139   2.0000      -0.396631       -10.7929
 140   2.0000      -0.393435       -10.7059
 141   2.0000      -0.384155       -10.4534
 142   2.0000      -0.382590       -10.4108
 143   2.0000      -0.382060       -10.3964
 144   2.0000      -0.377574       -10.2743
 145   2.0000      -0.372522       -10.1368
 146   2.0000      -0.370073       -10.0702
 147   2.0000      -0.368352       -10.0234
 148   2.0000      -0.366876        -9.9832
 149   2.0000      -0.366355        -9.9690
 150   2.0000      -0.364038        -9.9060
 151   2.0000      -0.356954        -9.7132
 152   2.0000      -0.354603        -9.6492
 153   2.0000      -0.351085        -9.5535
 154   2.0000      -0.344666        -9.3788
 155   2.0000      -0.341124        -9.2825
 156   2.0000      -0.338133        -9.2011
 157   2.0000      -0.322144        -8.7660
 158   2.0000      -0.310173        -8.4402
 159   2.0000      -0.307296        -8.3619
 160   2.0000      -0.304176        -8.2770
 161   2.0000      -0.300885        -8.1875
 162   2.0000      -0.297597        -8.0980
 163   2.0000      -0.297422        -8.0933
 164   2.0000      -0.293963        -7.9991
 165   2.0000      -0.287932        -7.8350
 166   2.0000      -0.275768        -7.5040
 167   2.0000      -0.267887        -7.2896
 168   2.0000      -0.267696        -7.2844
 169   2.0000      -0.264982        -7.2105
 170   2.0000      -0.262207        -7.1350
 171   2.0000      -0.255587        -6.9549
 172   2.0000      -0.245201        -6.6723
 173   2.0000      -0.240755        -6.5513
 174   2.0000      -0.233481        -6.3533
 175   2.0000      -0.227967        -6.2033
 176   2.0000      -0.224916        -6.1203
 177   0.0000      -0.080347        -2.1864
 178   0.0000      -0.073963        -2.0126
 179   0.0000      -0.055781        -1.5179
 180   0.0000      -0.048344        -1.3155
 181   0.0000      -0.031110        -0.8465

MULLIKEN ATOMIC CHARGES
-----------------------
   0 H :    0.114740
   1 H :    0.112742
   2 H :    0.137048
   3 H :    0.151597
   4 H :    0.114751
   5 H :    0.115300
   6 H :    0.115976
   7 H :    0.117119
   8 H :    0.117988
   9 H :    0.120053
  10 H :    0.117770
  11 H :    0.120789
  12 H :    0.116262
  13 H :    0.116084
  14 H :    0.123474
  15 H :    0.124044
  16 H :    0.113343
  17 H :    0.129646
  18 H :    0.123857
  19 H :    0.141191
  20 H :    0.129669
  21 H :    0.114274
  22 H :    0.117679
  23 H :    0.116882
  24 H :    0.127943
  25 H :    0.128109
  26 H :    0.135228
  27 H :    0.142901
  28 H :    0.124101
  29 H :    0.140996
  30 H :    0.142421
  31 H :    0.144840
  32 H :    0.141558
  33 H :    0.124488
  34 N :   -0.158519
  35 N :   -0.160631
  36 N :   -0.107608
  37 N :   -0.092074
  38 O :   -0.268394
  39 O :   -0.311661
  40 C :   -0.197250
  41 C :   -0.268278
  42 C :   -0.166000
  43 C :   -0.122642
  44 C :   -0.140408
  45 C :   -0.143303
  46 C :   -0.095623
  47 C :   -0.062914
  48 C :   -0.111673
  49 C :   -0.107378
  50 C :   -0.104273
  51 C :   -0.105115
  52 C :   -0.062579
  53 C :   -0.087932
  54 C :   -0.182911
  55 C :   -0.190318
  56 C :   -0.252856
  57 C :   -0.278547
  58 C :   -0.169319
  59 C :   -0.186555
  60 C :   -0.280446
  61 C :   -0.260834
  62 C :   -0.227880
  63 C :   -0.233118
  64 C :   -0.377727
  65 C :   -0.394316
  66 C :   -0.247744
  67 C :   -0.237588
  68 C :    0.292852
  69 C :    0.357461
  70 C :    0.248297
  71 C :    0.251294
  72 C :    0.199624
  73 C :    0.367423
  74 C :    0.090655
  75 C :    0.020488
  76 C :    0.202522
  77 C :    0.181626
  78 C :    0.146372
  79 C :    0.148652
  80 C :   -0.017540
  81 C :    0.105951
  82 C :    0.037352
  83 C :   -0.045515
  84 C :   -0.230229
  85 C :   -0.237733
Sum of atomic charges:   -0.0000000

LOEWDIN ATOMIC CHARGES
----------------------
   0 H :    0.133637
   1 H :    0.134600
   2 H :    0.147704
   3 H :    0.153668
   4 H :    0.144888
   5 H :    0.145099
   6 H :    0.146380
   7 H :    0.147031
   8 H :    0.147424
   9 H :    0.148239
  10 H :    0.148100
  11 H :    0.149031
  12 H :    0.146837
  13 H :    0.146382
  14 H :    0.151214
  15 H :    0.152197
  16 H :    0.151121
  17 H :    0.150755
  18 H :    0.155013
  19 H :    0.155185
  20 H :    0.150484
  21 H :    0.151329
  22 H :    0.151385
  23 H :    0.151020
  24 H :    0.159835
  25 H :    0.158097
  26 H :    0.161372
  27 H :    0.161918
  28 H :    0.116346
  29 H :    0.119124
  30 H :    0.114537
  31 H :    0.120202
  32 H :    0.115997
  33 H :    0.111944
  34 N :    0.198084
  35 N :    0.196621
  36 N :    0.197514
  37 N :    0.198993
  38 O :    0.265769
  39 O :    0.242660
  40 C :   -0.173046
  41 C :   -0.175906
  42 C :   -0.158977
  43 C :   -0.149906
  44 C :   -0.153310
  45 C :   -0.153634
  46 C :   -0.146745
  47 C :   -0.143517
  48 C :   -0.147360
  49 C :   -0.143489
  50 C :   -0.141635
  51 C :   -0.138183
  52 C :   -0.144428
  53 C :   -0.146371
  54 C :   -0.109848
  55 C :   -0.110958
  56 C :   -0.108887
  57 C :   -0.126438
  58 C :   -0.074117
  59 C :   -0.087365
  60 C :   -0.125713
  61 C :   -0.110415
  62 C :   -0.101627
  63 C :   -0.101226
  64 C :   -0.056623
  65 C :   -0.056538
  66 C :   -0.104228
  67 C :   -0.100477
  68 C :   -0.228126
  69 C :   -0.227563
  70 C :   -0.206400
  71 C :   -0.204350
  72 C :   -0.180728
  73 C :   -0.186290
  74 C :   -0.103186
  75 C :   -0.108364
  76 C :   -0.097208
  77 C :   -0.097120
  78 C :   -0.079699
  79 C :   -0.083457
  80 C :   -0.064098
  81 C :   -0.067410
  82 C :   -0.053520
  83 C :   -0.053492
  84 C :   -0.334056
  85 C :   -0.331699

  Mayer bond orders larger than 0.100000
B(  0-H , 40-C ) :   0.9711 B(  1-H , 41-C ) :   0.9881 B(  2-H , 42-C ) :   0.9828
B(  3-H , 43-C ) :   0.9757 B(  4-H , 44-C ) :   0.9632 B(  5-H , 45-C ) :   0.9628
B(  6-H , 46-C ) :   0.9573 B(  7-H , 47-C ) :   0.9626 B(  8-H , 48-C ) :   0.9695
B(  9-H , 49-C ) :   0.9688 B( 10-H , 50-C ) :   0.9686 B( 11-H , 51-C ) :   0.9669
B( 12-H , 52-C ) :   0.9634 B( 13-H , 53-C ) :   0.9580 B( 14-H , 54-C ) :   0.9649
B( 15-H , 55-C ) :   0.9719 B( 16-H , 56-C ) :   0.9746 B( 17-H , 57-C ) :   0.9615
B( 18-H , 58-C ) :   0.9664 B( 19-H , 59-C ) :   0.9565 B( 20-H , 60-C ) :   0.9598
B( 21-H , 61-C ) :   0.9741 B( 22-H , 62-C ) :   0.9850 B( 23-H , 63-C ) :   0.9865
B( 24-H , 64-C ) :   1.0076 B( 25-H , 65-C ) :   0.9689 B( 26-H , 66-C ) :   0.9531
B( 27-H , 67-C ) :   0.9504 B( 28-H , 84-C ) :   0.9610 B( 29-H , 84-C ) :   0.9646
B( 30-H , 84-C ) :   0.9625 B( 31-H , 85-C ) :   0.9704 B( 32-H , 85-C ) :   0.9650
B( 33-H , 85-C ) :   0.9663 B( 34-N , 42-C ) :   1.5891 B( 34-N , 68-C ) :   1.3615
B( 35-N , 43-C ) :   1.6129 B( 35-N , 69-C ) :   1.3195 B( 36-N , 40-C ) :   1.8975
B( 36-N , 70-C ) :   1.0860 B( 37-N , 41-C ) :   1.9369 B( 37-N , 71-C ) :   1.0710
B( 38-O , 72-C ) :   1.1264 B( 38-O , 84-C ) :   0.9372 B( 39-O , 73-C ) :   0.9532
B( 39-O , 85-C ) :   0.9384 B( 40-C , 68-C ) :   0.9637 B( 41-C , 69-C ) :   0.9244
B( 42-C , 74-C ) :   1.3327 B( 43-C , 75-C ) :   1.2976 B( 44-C , 46-C ) :   1.4214
B( 44-C , 52-C ) :   1.4085 B( 45-C , 47-C ) :   1.4068 B( 45-C , 53-C ) :   1.4242
B( 46-C , 60-C ) :   1.4262 B( 47-C , 61-C ) :   1.4351 B( 48-C , 50-C ) :   1.2721
B( 48-C , 62-C ) :   1.5271 B( 49-C , 51-C ) :   1.2706 B( 49-C , 63-C ) :   1.5321
B( 50-C , 66-C ) :   1.5567 B( 51-C , 67-C ) :   1.5513 B( 52-C , 56-C ) :   1.4355
B( 53-C , 57-C ) :   1.4184 B( 54-C , 58-C ) :   1.4394 B( 54-C , 68-C ) :   1.3309
B( 55-C , 59-C ) :   1.4327 B( 55-C , 69-C ) :   1.3469 B( 56-C , 70-C ) :   1.4012
B( 57-C , 71-C ) :   1.3519 B( 58-C , 74-C ) :   1.3662 B( 59-C , 75-C ) :   1.4047
B( 60-C , 70-C ) :   1.3410 B( 61-C , 71-C ) :   1.3972 B( 62-C , 76-C ) :   1.2236
B( 63-C , 77-C ) :   1.2179 B( 64-C , 76-C ) :   1.1525 B( 64-C , 78-C ) :   1.4693
B( 65-C , 77-C ) :   1.2161 B( 65-C , 79-C ) :   1.4871 B( 66-C , 80-C ) :   1.2960
B( 66-C , 82-C ) :  -0.1013 B( 67-C , 81-C ) :   1.2864 B( 72-C , 78-C ) :   1.2604
B( 72-C , 82-C ) :   1.3462 B( 73-C , 79-C ) :   1.2245 B( 73-C , 83-C ) :   1.3943
B( 74-C , 78-C ) :   0.8608 B( 75-C , 79-C ) :   0.8573 B( 76-C , 80-C ) :   1.3116
B( 77-C , 81-C ) :   1.3049 B( 80-C , 82-C ) :   1.0315 B( 81-C , 83-C ) :   0.9912
B( 82-C , 83-C ) :   0.4567

Dispersion correction           -0.122447595
FINAL SINGLE POINT ENERGY     -2141.136374933854

DIPOLE MOMENT
-------------
                                X             Y             Z
Electronic contribution:      5.73606       2.73577      -4.95268
Nuclear contribution   :     -4.72379      -4.76516       3.13670
                        -----------------------------------------
Total Dipole Moment    :      1.01226      -2.02939      -1.81599
                        -----------------------------------------
Magnitude (a.u.)       :      2.90533
Magnitude (Debye)      :      7.38476

Rotational constants in cm-1:     0.001342     0.001139     0.000690
Rotational constants in MHz :    40.235563    34.134729    20.680109

                             ****ORCA TERMINATED NORMALLY****
TOTAL RUN TIME: 0 days 0 hours 16 minutes 58 seconds 933 msec
