                         Program Version 4.2.1 -  RELEASE  -
|  1> # closed shell KS, PBE0/def2-SVP/D4
|  2> ! DFT SP RKS PBE0 def2-TZVP D4 Grid6 NOFINALGRID SlowConv TightSCF printbasis
|  3>
|  4> %base "_fe4dd_xtb_dft_sg86_1_0"
|  5> %maxcore 4000
|  6> %scf
|  7>    MaxIter 2000
|  8> end
|  9>
| 10> %pal
| 11>    nprocs 48
| 12> end
| 13>
| 14> * xyzfile 0 1 fe4dd_xtb_dft_sg86_1_0.xyz
| 15>
| 16>
| 17>                          ****END OF INPUT****

CARTESIAN COORDINATES (ANGSTROEM)
---------------------------------
  H     14.365100   15.892500    9.792600
  H      5.688500    7.021400   15.305700
  H     12.569900   11.912800   12.976100
  H     10.469400    5.454700   13.365500
  H     11.047000   17.923900    5.598700
  H      1.427600    8.028000   11.596000
  H     12.922800   16.283600    5.556500
  H      2.138500    5.694200   11.098100
  H      9.781000   18.300100    7.709600
  H      2.929900    9.524100   12.903400
  H     17.002500   11.166000   19.859000
  H     17.092600    3.840800   14.540400
  H     16.074500    8.855600   19.798400
  H     18.073800    6.112600   14.837000
  H     16.088900   15.038100   11.553800
  H      7.664800    7.204600   17.006400
  H     10.361500   17.046600    9.750900
  H      5.115900    8.681200   13.723300
  H     16.598900   13.394700   13.371300
  H     10.154900    7.267700   17.262400
  H     16.757000   12.654900   17.893900
  H     14.632800    3.534100   14.623200
  H     14.911700    8.019100   17.790700
  H     16.627700    8.064900   15.226600
  H     13.529200   15.037000    7.614700
  H      4.310500    4.856700   11.897500
  H     15.892700   13.050100   15.638000
  H     12.381500    4.485600   14.889200
  H     15.241000   10.029800   11.976400
  H     14.932200    8.385100   12.615000
  H     13.803200    9.112900   11.422900
  H     12.365200   10.665000   16.433500
  H     12.356700    9.309000   17.593600
  H     10.810900   10.058400   17.087400
  N     13.100400   13.473600   11.727800
  N      8.558000    5.855500   14.046200
  N     12.385700   15.267100    9.993000
  N      6.076100    6.226700   13.414600
  O     13.636000    9.864300   13.305900
  O     11.641700    8.851300   15.684400
  C     13.634900   15.251200   10.301600
  C      6.401000    6.547100   14.619900
  C     13.367200   12.597300   12.687900
  C      9.878400    5.850300   14.193900
  C     11.313600   17.371500    6.502300
  C      2.391300    7.660700   11.954900
  C     12.365900   16.457600    6.480000
  C      2.791400    6.354700   11.672700
  C     10.601400   17.579600    7.684100
  C      3.230200    8.495200   12.692400
  C     16.488900   10.813900   18.962200
  C     16.434500    4.697100   14.701000
  C     15.961100    9.503600   18.926500
  C     16.989400    5.985400   14.870200
  C     15.332200   14.332000   11.900500
  C      8.321000    6.837300   16.214700
  C     10.932400   16.878000    8.838700
  C      4.450000    8.019900   13.163200
  C     15.607700   13.424500   12.913400
  C      9.701900    6.873000   16.351800
  C     16.352900   11.639900   17.872400
  C     15.071600    4.527300   14.747600
  C     15.310200    9.035400   17.806600
  C     16.181600    7.078500   15.089400
  C     12.715400   15.766200    7.636400
  C      4.016900    5.878500   12.126000
  C     15.509000   12.027700   15.584300
  C     12.808800    5.483300   15.023800
  C     14.058500   14.339700   11.336000
  C      7.778500    6.366000   15.017200
  C     12.006100   15.981100    8.826700
  C      4.845600    6.698800   12.900300
  C     14.310800   10.274700   14.421600
  C     12.541100    7.852200   15.492600
  C     14.613100   12.532100   13.337600
  C     10.516800    6.406600   15.309000
  C     15.685100   11.187500   16.705000
  C     14.212500    5.633300   14.975100
  C     14.827000   11.605400   14.457200
  C     11.980600    6.552700   15.294500
  C     15.155400    9.861000   16.666600
  C     14.772700    6.934800   15.162400
  C     14.471500    9.418300   15.492100
  C     13.907500    8.048700   15.402800
  C     14.452300    9.321000   12.284600
  C     11.816200    9.765700   16.750100

 Total Charge           Charge          ....    0
 Multiplicity           Mult            ....    1
 Number of Electrons    NEL             ....  354
 Basis Dimension        Dim             .... 1816

ORBITAL ENERGIES
----------------

  NO   OCC          E(Eh)            E(eV)
   0   2.0000     -19.238605      -523.5090
   1   2.0000     -19.233362      -523.3664
   2   2.0000     -14.386246      -391.4697
   3   2.0000     -14.381787      -391.3483
   4   2.0000     -14.381580      -391.3427
   5   2.0000     -14.377016      -391.2185
   6   2.0000     -10.298333      -280.2319
   7   2.0000     -10.298111      -280.2259
   8   2.0000     -10.276126      -279.6276
   9   2.0000     -10.272581      -279.5311
  10   2.0000     -10.270456      -279.4733
  11   2.0000     -10.270023      -279.4615
  12   2.0000     -10.267285      -279.3870
  13   2.0000     -10.266422      -279.3636
  14   2.0000     -10.262697      -279.2622
  15   2.0000     -10.260483      -279.2019
  16   2.0000     -10.258291      -279.1423
  17   2.0000     -10.257619      -279.1240
  18   2.0000     -10.257087      -279.1095
  19   2.0000     -10.255612      -279.0694
  20   2.0000     -10.255423      -279.0643
  21   2.0000     -10.255341      -279.0620
  22   2.0000     -10.253171      -279.0030
  23   2.0000     -10.252883      -278.9951
  24   2.0000     -10.251355      -278.9535
  25   2.0000     -10.250515      -278.9307
  26   2.0000     -10.250018      -278.9172
  27   2.0000     -10.249803      -278.9113
  28   2.0000     -10.248655      -278.8801
  29   2.0000     -10.248245      -278.8689
  30   2.0000     -10.248223      -278.8683
  31   2.0000     -10.246297      -278.8159
  32   2.0000     -10.243999      -278.7534
  33   2.0000     -10.243681      -278.7447
  34   2.0000     -10.242509      -278.7128
  35   2.0000     -10.241839      -278.6946
  36   2.0000     -10.241410      -278.6829
  37   2.0000     -10.240494      -278.6580
  38   2.0000     -10.237984      -278.5897
  39   2.0000     -10.236868      -278.5593
  40   2.0000     -10.234946      -278.5070
  41   2.0000     -10.234840      -278.5041
  42   2.0000     -10.226790      -278.2851
  43   2.0000     -10.226179      -278.2685
  44   2.0000     -10.224995      -278.2362
  45   2.0000     -10.223955      -278.2080
  46   2.0000     -10.223166      -278.1865
  47   2.0000     -10.222946      -278.1805
  48   2.0000     -10.222815      -278.1769
  49   2.0000     -10.222079      -278.1569
  50   2.0000     -10.220286      -278.1081
  51   2.0000     -10.219719      -278.0927
  52   2.0000      -1.103430       -30.0259
  53   2.0000      -1.098492       -29.8915
  54   2.0000      -0.985561       -26.8185
  55   2.0000      -0.981589       -26.7104
  56   2.0000      -0.952853       -25.9284
  57   2.0000      -0.948664       -25.8145
  58   2.0000      -0.924403       -25.1543
  59   2.0000      -0.911421       -24.8010
  60   2.0000      -0.875485       -23.8232
  61   2.0000      -0.871036       -23.7021
  62   2.0000      -0.869457       -23.6591
  63   2.0000      -0.865374       -23.5480
  64   2.0000      -0.852368       -23.1941
  65   2.0000      -0.833116       -22.6702
  66   2.0000      -0.825403       -22.4604
  67   2.0000      -0.813781       -22.1441
  68   2.0000      -0.808602       -22.0032
  69   2.0000      -0.797550       -21.7024
  70   2.0000      -0.782041       -21.2804
  71   2.0000      -0.779544       -21.2125
  72   2.0000      -0.770394       -20.9635
  73   2.0000      -0.767479       -20.8842
  74   2.0000      -0.765045       -20.8179
  75   2.0000      -0.760961       -20.7068
  76   2.0000      -0.751429       -20.4474
  77   2.0000      -0.742747       -20.2112
  78   2.0000      -0.726216       -19.7613
  79   2.0000      -0.711250       -19.3541
  80   2.0000      -0.698457       -19.0060
  81   2.0000      -0.691369       -18.8131
  82   2.0000      -0.667986       -18.1768
  83   2.0000      -0.663553       -18.0562
  84   2.0000      -0.655576       -17.8391
  85   2.0000      -0.644970       -17.5505
  86   2.0000      -0.639986       -17.4149
  87   2.0000      -0.635731       -17.2991
  88   2.0000      -0.633003       -17.2249
  89   2.0000      -0.626327       -17.0432
  90   2.0000      -0.622438       -16.9374
  91   2.0000      -0.618901       -16.8412
  92   2.0000      -0.614756       -16.7284
  93   2.0000      -0.602393       -16.3919
  94   2.0000      -0.587012       -15.9734
  95   2.0000      -0.583832       -15.8869
  96   2.0000      -0.558704       -15.2031
  97   2.0000      -0.555220       -15.1083
  98   2.0000      -0.553711       -15.0672
  99   2.0000      -0.549475       -14.9520
 100   2.0000      -0.548580       -14.9276
 101   2.0000      -0.540911       -14.7189
 102   2.0000      -0.539056       -14.6685
 103   2.0000      -0.536581       -14.6011
 104   2.0000      -0.522617       -14.2211
 105   2.0000      -0.515744       -14.0341
 106   2.0000      -0.503629       -13.7044
 107   2.0000      -0.500257       -13.6127
 108   2.0000      -0.495675       -13.4880
 109   2.0000      -0.494458       -13.4549
 110   2.0000      -0.489711       -13.3257
 111   2.0000      -0.484475       -13.1832
 112   2.0000      -0.481534       -13.1032
 113   2.0000      -0.479344       -13.0436
 114   2.0000      -0.475624       -12.9424
 115   2.0000      -0.474377       -12.9084
 116   2.0000      -0.471050       -12.8179
 117   2.0000      -0.469483       -12.7753
 118   2.0000      -0.467253       -12.7146
 119   2.0000      -0.466358       -12.6903
 120   2.0000      -0.464217       -12.6320
 121   2.0000      -0.453933       -12.3521
 122   2.0000      -0.453016       -12.3272
 123   2.0000      -0.449584       -12.2338
 124   2.0000      -0.447575       -12.1791
 125   2.0000      -0.444366       -12.0918
 126   2.0000      -0.444081       -12.0841
 127   2.0000      -0.440397       -11.9838
 128   2.0000      -0.438901       -11.9431
 129   2.0000      -0.433828       -11.8051
 130   2.0000      -0.432587       -11.7713
 131   2.0000      -0.430052       -11.7023
 132   2.0000      -0.427778       -11.6404
 133   2.0000      -0.423189       -11.5156
 134   2.0000      -0.421893       -11.4803
 135   2.0000      -0.418531       -11.3888
 136   2.0000      -0.417284       -11.3549
 137   2.0000      -0.413731       -11.2582
 138   2.0000      -0.403609       -10.9828
 139   2.0000      -0.396531       -10.7902
 140   2.0000      -0.393393       -10.7048
 141   2.0000      -0.384180       -10.4541
 142   2.0000      -0.382494       -10.4082
 143   2.0000      -0.381897       -10.3919
 144   2.0000      -0.377713       -10.2781
 145   2.0000      -0.372635       -10.1399
 146   2.0000      -0.370053       -10.0696
 147   2.0000      -0.368276       -10.0213
 148   2.0000      -0.366823        -9.9818
 149   2.0000      -0.366443        -9.9714
 150   2.0000      -0.364139        -9.9087
 151   2.0000      -0.356876        -9.7111
 152   2.0000      -0.354652        -9.6506
 153   2.0000      -0.351079        -9.5533
 154   2.0000      -0.344900        -9.3852
 155   2.0000      -0.341043        -9.2802
 156   2.0000      -0.338011        -9.1977
 157   2.0000      -0.322221        -8.7681
 158   2.0000      -0.310281        -8.4432
 159   2.0000      -0.307297        -8.3620
 160   2.0000      -0.304254        -8.2792
 161   2.0000      -0.301105        -8.1935
 162   2.0000      -0.297718        -8.1013
 163   2.0000      -0.297604        -8.0982
 164   2.0000      -0.294246        -8.0069
 165   2.0000      -0.288090        -7.8393
 166   2.0000      -0.276115        -7.5135
 167   2.0000      -0.267884        -7.2895
 168   2.0000      -0.267713        -7.2848
 169   2.0000      -0.264972        -7.2102
 170   2.0000      -0.262031        -7.1302
 171   2.0000      -0.255568        -6.9543
 172   2.0000      -0.244966        -6.6659
 173   2.0000      -0.240780        -6.5520
 174   2.0000      -0.233470        -6.3530
 175   2.0000      -0.228127        -6.2076
 176   2.0000      -0.224649        -6.1130
 177   0.0000      -0.080264        -2.1841
 178   0.0000      -0.074085        -2.0160
 179   0.0000      -0.055712        -1.5160
 180   0.0000      -0.048162        -1.3106
 181   0.0000      -0.031064        -0.8453

MULLIKEN ATOMIC CHARGES
-----------------------
   0 H :    0.112876
   1 H :    0.115421
   2 H :    0.152486
   3 H :    0.137427
   4 H :    0.115259
   5 H :    0.114704
   6 H :    0.116148
   7 H :    0.116230
   8 H :    0.117149
   9 H :    0.116122
  10 H :    0.120174
  11 H :    0.118122
  12 H :    0.120952
  13 H :    0.117793
  14 H :    0.124146
  15 H :    0.123497
  16 H :    0.114252
  17 H :    0.130159
  18 H :    0.141593
  19 H :    0.124308
  20 H :    0.116959
  21 H :    0.117596
  22 H :    0.142981
  23 H :    0.134063
  24 H :    0.129590
  25 H :    0.113249
  26 H :    0.128250
  27 H :    0.129672
  28 H :    0.125309
  29 H :    0.142067
  30 H :    0.144889
  31 H :    0.141471
  32 H :    0.124024
  33 H :    0.141826
  34 N :   -0.160739
  35 N :   -0.159005
  36 N :   -0.090967
  37 N :   -0.106992
  38 O :   -0.312904
  39 O :   -0.268994
  40 C :   -0.270155
  41 C :   -0.198327
  42 C :   -0.120652
  43 C :   -0.164967
  44 C :   -0.143819
  45 C :   -0.141277
  46 C :   -0.086514
  47 C :   -0.062387
  48 C :   -0.062941
  49 C :   -0.093712
  50 C :   -0.106564
  51 C :   -0.110447
  52 C :   -0.105059
  53 C :   -0.104488
  54 C :   -0.189123
  55 C :   -0.182826
  56 C :   -0.261860
  57 C :   -0.281490
  58 C :   -0.188563
  59 C :   -0.168025
  60 C :   -0.235046
  61 C :   -0.229690
  62 C :   -0.236063
  63 C :   -0.246026
  64 C :   -0.278329
  65 C :   -0.255059
  66 C :   -0.395217
  67 C :   -0.378047
  68 C :    0.357872
  69 C :    0.292328
  70 C :    0.250415
  71 C :    0.249295
  72 C :    0.371572
  73 C :    0.203352
  74 C :    0.014737
  75 C :    0.087353
  76 C :    0.182894
  77 C :    0.202136
  78 C :    0.152525
  79 C :    0.146247
  80 C :    0.105958
  81 C :   -0.016451
  82 C :   -0.041229
  83 C :    0.024327
  84 C :   -0.238309
  85 C :   -0.229511
Sum of atomic charges:   -0.0000000

LOEWDIN ATOMIC CHARGES
----------------------
   0 H :    0.134656
   1 H :    0.133836
   2 H :    0.153867
   3 H :    0.147670
   4 H :    0.145097
   5 H :    0.144843
   6 H :    0.146415
   7 H :    0.146808
   8 H :    0.147013
   9 H :    0.146401
  10 H :    0.148223
  11 H :    0.147414
  12 H :    0.149024
  13 H :    0.148102
  14 H :    0.152242
  15 H :    0.151263
  16 H :    0.151325
  17 H :    0.150707
  18 H :    0.155260
  19 H :    0.155066
  20 H :    0.151085
  21 H :    0.151382
  22 H :    0.161778
  23 H :    0.161081
  24 H :    0.150834
  25 H :    0.151058
  26 H :    0.158185
  27 H :    0.159928
  28 H :    0.112254
  29 H :    0.115753
  30 H :    0.120451
  31 H :    0.119525
  32 H :    0.116606
  33 H :    0.114274
  34 N :    0.196739
  35 N :    0.197764
  36 N :    0.199309
  37 N :    0.197557
  38 O :    0.243568
  39 O :    0.265292
  40 C :   -0.175731
  41 C :   -0.173283
  42 C :   -0.150290
  43 C :   -0.159086
  44 C :   -0.153909
  45 C :   -0.153747
  46 C :   -0.146275
  47 C :   -0.144534
  48 C :   -0.143482
  49 C :   -0.146697
  50 C :   -0.143545
  51 C :   -0.147450
  52 C :   -0.138246
  53 C :   -0.141505
  54 C :   -0.110986
  55 C :   -0.109759
  56 C :   -0.110773
  57 C :   -0.125856
  58 C :   -0.087217
  59 C :   -0.073967
  60 C :   -0.101264
  61 C :   -0.101610
  62 C :   -0.101161
  63 C :   -0.104176
  64 C :   -0.126431
  65 C :   -0.109344
  66 C :   -0.056736
  67 C :   -0.056734
  68 C :   -0.227546
  69 C :   -0.228061
  70 C :   -0.204379
  71 C :   -0.206019
  72 C :   -0.185418
  73 C :   -0.180740
  74 C :   -0.108905
  75 C :   -0.103177
  76 C :   -0.097247
  77 C :   -0.097249
  78 C :   -0.083228
  79 C :   -0.079387
  80 C :   -0.067872
  81 C :   -0.063976
  82 C :   -0.053184
  83 C :   -0.053503
  84 C :   -0.332709
  85 C :   -0.333260

  Mayer bond orders larger than 0.100000
B(  0-H , 40-C ) :   0.9892 B(  1-H , 41-C ) :   0.9722 B(  2-H , 42-C ) :   0.9753
B(  3-H , 43-C ) :   0.9824 B(  4-H , 44-C ) :   0.9628 B(  5-H , 45-C ) :   0.9631
B(  6-H , 46-C ) :   0.9581 B(  7-H , 47-C ) :   0.9632 B(  8-H , 48-C ) :   0.9625
B(  9-H , 49-C ) :   0.9574 B( 10-H , 50-C ) :   0.9687 B( 11-H , 51-C ) :   0.9693
B( 12-H , 52-C ) :   0.9668 B( 13-H , 53-C ) :   0.9685 B( 14-H , 54-C ) :   0.9720
B( 15-H , 55-C ) :   0.9647 B( 16-H , 56-C ) :   0.9743 B( 17-H , 57-C ) :   0.9604
B( 18-H , 58-C ) :   0.9565 B( 19-H , 59-C ) :   0.9665 B( 20-H , 60-C ) :   0.9864
B( 21-H , 61-C ) :   0.9851 B( 22-H , 62-C ) :   0.9506 B( 23-H , 63-C ) :   0.9534
B( 24-H , 64-C ) :   0.9618 B( 25-H , 65-C ) :   0.9750 B( 26-H , 66-C ) :   0.9708
B( 27-H , 67-C ) :   1.0044 B( 28-H , 84-C ) :   0.9664 B( 29-H , 84-C ) :   0.9647
B( 30-H , 84-C ) :   0.9706 B( 31-H , 85-C ) :   0.9643 B( 32-H , 85-C ) :   0.9607
B( 33-H , 85-C ) :   0.9623 B( 34-N , 42-C ) :   1.6127 B( 34-N , 68-C ) :   1.3202
B( 35-N , 43-C ) :   1.5902 B( 35-N , 69-C ) :   1.3598 B( 36-N , 40-C ) :   1.9384
B( 36-N , 70-C ) :   1.0695 B( 37-N , 41-C ) :   1.8993 B( 37-N , 71-C ) :   1.0837
B( 38-O , 72-C ) :   0.9498 B( 38-O , 84-C ) :   0.9368 B( 39-O , 73-C ) :   1.1243
B( 39-O , 85-C ) :   0.9377 B( 40-C , 68-C ) :   0.9224 B( 41-C , 69-C ) :   0.9631
B( 42-C , 74-C ) :   1.2966 B( 43-C , 75-C ) :   1.3319 B( 44-C , 46-C ) :   1.4246
B( 44-C , 48-C ) :   1.4068 B( 45-C , 47-C ) :   1.4085 B( 45-C , 49-C ) :   1.4220
B( 46-C , 64-C ) :   1.4169 B( 47-C , 65-C ) :   1.4353 B( 48-C , 56-C ) :   1.4347
B( 49-C , 57-C ) :   1.4236 B( 50-C , 52-C ) :   1.2708 B( 50-C , 60-C ) :   1.5323
B( 51-C , 53-C ) :   1.2721 B( 51-C , 61-C ) :   1.5276 B( 52-C , 62-C ) :   1.5499
B( 53-C , 63-C ) :   1.5549 B( 54-C , 58-C ) :   1.4325 B( 54-C , 68-C ) :   1.3473
B( 55-C , 59-C ) :   1.4388 B( 55-C , 69-C ) :   1.3313 B( 56-C , 70-C ) :   1.3969
B( 57-C , 71-C ) :   1.3426 B( 58-C , 74-C ) :   1.4070 B( 59-C , 75-C ) :   1.3666
B( 60-C , 76-C ) :   1.2182 B( 61-C , 77-C ) :   1.2229 B( 62-C , 80-C ) :   1.2858
B( 62-C , 82-C ) :  -0.1009 B( 63-C , 81-C ) :   1.2984 B( 63-C , 83-C ) :  -0.1012
B( 64-C , 70-C ) :   1.3538 B( 65-C , 71-C ) :   1.4001 B( 66-C , 76-C ) :   1.2132
B( 66-C , 78-C ) :   1.4847 B( 67-C , 77-C ) :   1.1564 B( 67-C , 79-C ) :   1.4670
B( 72-C , 78-C ) :   1.2270 B( 72-C , 82-C ) :   1.3924 B( 73-C , 79-C ) :   1.2617
B( 73-C , 83-C ) :   1.3466 B( 74-C , 78-C ) :   0.8530 B( 75-C , 79-C ) :   0.8627
B( 76-C , 80-C ) :   1.3037 B( 77-C , 81-C ) :   1.3102 B( 80-C , 82-C ) :   0.9875
B( 81-C , 83-C ) :   1.0342 B( 82-C , 83-C ) :   0.4521

Dispersion correction           -0.122456332
FINAL SINGLE POINT ENERGY     -2141.135991581695

DIPOLE MOMENT
-------------
                                X             Y             Z
Electronic contribution:      2.07324      -6.23559       4.73771
Nuclear contribution   :      0.22115       6.80346      -3.03053
                        -----------------------------------------
Total Dipole Moment    :      2.29440       0.56787       1.70717
                        -----------------------------------------
Magnitude (a.u.)       :      2.91568
Magnitude (Debye)      :      7.41106

Rotational constants in cm-1:     0.001342     0.001142     0.000692
Rotational constants in MHz :    40.228575    34.227953    20.751067

                             ****ORCA TERMINATED NORMALLY****
TOTAL RUN TIME: 0 days 0 hours 18 minutes 23 seconds 779 msec
