                         Program Version 4.2.1 -  RELEASE  -
|  1> # closed shell KS, PBE0/def2-SVP/D4
|  2> ! DFT SP RKS PBE0 def2-TZVP D4 Grid6 NOFINALGRID SlowConv TightSCF printbasis
|  3>
|  4> %base "_fe4ll_xtb_dft_sg46_2_2"
|  5> %maxcore 4000
|  6> %scf
|  7>    MaxIter 2000
|  8> end
|  9>
| 10> %pal
| 11>    nprocs 48
| 12> end
| 13>
| 14> * xyzfile 0 1 fe4ll_xtb_dft_sg46_2_2.xyz
| 15>
| 16>
| 17>                          ****END OF INPUT****

CARTESIAN COORDINATES (ANGSTROEM)
---------------------------------
  H     11.022100    4.042300    9.925900
  H      9.837000   15.021600   12.025900
  H     12.119200    9.296300    9.295700
  H      9.909700    9.761600   13.283400
  H     13.574400   -0.039300    6.968600
  H      8.155600   18.938300   15.869300
  H     14.101300    0.760100    9.268100
  H      6.739200   17.992600   14.050400
  H     12.424700    1.474600    5.364900
  H     10.130700   17.663900   16.686800
  H      9.811600    5.616600   11.567100
  H     10.625100   13.446200   10.125800
  H     11.830100    3.789800    6.030900
  H     10.658200   15.434200   15.730700
  H      9.400000    7.933300   12.355300
  H     11.057300   11.126400    9.351700
  H     13.473700    3.072200    9.951700
  H      7.265200   15.762300   13.092000
  N     11.788400    7.261200    9.379900
  N      9.776600   11.793000   12.943200
  N     12.244600    4.868700    8.458600
  N      9.272900   14.170900   13.839200
  C     11.464000    4.939200    9.475300
  C      9.693600   14.117500   12.630600
  C     11.568300    8.505400    9.800600
  C     10.039300   10.550400   12.543100
  C     13.310300    0.976900    7.269400
  C      8.384600   17.956600   15.448900
  C     13.602700    1.423300    8.557700
  C      7.592800   17.427600   14.431600
  C     12.672100    1.829400    6.367900
  C      9.486300   17.236800   15.915200
  C     10.302700    6.462700   11.084800
  C     10.470600   12.597900   10.794900
  C     12.337100    3.130400    6.733700
  C      9.779200   15.981700   15.390300
  C     10.081900    7.758900   11.522200
  C     10.718800   11.300200   10.374200
  C     13.248000    2.712500    8.944300
  C      7.886500   16.179400   13.885200
  C     11.158500    6.246800   10.006200
  C      9.991300   12.810600   12.086200
  C     12.618200    3.567000    8.029700
  C      8.971200   15.452500   14.380600
  C     10.716100    8.824700   10.868400
  C     10.501300   10.232500   11.256800

 Total Charge           Charge          ....    0
 Multiplicity           Mult            ....    1
 Number of Electrons    NEL             ....  190
 Basis Dimension        Dim             ....  976

ORBITAL ENERGIES
----------------

  NO   OCC          E(Eh)            E(eV)
   0   2.0000     -14.393458      -391.6659
   1   2.0000     -14.393392      -391.6641
   2   2.0000     -14.393270      -391.6608
   3   2.0000     -14.393087      -391.6558
   4   2.0000     -10.279485      -279.7190
   5   2.0000     -10.279141      -279.7096
   6   2.0000     -10.278224      -279.6847
   7   2.0000     -10.276816      -279.6464
   8   2.0000     -10.276452      -279.6365
   9   2.0000     -10.276109      -279.6272
  10   2.0000     -10.268015      -279.4069
  11   2.0000     -10.267641      -279.3967
  12   2.0000     -10.264346      -279.3071
  13   2.0000     -10.264101      -279.3004
  14   2.0000     -10.262495      -279.2567
  15   2.0000     -10.262168      -279.2478
  16   2.0000     -10.256853      -279.1032
  17   2.0000     -10.256524      -279.0942
  18   2.0000     -10.230763      -278.3932
  19   2.0000     -10.230465      -278.3851
  20   2.0000     -10.229707      -278.3645
  21   2.0000     -10.229507      -278.3590
  22   2.0000     -10.228825      -278.3405
  23   2.0000     -10.227481      -278.3039
  24   2.0000     -10.227282      -278.2985
  25   2.0000     -10.226100      -278.2663
  26   2.0000     -10.225921      -278.2615
  27   2.0000     -10.224320      -278.2179
  28   2.0000      -0.996490       -27.1159
  29   2.0000      -0.993702       -27.0400
  30   2.0000      -0.962322       -26.1861
  31   2.0000      -0.959885       -26.1198
  32   2.0000      -0.880752       -23.9665
  33   2.0000      -0.875411       -23.8211
  34   2.0000      -0.869260       -23.6538
  35   2.0000      -0.841315       -22.8933
  36   2.0000      -0.826326       -22.4855
  37   2.0000      -0.805144       -21.9091
  38   2.0000      -0.772636       -21.0245
  39   2.0000      -0.770803       -20.9746
  40   2.0000      -0.769685       -20.9442
  41   2.0000      -0.756746       -20.5921
  42   2.0000      -0.712743       -19.3947
  43   2.0000      -0.695724       -18.9316
  44   2.0000      -0.671518       -18.2729
  45   2.0000      -0.659629       -17.9494
  46   2.0000      -0.639449       -17.4003
  47   2.0000      -0.629628       -17.1330
  48   2.0000      -0.626545       -17.0492
  49   2.0000      -0.623009       -16.9529
  50   2.0000      -0.594709       -16.1829
  51   2.0000      -0.592629       -16.1263
  52   2.0000      -0.561183       -15.2706
  53   2.0000      -0.557443       -15.1688
  54   2.0000      -0.544164       -14.8074
  55   2.0000      -0.532517       -14.4905
  56   2.0000      -0.515196       -14.0192
  57   2.0000      -0.512178       -13.9371
  58   2.0000      -0.500179       -13.6106
  59   2.0000      -0.489393       -13.3171
  60   2.0000      -0.481251       -13.0955
  61   2.0000      -0.477178       -12.9847
  62   2.0000      -0.476965       -12.9789
  63   2.0000      -0.475519       -12.9395
  64   2.0000      -0.463945       -12.6246
  65   2.0000      -0.451955       -12.2983
  66   2.0000      -0.449879       -12.2418
  67   2.0000      -0.449103       -12.2207
  68   2.0000      -0.438152       -11.9227
  69   2.0000      -0.436925       -11.8893
  70   2.0000      -0.435436       -11.8488
  71   2.0000      -0.433932       -11.8079
  72   2.0000      -0.427028       -11.6200
  73   2.0000      -0.426156       -11.5963
  74   2.0000      -0.396417       -10.7871
  75   2.0000      -0.388985       -10.5848
  76   2.0000      -0.385184       -10.4814
  77   2.0000      -0.378812       -10.3080
  78   2.0000      -0.372886       -10.1467
  79   2.0000      -0.369973       -10.0675
  80   2.0000      -0.365459        -9.9447
  81   2.0000      -0.358112        -9.7447
  82   2.0000      -0.344682        -9.3793
  83   2.0000      -0.320905        -8.7323
  84   2.0000      -0.316599        -8.6151
  85   2.0000      -0.310224        -8.4416
  86   2.0000      -0.307678        -8.3723
  87   2.0000      -0.297806        -8.1037
  88   2.0000      -0.287481        -7.8228
  89   2.0000      -0.275832        -7.5058
  90   2.0000      -0.269119        -7.3231
  91   2.0000      -0.267967        -7.2918
  92   2.0000      -0.257109        -6.9963
  93   2.0000      -0.239038        -6.5046
  94   2.0000      -0.235513        -6.4086
  95   0.0000      -0.094105        -2.5607
  96   0.0000      -0.063144        -1.7182
  97   0.0000      -0.043938        -1.1956
  98   0.0000      -0.031885        -0.8676
  99   0.0000      -0.011264        -0.3065

MULLIKEN ATOMIC CHARGES
-----------------------
   0 H :    0.117559
   1 H :    0.109826
   2 H :    0.120824
   3 H :    0.121413
   4 H :    0.116734
   5 H :    0.115938
   6 H :    0.117580
   7 H :    0.116346
   8 H :    0.117627
   9 H :    0.117652
  10 H :    0.128455
  11 H :    0.128679
  12 H :    0.115949
  13 H :    0.115160
  14 H :    0.132138
  15 H :    0.132818
  16 H :    0.126020
  17 H :    0.120117
  18 N :   -0.161226
  19 N :   -0.159412
  20 N :   -0.090252
  21 N :   -0.083806
  22 C :   -0.260406
  23 C :   -0.246399
  24 C :   -0.136652
  25 C :   -0.136770
  26 C :   -0.144131
  27 C :   -0.143657
  28 C :   -0.079498
  29 C :   -0.078309
  30 C :   -0.067654
  31 C :   -0.073892
  32 C :   -0.204275
  33 C :   -0.204562
  34 C :   -0.259437
  35 C :   -0.249044
  36 C :   -0.163900
  37 C :   -0.161451
  38 C :   -0.273282
  39 C :   -0.257146
  40 C :    0.366702
  41 C :    0.363689
  42 C :    0.239444
  43 C :    0.212602
  44 C :    0.140890
  45 C :    0.140997
Sum of atomic charges:   -0.0000000

LOEWDIN ATOMIC CHARGES
----------------------
   0 H :    0.136275
   1 H :    0.135083
   2 H :    0.144376
   3 H :    0.144694
   4 H :    0.145561
   5 H :    0.145262
   6 H :    0.146805
   7 H :    0.146664
   8 H :    0.147318
   9 H :    0.147087
  10 H :    0.154290
  11 H :    0.154306
  12 H :    0.151262
  13 H :    0.151207
  14 H :    0.155581
  15 H :    0.155630
  16 H :    0.151222
  17 H :    0.149966
  18 N :    0.197057
  19 N :    0.197347
  20 N :    0.202641
  21 N :    0.205506
  22 C :   -0.174360
  23 C :   -0.172055
  24 C :   -0.155861
  25 C :   -0.155922
  26 C :   -0.154484
  27 C :   -0.156744
  28 C :   -0.144614
  29 C :   -0.143900
  30 C :   -0.141715
  31 C :   -0.141837
  32 C :   -0.104819
  33 C :   -0.105214
  34 C :   -0.113086
  35 C :   -0.115538
  36 C :   -0.078962
  37 C :   -0.078853
  38 C :   -0.126592
  39 C :   -0.126289
  40 C :   -0.224061
  41 C :   -0.223771
  42 C :   -0.205507
  43 C :   -0.205112
  44 C :   -0.108033
  45 C :   -0.107808

  Mayer bond orders larger than 0.100000
B(  0-H , 22-C ) :   0.9896 B(  1-H , 23-C ) :   0.9908 B(  2-H , 24-C ) :   0.9843
B(  3-H , 25-C ) :   0.9839 B(  4-H , 26-C ) :   0.9621 B(  5-H , 27-C ) :   0.9622
B(  6-H , 28-C ) :   0.9596 B(  7-H , 29-C ) :   0.9605 B(  8-H , 30-C ) :   0.9621
B(  9-H , 31-C ) :   0.9616 B( 10-H , 32-C ) :   0.9683 B( 11-H , 33-C ) :   0.9686
B( 12-H , 34-C ) :   0.9743 B( 13-H , 35-C ) :   0.9748 B( 14-H , 36-C ) :   0.9579
B( 15-H , 37-C ) :   0.9572 B( 16-H , 38-C ) :   0.9674 B( 17-H , 39-C ) :   0.9683
B( 18-N , 24-C ) :   1.6137 B( 18-N , 40-C ) :   1.3219 B( 19-N , 25-C ) :   1.6119
B( 19-N , 41-C ) :   1.3296 B( 20-N , 22-C ) :   1.9252 B( 20-N , 42-C ) :   1.0537
B( 21-N , 23-C ) :   1.9351 B( 21-N , 43-C ) :   1.0444 B( 22-C , 40-C ) :   0.9138
B( 23-C , 41-C ) :   0.9097 B( 24-C , 44-C ) :   1.3018 B( 25-C , 45-C ) :   1.3009
B( 26-C , 28-C ) :   1.4210 B( 26-C , 30-C ) :   1.4097 B( 27-C , 29-C ) :   1.4263
B( 27-C , 31-C ) :   1.4048 B( 28-C , 38-C ) :   1.4104 B( 29-C , 39-C ) :   1.4098
B( 30-C , 34-C ) :   1.4270 B( 31-C , 35-C ) :   1.4302 B( 32-C , 36-C ) :   1.4530
B( 32-C , 40-C ) :   1.3376 B( 33-C , 37-C ) :   1.4510 B( 33-C , 41-C ) :   1.3438
B( 34-C , 42-C ) :   1.4055 B( 35-C , 43-C ) :   1.4023 B( 36-C , 44-C ) :   1.3684
B( 37-C , 45-C ) :   1.3706 B( 38-C , 42-C ) :   1.3614 B( 39-C , 43-C ) :   1.3851
B( 44-C , 45-C ) :   0.9412

Dispersion correction           -0.053759223
FINAL SINGLE POINT ENERGY     -1143.459067485069

DIPOLE MOMENT
-------------
                                X             Y             Z
Electronic contribution:      0.13889       0.06609      -0.32485
Nuclear contribution   :     -0.48270      -0.10169       0.09324
                        -----------------------------------------
Total Dipole Moment    :     -0.34380      -0.03560      -0.23162
                        -----------------------------------------
Magnitude (a.u.)       :      0.41607
Magnitude (Debye)      :      1.05757

Rotational constants in cm-1:     0.041741     0.001252     0.001238
Rotational constants in MHz :  1251.357286    37.522893    37.109196

                             ****ORCA TERMINATED NORMALLY****
TOTAL RUN TIME: 0 days 0 hours 5 minutes 41 seconds 923 msec
