                         Program Version 4.2.1 -  RELEASE  -
|  1> # closed shell KS, PBE0/def2-SVP/D4
|  2> ! DFT SP RKS PBE0 def2-TZVP D4 Grid6 NOFINALGRID SlowConv TightSCF printbasis
|  3>
|  4> %base "_fe4ll_xtb_dft_sg86_1_0"
|  5> %maxcore 4000
|  6> %scf
|  7>    MaxIter 2000
|  8> end
|  9>
| 10> %pal
| 11>    nprocs 48
| 12> end
| 13>
| 14> * xyzfile 0 1 fe4ll_xtb_dft_sg86_1_0.xyz
| 15>
| 16>
| 17>                          ****END OF INPUT****

CARTESIAN COORDINATES (ANGSTROEM)
---------------------------------
  H     11.383300    8.585400    5.260400
  H      9.257900   13.642100   18.227600
  H     15.054800    8.567400    9.235600
  H     12.009100   12.079500   13.841100
  H      8.394500    3.718100    4.228400
  H      3.567300   14.131200   18.151000
  H      8.064800    4.362400    6.608600
  H      5.042500   15.991200   17.394100
  H     19.412900   15.676300    9.371000
  H     19.804000   10.099100   16.148700
  H     19.104000   15.554700   11.841000
  H     20.165100   10.194300   13.684400
  H     10.290800    4.685200    2.933800
  H      4.420900   11.793700   18.134300
  H     12.589500   10.856700    5.650700
  H     11.847500   13.675400   18.481000
  H     11.883000    6.246400    4.032400
  H      6.725600   11.313400   17.334500
  H     14.156200   12.192900    7.076900
  H     14.072600   13.301100   17.419200
  H      9.650500    5.925300    7.707000
  H      7.333400   15.508700   16.566700
  H     18.161600   14.132900    7.888500
  H     17.628700   10.804600   17.110100
  H     16.510700   12.349200    7.610100
  H     15.369700   11.637500   16.794900
  H     17.600600   13.883600   12.840500
  H     18.396900   11.025300   12.184800
  H     14.263700    8.558000   12.188700
  H     15.612200    9.554900   12.782300
  H     15.816300    8.596700   11.291600
  H     12.986100   14.445500   11.749900
  H     14.772400   14.406900   11.820400
  H     13.828100   14.832600   13.286600
  N     13.647400    8.422100    7.736800
  N     10.821800   12.608500   15.447800
  N     11.797600    7.026900    6.578800
  N      8.463800   13.099500   16.382600
  O     14.551100   10.245000   11.112300
  O     13.741000   12.825500   12.713500
  C     11.968000    8.206900    6.108500
  C      9.429100   13.288700   17.202800
  C     14.505600    9.120300    8.474400
  C     12.003500   12.413100   14.875300
  C      9.091400    4.408200    4.709000
  C      4.573100   13.919200   17.782600
  C      8.912300    4.762300    6.047700
  C      5.398400   14.959000   17.358400
  C     18.732700   14.934900    9.795200
  C     19.002400   10.455100   15.498200
  C     18.559100   14.861600   11.195900
  C     19.206400   10.511700   14.101200
  C     10.151500    4.949700    3.984300
  C      5.048700   12.607300   17.764500
  C     13.145700   10.389300    6.465700
  C     11.923300   13.298800   17.459100
  C     11.040400    5.835300    4.591700
  C      6.334800   12.331800   17.304600
  C     14.022700   11.123400    7.253400
  C     13.158600   13.084000   16.863200
  C      9.803600    5.629500    6.669200
  C      6.686900   14.695300   16.895300
  C     18.040600   14.079100    8.973400
  C     17.800100   10.850500   16.032000
  C     16.397200   12.259600    8.693900
  C     15.524900   11.748200   15.719400
  C     17.717200   13.927100   11.756300
  C     18.219400   10.977300   13.260600
  C     12.949200    9.042900    6.762800
  C     10.769400   13.047200   16.721600
  C     10.873000    6.160800    5.941600
  C      7.145400   13.377900   16.856800
  C     15.431000   11.176800   10.634700
  C     14.736500   12.337600   13.510100
  C     14.702200   10.504400    8.312600
  C     13.226700   12.610200   15.544000
  C     17.155700   13.113400    9.520400
  C     16.766900   11.340400   15.192200
  C     15.546700   11.301900    9.216100
  C     14.508700   12.245200   14.920600
  C     17.002300   13.016500   10.937800
  C     16.979500   11.420900   13.783000
  C     16.124600   12.025500   11.480200
  C     15.934700   11.934200   12.950600
  C     15.099100    9.195900   11.880000
  C     13.848900   14.199900   12.383100

 Total Charge           Charge          ....    0
 Multiplicity           Mult            ....    1
 Number of Electrons    NEL             ....  354
 Basis Dimension        Dim             .... 1816

ORBITAL ENERGIES
----------------

  NO   OCC          E(Eh)            E(eV)
   0   2.0000     -19.234739      -523.4038
   1   2.0000     -19.233574      -523.3722
   2   2.0000     -14.386628      -391.4800
   3   2.0000     -14.383367      -391.3913
   4   2.0000     -14.380514      -391.3137
   5   2.0000     -14.379519      -391.2866
   6   2.0000     -10.299417      -280.2614
   7   2.0000     -10.299160      -280.2544
   8   2.0000     -10.273605      -279.5590
   9   2.0000     -10.271768      -279.5090
  10   2.0000     -10.269899      -279.4582
  11   2.0000     -10.269132      -279.4373
  12   2.0000     -10.268865      -279.4300
  13   2.0000     -10.267313      -279.3878
  14   2.0000     -10.263540      -279.2851
  15   2.0000     -10.260013      -279.1891
  16   2.0000     -10.258220      -279.1403
  17   2.0000     -10.257327      -279.1160
  18   2.0000     -10.256761      -279.1006
  19   2.0000     -10.255478      -279.0658
  20   2.0000     -10.254925      -279.0507
  21   2.0000     -10.254737      -279.0456
  22   2.0000     -10.254298      -279.0336
  23   2.0000     -10.253951      -279.0242
  24   2.0000     -10.253841      -279.0212
  25   2.0000     -10.253411      -279.0095
  26   2.0000     -10.251742      -278.9641
  27   2.0000     -10.251566      -278.9593
  28   2.0000     -10.251436      -278.9558
  29   2.0000     -10.249423      -278.9010
  30   2.0000     -10.247960      -278.8612
  31   2.0000     -10.246812      -278.8299
  32   2.0000     -10.244731      -278.7733
  33   2.0000     -10.244388      -278.7640
  34   2.0000     -10.243047      -278.7275
  35   2.0000     -10.241446      -278.6839
  36   2.0000     -10.241203      -278.6773
  37   2.0000     -10.240388      -278.6551
  38   2.0000     -10.239854      -278.6406
  39   2.0000     -10.239315      -278.6259
  40   2.0000     -10.238268      -278.5974
  41   2.0000     -10.237835      -278.5857
  42   2.0000     -10.224771      -278.2302
  43   2.0000     -10.224665      -278.2273
  44   2.0000     -10.224367      -278.2192
  45   2.0000     -10.223694      -278.2009
  46   2.0000     -10.222142      -278.1586
  47   2.0000     -10.221506      -278.1413
  48   2.0000     -10.220852      -278.1235
  49   2.0000     -10.219648      -278.0908
  50   2.0000     -10.219449      -278.0853
  51   2.0000     -10.218709      -278.0652
  52   2.0000      -1.101616       -29.9765
  53   2.0000      -1.096939       -29.8492
  54   2.0000      -0.985369       -26.8132
  55   2.0000      -0.982674       -26.7399
  56   2.0000      -0.952736       -25.9253
  57   2.0000      -0.950810       -25.8729
  58   2.0000      -0.925064       -25.1723
  59   2.0000      -0.913070       -24.8459
  60   2.0000      -0.874351       -23.7923
  61   2.0000      -0.872710       -23.7477
  62   2.0000      -0.868096       -23.6221
  63   2.0000      -0.866937       -23.5906
  64   2.0000      -0.853187       -23.2164
  65   2.0000      -0.833483       -22.6802
  66   2.0000      -0.825440       -22.4614
  67   2.0000      -0.812900       -22.1201
  68   2.0000      -0.809862       -22.0375
  69   2.0000      -0.798372       -21.7248
  70   2.0000      -0.781923       -21.2772
  71   2.0000      -0.779410       -21.2088
  72   2.0000      -0.770472       -20.9656
  73   2.0000      -0.765010       -20.8170
  74   2.0000      -0.764899       -20.8140
  75   2.0000      -0.761112       -20.7109
  76   2.0000      -0.751354       -20.4454
  77   2.0000      -0.743912       -20.2429
  78   2.0000      -0.725178       -19.7331
  79   2.0000      -0.710454       -19.3324
  80   2.0000      -0.696927       -18.9644
  81   2.0000      -0.693936       -18.8830
  82   2.0000      -0.667259       -18.1570
  83   2.0000      -0.662458       -18.0264
  84   2.0000      -0.657597       -17.8941
  85   2.0000      -0.646990       -17.6055
  86   2.0000      -0.638730       -17.3807
  87   2.0000      -0.635223       -17.2853
  88   2.0000      -0.633788       -17.2463
  89   2.0000      -0.623488       -16.9660
  90   2.0000      -0.622259       -16.9325
  91   2.0000      -0.620038       -16.8721
  92   2.0000      -0.617169       -16.7940
  93   2.0000      -0.602542       -16.3960
  94   2.0000      -0.586087       -15.9482
  95   2.0000      -0.584007       -15.8916
  96   2.0000      -0.559738       -15.2312
  97   2.0000      -0.555542       -15.1171
  98   2.0000      -0.553446       -15.0600
  99   2.0000      -0.549839       -14.9619
 100   2.0000      -0.548741       -14.9320
 101   2.0000      -0.539275       -14.6744
 102   2.0000      -0.538613       -14.6564
 103   2.0000      -0.536207       -14.5909
 104   2.0000      -0.522551       -14.2193
 105   2.0000      -0.517199       -14.0737
 106   2.0000      -0.505155       -13.7460
 107   2.0000      -0.500364       -13.6156
 108   2.0000      -0.494481       -13.4555
 109   2.0000      -0.493252       -13.4221
 110   2.0000      -0.488534       -13.2937
 111   2.0000      -0.484975       -13.1969
 112   2.0000      -0.482414       -13.1272
 113   2.0000      -0.481709       -13.1080
 114   2.0000      -0.475862       -12.9489
 115   2.0000      -0.475386       -12.9359
 116   2.0000      -0.470864       -12.8129
 117   2.0000      -0.470535       -12.8039
 118   2.0000      -0.469226       -12.7683
 119   2.0000      -0.464829       -12.6486
 120   2.0000      -0.461097       -12.5471
 121   2.0000      -0.455544       -12.3960
 122   2.0000      -0.454025       -12.3546
 123   2.0000      -0.449345       -12.2273
 124   2.0000      -0.446367       -12.1463
 125   2.0000      -0.444534       -12.0964
 126   2.0000      -0.443948       -12.0804
 127   2.0000      -0.439957       -11.9718
 128   2.0000      -0.439250       -11.9526
 129   2.0000      -0.432591       -11.7714
 130   2.0000      -0.429980       -11.7004
 131   2.0000      -0.428950       -11.6723
 132   2.0000      -0.426392       -11.6027
 133   2.0000      -0.424530       -11.5521
 134   2.0000      -0.421157       -11.4603
 135   2.0000      -0.420779       -11.4500
 136   2.0000      -0.418178       -11.3792
 137   2.0000      -0.416329       -11.3289
 138   2.0000      -0.412887       -11.2352
 139   2.0000      -0.396112       -10.7788
 140   2.0000      -0.391272       -10.6471
 141   2.0000      -0.383596       -10.4382
 142   2.0000      -0.382217       -10.4006
 143   2.0000      -0.380687       -10.3590
 144   2.0000      -0.380386       -10.3508
 145   2.0000      -0.372676       -10.1410
 146   2.0000      -0.368806       -10.0357
 147   2.0000      -0.367604       -10.0030
 148   2.0000      -0.366095        -9.9619
 149   2.0000      -0.364399        -9.9158
 150   2.0000      -0.363899        -9.9022
 151   2.0000      -0.359060        -9.7705
 152   2.0000      -0.353843        -9.6286
 153   2.0000      -0.350570        -9.5395
 154   2.0000      -0.348602        -9.4859
 155   2.0000      -0.340713        -9.2713
 156   2.0000      -0.335512        -9.1297
 157   2.0000      -0.320469        -8.7204
 158   2.0000      -0.309812        -8.4304
 159   2.0000      -0.306622        -8.3436
 160   2.0000      -0.305281        -8.3071
 161   2.0000      -0.303859        -8.2684
 162   2.0000      -0.300145        -8.1674
 163   2.0000      -0.297575        -8.0974
 164   2.0000      -0.292319        -7.9544
 165   2.0000      -0.286505        -7.7962
 166   2.0000      -0.278693        -7.5836
 167   2.0000      -0.270996        -7.3742
 168   2.0000      -0.269130        -7.3234
 169   2.0000      -0.262499        -7.1430
 170   2.0000      -0.262426        -7.1410
 171   2.0000      -0.251285        -6.8378
 172   2.0000      -0.246560        -6.7092
 173   2.0000      -0.238515        -6.4903
 174   2.0000      -0.233941        -6.3659
 175   2.0000      -0.230143        -6.2625
 176   2.0000      -0.228886        -6.2283
 177   0.0000      -0.079289        -2.1576
 178   0.0000      -0.074486        -2.0269
 179   0.0000      -0.054565        -1.4848
 180   0.0000      -0.049389        -1.3439
 181   0.0000      -0.030692        -0.8352

MULLIKEN ATOMIC CHARGES
-----------------------
   0 H :    0.109280
   1 H :    0.100555
   2 H :    0.101041
   3 H :    0.158823
   4 H :    0.114285
   5 H :    0.113683
   6 H :    0.116590
   7 H :    0.114395
   8 H :    0.118903
   9 H :    0.120131
  10 H :    0.118976
  11 H :    0.120715
  12 H :    0.114408
  13 H :    0.115713
  14 H :    0.123604
  15 H :    0.123709
  16 H :    0.123894
  17 H :    0.114640
  18 H :    0.141872
  19 H :    0.136541
  20 H :    0.115819
  21 H :    0.114894
  22 H :    0.116518
  23 H :    0.115813
  24 H :    0.131705
  25 H :    0.121027
  26 H :    0.136569
  27 H :    0.138122
  28 H :    0.147853
  29 H :    0.144444
  30 H :    0.111880
  31 H :    0.141876
  32 H :    0.140782
  33 H :    0.124708
  34 N :   -0.169594
  35 N :   -0.154914
  36 N :   -0.088714
  37 N :   -0.078326
  38 O :   -0.278807
  39 O :   -0.329312
  40 C :   -0.242540
  41 C :   -0.237020
  42 C :   -0.102293
  43 C :   -0.132428
  44 C :   -0.140932
  45 C :   -0.143381
  46 C :   -0.071764
  47 C :   -0.079040
  48 C :   -0.106063
  49 C :   -0.104023
  50 C :   -0.107280
  51 C :   -0.111424
  52 C :   -0.085764
  53 C :   -0.079112
  54 C :   -0.192689
  55 C :   -0.193100
  56 C :   -0.263245
  57 C :   -0.242684
  58 C :   -0.209531
  59 C :   -0.174511
  60 C :   -0.248169
  61 C :   -0.248158
  62 C :   -0.234552
  63 C :   -0.232244
  64 C :   -0.370990
  65 C :   -0.390621
  66 C :   -0.225994
  67 C :   -0.206908
  68 C :    0.346601
  69 C :    0.351017
  70 C :    0.220240
  71 C :    0.195239
  72 C :    0.270413
  73 C :    0.401704
  74 C :    0.102551
  75 C :    0.018819
  76 C :    0.202598
  77 C :    0.213978
  78 C :    0.133991
  79 C :    0.148897
  80 C :   -0.058903
  81 C :   -0.003623
  82 C :    0.064686
  83 C :   -0.086968
  84 C :   -0.216579
  85 C :   -0.232303
Sum of atomic charges:   -0.0000000

LOEWDIN ATOMIC CHARGES
----------------------
   0 H :    0.133769
   1 H :    0.134165
   2 H :    0.143974
   3 H :    0.153906
   4 H :    0.144717
   5 H :    0.144405
   6 H :    0.146845
   7 H :    0.146042
   8 H :    0.147754
   9 H :    0.148322
  10 H :    0.148637
  11 H :    0.149363
  12 H :    0.145880
  13 H :    0.146321
  14 H :    0.152157
  15 H :    0.152111
  16 H :    0.149785
  17 H :    0.150663
  18 H :    0.156217
  19 H :    0.154171
  20 H :    0.151732
  21 H :    0.149407
  22 H :    0.151051
  23 H :    0.150973
  24 H :    0.158904
  25 H :    0.157485
  26 H :    0.162189
  27 H :    0.162791
  28 H :    0.120525
  29 H :    0.122227
  30 H :    0.105818
  31 H :    0.119547
  32 H :    0.117745
  33 H :    0.111113
  34 N :    0.195037
  35 N :    0.196692
  36 N :    0.203442
  37 N :    0.204467
  38 O :    0.255046
  39 O :    0.241372
  40 C :   -0.173130
  41 C :   -0.171893
  42 C :   -0.149498
  43 C :   -0.150425
  44 C :   -0.156807
  45 C :   -0.160545
  46 C :   -0.143121
  47 C :   -0.144643
  48 C :   -0.145992
  49 C :   -0.143312
  50 C :   -0.139612
  51 C :   -0.136703
  52 C :   -0.145881
  53 C :   -0.143192
  54 C :   -0.110221
  55 C :   -0.112142
  56 C :   -0.126783
  57 C :   -0.119474
  58 C :   -0.081805
  59 C :   -0.086021
  60 C :   -0.112594
  61 C :   -0.125221
  62 C :   -0.101680
  63 C :   -0.101009
  64 C :   -0.058276
  65 C :   -0.055451
  66 C :   -0.102224
  67 C :   -0.097062
  68 C :   -0.226420
  69 C :   -0.228030
  70 C :   -0.205978
  71 C :   -0.204216
  72 C :   -0.171272
  73 C :   -0.180107
  74 C :   -0.099945
  75 C :   -0.104105
  76 C :   -0.098306
  77 C :   -0.099417
  78 C :   -0.077152
  79 C :   -0.076559
  80 C :   -0.068801
  81 C :   -0.074611
  82 C :   -0.051036
  83 C :   -0.056362
  84 C :   -0.338661
  85 C :   -0.331070

  Mayer bond orders larger than 0.100000
B(  0-H , 40-C ) :   0.9870 B(  1-H , 41-C ) :   0.9925 B(  2-H , 42-C ) :   0.9900
B(  3-H , 43-C ) :   0.9675 B(  4-H , 44-C ) :   0.9629 B(  5-H , 45-C ) :   0.9630
B(  6-H , 46-C ) :   0.9626 B(  7-H , 47-C ) :   0.9617 B(  8-H , 48-C ) :   0.9689
B(  9-H , 49-C ) :   0.9685 B( 10-H , 50-C ) :   0.9677 B( 11-H , 51-C ) :   0.9667
B( 12-H , 52-C ) :   0.9600 B( 13-H , 53-C ) :   0.9621 B( 14-H , 54-C ) :   0.9684
B( 15-H , 55-C ) :   0.9709 B( 16-H , 56-C ) :   0.9644 B( 17-H , 57-C ) :   0.9745
B( 18-H , 58-C ) :   0.9563 B( 19-H , 59-C ) :   0.9505 B( 20-H , 60-C ) :   0.9730
B( 21-H , 61-C ) :   0.9704 B( 22-H , 62-C ) :   0.9857 B( 23-H , 63-C ) :   0.9859
B( 24-H , 64-C ) :   0.9840 B( 25-H , 65-C ) :   0.9568 B( 26-H , 66-C ) :   0.9509
B( 27-H , 67-C ) :   0.9461 B( 28-H , 84-C ) :   0.9704 B( 29-H , 84-C ) :   0.9576
B( 30-H , 84-C ) :   0.9607 B( 31-H , 85-C ) :   0.9701 B( 32-H , 85-C ) :   0.9657
B( 33-H , 85-C ) :   0.9677 B( 34-N , 42-C ) :   1.6129 B( 34-N , 68-C ) :   1.3340
B( 35-N , 43-C ) :   1.6089 B( 35-N , 69-C ) :   1.3311 B( 36-N , 40-C ) :   1.9304
B( 36-N , 70-C ) :   1.0571 B( 37-N , 41-C ) :   1.9422 B( 37-N , 71-C ) :   1.0437
B( 38-O , 72-C ) :   1.0661 B( 38-O , 84-C ) :   0.9323 B( 39-O , 73-C ) :   0.9119
B( 39-O , 85-C ) :   0.9396 B( 40-C , 68-C ) :   0.9230 B( 41-C , 69-C ) :   0.9132
B( 42-C , 74-C ) :   1.2725 B( 43-C , 75-C ) :   1.3030 B( 44-C , 46-C ) :   1.4026
B( 44-C , 52-C ) :   1.4268 B( 45-C , 47-C ) :   1.4221 B( 45-C , 53-C ) :   1.4089
B( 46-C , 60-C ) :   1.4357 B( 47-C , 61-C ) :   1.4133 B( 48-C , 50-C ) :   1.2678
B( 48-C , 62-C ) :   1.5338 B( 49-C , 51-C ) :   1.2674 B( 49-C , 63-C ) :   1.5339
B( 50-C , 66-C ) :   1.5593 B( 51-C , 67-C ) :   1.5558 B( 52-C , 56-C ) :   1.4114
B( 53-C , 57-C ) :   1.4233 B( 54-C , 58-C ) :   1.4301 B( 54-C , 68-C ) :   1.3535
B( 55-C , 59-C ) :   1.4395 B( 55-C , 69-C ) :   1.3504 B( 56-C , 70-C ) :   1.3780
B( 57-C , 71-C ) :   1.4030 B( 58-C , 74-C ) :   1.4255 B( 59-C , 75-C ) :   1.4122
B( 60-C , 70-C ) :   1.4002 B( 61-C , 71-C ) :   1.3966 B( 62-C , 76-C ) :   1.2139
B( 63-C , 77-C ) :   1.2136 B( 64-C , 76-C ) :   1.1929 B( 64-C , 78-C ) :   1.4481
B( 65-C , 77-C ) :   1.2427 B( 65-C , 79-C ) :   1.4526 B( 66-C , 80-C ) :   1.3081
B( 66-C , 82-C ) :  -0.1106 B( 67-C , 81-C ) :   1.3419 B( 67-C , 83-C ) :  -0.1186
B( 72-C , 78-C ) :   1.2687 B( 72-C , 82-C ) :   1.3343 B( 73-C , 79-C ) :   1.2579
B( 73-C , 83-C ) :   1.3860 B( 74-C , 78-C ) :   0.8667 B( 75-C , 79-C ) :   0.8838
B( 76-C , 80-C ) :   1.3128 B( 77-C , 81-C ) :   1.2901 B( 80-C , 82-C ) :   1.0432
B( 81-C , 83-C ) :   1.0251 B( 82-C , 83-C ) :   0.4739

Dispersion correction           -0.122097896
FINAL SINGLE POINT ENERGY     -2141.135586330898

DIPOLE MOMENT
-------------
                                X             Y             Z
Electronic contribution:      5.90759      -0.18217      -1.14679
Nuclear contribution   :     -3.87250       1.84907       1.83622
                        -----------------------------------------
Total Dipole Moment    :      2.03509       1.66691       0.68942
                        -----------------------------------------
Magnitude (a.u.)       :      2.71946
Magnitude (Debye)      :      6.91232

Rotational constants in cm-1:     0.001423     0.000992     0.000661
Rotational constants in MHz :    42.667440    29.726175    19.803743

                             ****ORCA TERMINATED NORMALLY****
TOTAL RUN TIME: 0 days 0 hours 19 minutes 39 seconds 359 msec
