                         Program Version 4.2.1 -  RELEASE  -
|  1> # closed shell KS, PBE0/def2-SVP/D4
|  2> ! DFT SP RKS PBE0 def2-TZVP D4 Grid6 NOFINALGRID SlowConv TightSCF printbasis
|  3>
|  4> %base "_fe4ll_xtb_dft_sg86_1_1"
|  5> %maxcore 4000
|  6> %scf
|  7>    MaxIter 2000
|  8> end
|  9>
| 10> %pal
| 11>    nprocs 48
| 12> end
| 13>
| 14> * xyzfile 0 1 fe4ll_xtb_dft_sg86_1_1.xyz
| 15>
| 16>
| 17>                          ****END OF INPUT****

CARTESIAN COORDINATES (ANGSTROEM)
---------------------------------
  H     16.132300    4.780000    6.858700
  H      5.630200   10.911500   14.208400
  H     13.466200    6.824500   11.095000
  H     10.704200   10.118100   15.887600
  H     14.522200    5.758300    1.475400
  H      4.089100   15.628200   11.405500
  H     14.585400    7.932100    2.686400
  H      5.989900   14.531500   10.232000
  H     18.508800    7.630600   17.515900
  H     11.581500    2.650800   19.502200
  H     16.353100    7.774000   18.759200
  H     13.728900    2.584300   18.237200
  H     14.456400    3.628800    2.765900
  H      3.631300   15.085400   13.794000
  H     17.089000    4.136200    9.163000
  H      6.081600    8.590900   15.235200
  H     14.381900    3.678400    5.246700
  H      5.091500   13.489100   15.011400
  H     16.988100    4.413500   11.649600
  H      7.793100    6.935200   16.004100
  H     14.535800    7.980100    5.164000
  H      7.452300   12.934800   11.450800
  H     18.520700    6.963900   15.128200
  H      9.932700    4.444700   19.047200
  H     17.301000    6.304500   13.116500
  H      9.266600    6.423000   17.784700
  H     14.224600    7.213600   17.652100
  H     14.250300    4.295500   16.550600
  H     11.536700    4.086400   12.705600
  H     12.260100    4.035900   14.339900
  H     13.248400    3.594500   12.909300
  H     12.874300    9.926600   13.911800
  H     13.909800    8.750100   14.759500
  H     12.814900    9.792600   15.701200
  N     14.346700    6.097300    9.370100
  N      8.799000   10.595500   15.264500
  N     14.356300    5.863300    6.780800
  N      7.222800   12.236400   14.013300
  O     12.807000    5.626600   13.100400
  O     11.869300    8.305200   14.588000
  C     15.318900    5.281400    7.398200
  C      6.684100   11.143000   14.408100
  C     14.283500    6.231600   10.690800
  C      9.700800    9.729800   15.718200
  C     14.483700    5.778600    2.566700
  C      4.737100   14.933400   11.944300
  C     14.506300    6.997600    3.246200
  C      5.809700   14.325200   11.289400
  C     17.572900    7.395600   17.004900
  C     11.791800    3.415000   18.751300
  C     16.350700    7.474900   17.708500
  C     13.008800    3.380000   18.033600
  C     14.445500    4.587700    3.289000
  C      4.480300   14.629400   13.279900
  C     16.307300    4.738400    9.629900
  C      7.122800    8.885000   15.380400
  C     14.408400    4.610500    4.681400
  C      5.294900   13.732500   13.968000
  C     16.248100    4.897000   11.008000
  C      8.074500    7.973500   15.815600
  C     14.456900    7.030200    4.637000
  C      6.639900   13.441000   11.973200
  C     17.581300    7.019400   15.683600
  C     10.877700    4.408700   18.499300
  C     16.355000    6.304900   13.664100
  C     10.205500    6.409900   17.225100
  C     15.159900    7.159900   17.092200
  C     13.301000    4.337200   17.087200
  C     15.339700    5.353800    8.839400
  C      7.532700   10.177800   15.064600
  C     14.388100    5.833700    5.357600
  C      6.388000   13.155400   13.318300
  C     13.954100    5.997000   13.743600
  C     11.696700    7.367000   15.570400
  C     15.223700    5.669200   11.571500
  C      9.412000    8.371700   15.951700
  C     16.371400    6.684100   15.023700
  C     11.144900    5.401900   17.521200
  C     15.181500    5.976000   13.010900
  C     10.455000    7.387900   16.279600
  C     15.137500    6.737500   15.740100
  C     12.381300    5.378700   16.805300
  C     13.924900    6.366000   15.074900
  C     12.640100    6.385700   15.820900
  C     12.454800    4.265700   13.280400
  C     12.922400    9.230000   14.758000

 Total Charge           Charge          ....    0
 Multiplicity           Mult            ....    1
 Number of Electrons    NEL             ....  354
 Basis Dimension        Dim             .... 1816

ORBITAL ENERGIES
----------------

  NO   OCC          E(Eh)            E(eV)
   0   2.0000     -19.234766      -523.4046
   1   2.0000     -19.232803      -523.3512
   2   2.0000     -14.386156      -391.4672
   3   2.0000     -14.383701      -391.4004
   4   2.0000     -14.381755      -391.3475
   5   2.0000     -14.380159      -391.3040
   6   2.0000     -10.299485      -280.2632
   7   2.0000     -10.298298      -280.2309
   8   2.0000     -10.272598      -279.5316
   9   2.0000     -10.270405      -279.4719
  10   2.0000     -10.270135      -279.4646
  11   2.0000     -10.269416      -279.4450
  12   2.0000     -10.268395      -279.4172
  13   2.0000     -10.266783      -279.3734
  14   2.0000     -10.263590      -279.2865
  15   2.0000     -10.262324      -279.2520
  16   2.0000     -10.257403      -279.1181
  17   2.0000     -10.256907      -279.1046
  18   2.0000     -10.256442      -279.0920
  19   2.0000     -10.255009      -279.0530
  20   2.0000     -10.254869      -279.0492
  21   2.0000     -10.254676      -279.0439
  22   2.0000     -10.254452      -279.0378
  23   2.0000     -10.254093      -279.0281
  24   2.0000     -10.253916      -279.0232
  25   2.0000     -10.253435      -279.0101
  26   2.0000     -10.251921      -278.9690
  27   2.0000     -10.251715      -278.9633
  28   2.0000     -10.251665      -278.9620
  29   2.0000     -10.249357      -278.8992
  30   2.0000     -10.247825      -278.8575
  31   2.0000     -10.246882      -278.8318
  32   2.0000     -10.244678      -278.7719
  33   2.0000     -10.244323      -278.7622
  34   2.0000     -10.242574      -278.7146
  35   2.0000     -10.241168      -278.6764
  36   2.0000     -10.240923      -278.6697
  37   2.0000     -10.239952      -278.6433
  38   2.0000     -10.239871      -278.6410
  39   2.0000     -10.238879      -278.6141
  40   2.0000     -10.238283      -278.5979
  41   2.0000     -10.237903      -278.5875
  42   2.0000     -10.226107      -278.2665
  43   2.0000     -10.225667      -278.2545
  44   2.0000     -10.223899      -278.2064
  45   2.0000     -10.223734      -278.2020
  46   2.0000     -10.223702      -278.2011
  47   2.0000     -10.221811      -278.1496
  48   2.0000     -10.221385      -278.1380
  49   2.0000     -10.221169      -278.1322
  50   2.0000     -10.219717      -278.0926
  51   2.0000     -10.218928      -278.0712
  52   2.0000      -1.100197       -29.9379
  53   2.0000      -1.096050       -29.8250
  54   2.0000      -0.985207       -26.8088
  55   2.0000      -0.983488       -26.7621
  56   2.0000      -0.953062       -25.9341
  57   2.0000      -0.951497       -25.8915
  58   2.0000      -0.924890       -25.1675
  59   2.0000      -0.912841       -24.8397
  60   2.0000      -0.874568       -23.7982
  61   2.0000      -0.872641       -23.7458
  62   2.0000      -0.868722       -23.6391
  63   2.0000      -0.866810       -23.5871
  64   2.0000      -0.853132       -23.2149
  65   2.0000      -0.833965       -22.6933
  66   2.0000      -0.825942       -22.4750
  67   2.0000      -0.813165       -22.1273
  68   2.0000      -0.809934       -22.0394
  69   2.0000      -0.798156       -21.7189
  70   2.0000      -0.781431       -21.2638
  71   2.0000      -0.779220       -21.2037
  72   2.0000      -0.770071       -20.9547
  73   2.0000      -0.766548       -20.8588
  74   2.0000      -0.764434       -20.8013
  75   2.0000      -0.760927       -20.7059
  76   2.0000      -0.751413       -20.4470
  77   2.0000      -0.743842       -20.2410
  78   2.0000      -0.724464       -19.7137
  79   2.0000      -0.710173       -19.3248
  80   2.0000      -0.697134       -18.9700
  81   2.0000      -0.694294       -18.8927
  82   2.0000      -0.666785       -18.1441
  83   2.0000      -0.662979       -18.0406
  84   2.0000      -0.657906       -17.9025
  85   2.0000      -0.646867       -17.6022
  86   2.0000      -0.638675       -17.3792
  87   2.0000      -0.635172       -17.2839
  88   2.0000      -0.633638       -17.2422
  89   2.0000      -0.625205       -17.0127
  90   2.0000      -0.622794       -16.9471
  91   2.0000      -0.618458       -16.8291
  92   2.0000      -0.617223       -16.7955
  93   2.0000      -0.602683       -16.3998
  94   2.0000      -0.586536       -15.9605
  95   2.0000      -0.584291       -15.8994
  96   2.0000      -0.559137       -15.2149
  97   2.0000      -0.554645       -15.0927
  98   2.0000      -0.553416       -15.0592
  99   2.0000      -0.549358       -14.9488
 100   2.0000      -0.548538       -14.9265
 101   2.0000      -0.539690       -14.6857
 102   2.0000      -0.538855       -14.6630
 103   2.0000      -0.536748       -14.6056
 104   2.0000      -0.522438       -14.2163
 105   2.0000      -0.517121       -14.0716
 106   2.0000      -0.505119       -13.7450
 107   2.0000      -0.500696       -13.6246
 108   2.0000      -0.494294       -13.4504
 109   2.0000      -0.493486       -13.4284
 110   2.0000      -0.487328       -13.2609
 111   2.0000      -0.484156       -13.1746
 112   2.0000      -0.482621       -13.1328
 113   2.0000      -0.481912       -13.1135
 114   2.0000      -0.475644       -12.9429
 115   2.0000      -0.475110       -12.9284
 116   2.0000      -0.470764       -12.8101
 117   2.0000      -0.470369       -12.7994
 118   2.0000      -0.469221       -12.7682
 119   2.0000      -0.465784       -12.6746
 120   2.0000      -0.460805       -12.5391
 121   2.0000      -0.455077       -12.3833
 122   2.0000      -0.453197       -12.3321
 123   2.0000      -0.449744       -12.2382
 124   2.0000      -0.446649       -12.1539
 125   2.0000      -0.444689       -12.1006
 126   2.0000      -0.443890       -12.0788
 127   2.0000      -0.439750       -11.9662
 128   2.0000      -0.438610       -11.9352
 129   2.0000      -0.432715       -11.7748
 130   2.0000      -0.429850       -11.6968
 131   2.0000      -0.429237       -11.6801
 132   2.0000      -0.427165       -11.6238
 133   2.0000      -0.423828       -11.5329
 134   2.0000      -0.422266       -11.4904
 135   2.0000      -0.420591       -11.4449
 136   2.0000      -0.418314       -11.3829
 137   2.0000      -0.415743       -11.3129
 138   2.0000      -0.412592       -11.2272
 139   2.0000      -0.397742       -10.8231
 140   2.0000      -0.391309       -10.6481
 141   2.0000      -0.382753       -10.4153
 142   2.0000      -0.382238       -10.4012
 143   2.0000      -0.381233       -10.3739
 144   2.0000      -0.380108       -10.3433
 145   2.0000      -0.372114       -10.1257
 146   2.0000      -0.368348       -10.0232
 147   2.0000      -0.367607       -10.0031
 148   2.0000      -0.366537        -9.9740
 149   2.0000      -0.364323        -9.9137
 150   2.0000      -0.363239        -9.8842
 151   2.0000      -0.359008        -9.7691
 152   2.0000      -0.353417        -9.6170
 153   2.0000      -0.350688        -9.5427
 154   2.0000      -0.348717        -9.4891
 155   2.0000      -0.340904        -9.2765
 156   2.0000      -0.337898        -9.1947
 157   2.0000      -0.320444        -8.7197
 158   2.0000      -0.310240        -8.4421
 159   2.0000      -0.307863        -8.3774
 160   2.0000      -0.305622        -8.3164
 161   2.0000      -0.301433        -8.2024
 162   2.0000      -0.299798        -8.1579
 163   2.0000      -0.297031        -8.0826
 164   2.0000      -0.291748        -7.9389
 165   2.0000      -0.285167        -7.7598
 166   2.0000      -0.278969        -7.5911
 167   2.0000      -0.272137        -7.4052
 168   2.0000      -0.267479        -7.2785
 169   2.0000      -0.263923        -7.1817
 170   2.0000      -0.261916        -7.1271
 171   2.0000      -0.253607        -6.9010
 172   2.0000      -0.245832        -6.6894
 173   2.0000      -0.240441        -6.5427
 174   2.0000      -0.234982        -6.3942
 175   2.0000      -0.231176        -6.2906
 176   2.0000      -0.230219        -6.2646
 177   0.0000      -0.077457        -2.1077
 178   0.0000      -0.074591        -2.0297
 179   0.0000      -0.055225        -1.5028
 180   0.0000      -0.049622        -1.3503
 181   0.0000      -0.029997        -0.8163

MULLIKEN ATOMIC CHARGES
-----------------------
   0 H :    0.113080
   1 H :    0.109170
   2 H :    0.146911
   3 H :    0.097644
   4 H :    0.114991
   5 H :    0.114234
   6 H :    0.116948
   7 H :    0.116971
   8 H :    0.119976
   9 H :    0.118826
  10 H :    0.120516
  11 H :    0.118794
  12 H :    0.114820
  13 H :    0.114347
  14 H :    0.123816
  15 H :    0.124126
  16 H :    0.120525
  17 H :    0.120245
  18 H :    0.142765
  19 H :    0.139771
  20 H :    0.116110
  21 H :    0.116334
  22 H :    0.116867
  23 H :    0.116184
  24 H :    0.128875
  25 H :    0.130547
  26 H :    0.138943
  27 H :    0.137158
  28 H :    0.142115
  29 H :    0.138131
  30 H :    0.121437
  31 H :    0.150963
  32 H :    0.147404
  33 H :    0.114188
  34 N :   -0.155510
  35 N :   -0.170286
  36 N :   -0.095867
  37 N :   -0.093108
  38 O :   -0.312444
  39 O :   -0.280256
  40 C :   -0.245415
  41 C :   -0.228910
  42 C :   -0.129265
  43 C :   -0.096017
  44 C :   -0.140100
  45 C :   -0.142199
  46 C :   -0.073984
  47 C :   -0.074710
  48 C :   -0.106685
  49 C :   -0.111354
  50 C :   -0.109467
  51 C :   -0.101184
  52 C :   -0.085922
  53 C :   -0.080757
  54 C :   -0.192779
  55 C :   -0.194842
  56 C :   -0.256814
  57 C :   -0.259272
  58 C :   -0.192997
  59 C :   -0.200803
  60 C :   -0.249085
  61 C :   -0.249676
  62 C :   -0.227377
  63 C :   -0.230057
  64 C :   -0.396160
  65 C :   -0.368118
  66 C :   -0.212812
  67 C :   -0.238153
  68 C :    0.343128
  69 C :    0.333850
  70 C :    0.224485
  71 C :    0.218770
  72 C :    0.416967
  73 C :    0.246686
  74 C :    0.046738
  75 C :    0.090843
  76 C :    0.207750
  77 C :    0.196695
  78 C :    0.138441
  79 C :    0.150347
  80 C :    0.016285
  81 C :   -0.033565
  82 C :   -0.142261
  83 C :    0.077834
  84 C :   -0.231595
  85 C :   -0.222741
Sum of atomic charges:   -0.0000000

LOEWDIN ATOMIC CHARGES
----------------------
   0 H :    0.134492
   1 H :    0.134780
   2 H :    0.152612
   3 H :    0.144269
   4 H :    0.144876
   5 H :    0.144629
   6 H :    0.146887
   7 H :    0.146752
   8 H :    0.148291
   9 H :    0.147727
  10 H :    0.149330
  11 H :    0.148537
  12 H :    0.146060
  13 H :    0.145908
  14 H :    0.152114
  15 H :    0.152386
  16 H :    0.149522
  17 H :    0.149853
  18 H :    0.155189
  19 H :    0.155918
  20 H :    0.151600
  21 H :    0.151658
  22 H :    0.151148
  23 H :    0.150991
  24 H :    0.158601
  25 H :    0.158446
  26 H :    0.162839
  27 H :    0.162020
  28 H :    0.118933
  29 H :    0.116683
  30 H :    0.110574
  31 H :    0.121134
  32 H :    0.121633
  33 H :    0.106288
  34 N :    0.196527
  35 N :    0.195739
  36 N :    0.201340
  37 N :    0.201952
  38 O :    0.242703
  39 O :    0.253263
  40 C :   -0.174803
  41 C :   -0.173373
  42 C :   -0.148149
  43 C :   -0.148139
  44 C :   -0.156456
  45 C :   -0.157763
  46 C :   -0.142747
  47 C :   -0.142778
  48 C :   -0.143196
  49 C :   -0.145890
  50 C :   -0.136959
  51 C :   -0.139498
  52 C :   -0.146067
  53 C :   -0.145818
  54 C :   -0.111671
  55 C :   -0.110066
  56 C :   -0.128297
  57 C :   -0.127638
  58 C :   -0.087297
  59 C :   -0.081747
  60 C :   -0.112318
  61 C :   -0.113833
  62 C :   -0.101348
  63 C :   -0.101606
  64 C :   -0.055718
  65 C :   -0.058048
  66 C :   -0.096039
  67 C :   -0.102184
  68 C :   -0.227889
  69 C :   -0.227804
  70 C :   -0.203693
  71 C :   -0.205314
  72 C :   -0.184069
  73 C :   -0.169954
  74 C :   -0.106076
  75 C :   -0.099898
  76 C :   -0.098692
  77 C :   -0.098125
  78 C :   -0.079701
  79 C :   -0.076814
  80 C :   -0.072635
  81 C :   -0.067109
  82 C :   -0.056518
  83 C :   -0.049711
  84 C :   -0.331047
  85 C :   -0.339710

  Mayer bond orders larger than 0.100000
B(  0-H , 40-C ) :   0.9801 B(  1-H , 41-C ) :   0.9852 B(  2-H , 42-C ) :   0.9770
B(  3-H , 43-C ) :   0.9887 B(  4-H , 44-C ) :   0.9626 B(  5-H , 45-C ) :   0.9629
B(  6-H , 46-C ) :   0.9623 B(  7-H , 47-C ) :   0.9622 B(  8-H , 48-C ) :   0.9686
B(  9-H , 49-C ) :   0.9690 B( 10-H , 50-C ) :   0.9672 B( 11-H , 51-C ) :   0.9680
B( 12-H , 52-C ) :   0.9602 B( 13-H , 53-C ) :   0.9608 B( 14-H , 54-C ) :   0.9703
B( 15-H , 55-C ) :   0.9673 B( 16-H , 56-C ) :   0.9697 B( 17-H , 57-C ) :   0.9692
B( 18-H , 58-C ) :   0.9574 B( 19-H , 59-C ) :   0.9547 B( 20-H , 60-C ) :   0.9728
B( 21-H , 61-C ) :   0.9736 B( 22-H , 62-C ) :   0.9858 B( 23-H , 63-C ) :   0.9856
B( 24-H , 64-C ) :   0.9693 B( 25-H , 65-C ) :   0.9771 B( 26-H , 66-C ) :   0.9472
B( 27-H , 67-C ) :   0.9515 B( 28-H , 84-C ) :   0.9701 B( 29-H , 84-C ) :   0.9658
B( 30-H , 84-C ) :   0.9669 B( 31-H , 85-C ) :   0.9695 B( 32-H , 85-C ) :   0.9562
B( 33-H , 85-C ) :   0.9594 B( 34-N , 42-C ) :   1.6044 B( 34-N , 68-C ) :   1.3420
B( 35-N , 43-C ) :   1.6089 B( 35-N , 69-C ) :   1.3419 B( 36-N , 40-C ) :   1.9210
B( 36-N , 70-C ) :   1.0532 B( 37-N , 41-C ) :   1.9201 B( 37-N , 71-C ) :   1.0506
B( 38-O , 72-C ) :   0.9513 B( 38-O , 84-C ) :   0.9459 B( 39-O , 73-C ) :   1.0638
B( 39-O , 85-C ) :   0.9304 B( 40-C , 68-C ) :   0.9274 B( 41-C , 69-C ) :   0.9302
B( 42-C , 74-C ) :   1.3075 B( 43-C , 75-C ) :   1.2729 B( 44-C , 46-C ) :   1.4057
B( 44-C , 52-C ) :   1.4244 B( 45-C , 47-C ) :   1.4049 B( 45-C , 53-C ) :   1.4250
B( 46-C , 60-C ) :   1.4293 B( 47-C , 61-C ) :   1.4287 B( 48-C , 50-C ) :   1.2693
B( 48-C , 62-C ) :   1.5318 B( 49-C , 51-C ) :   1.2684 B( 49-C , 63-C ) :   1.5339
B( 50-C , 66-C ) :   1.5552 B( 51-C , 67-C ) :   1.5575 B( 52-C , 56-C ) :   1.4074
B( 53-C , 57-C ) :   1.4059 B( 54-C , 58-C ) :   1.4313 B( 54-C , 68-C ) :   1.3483
B( 55-C , 59-C ) :   1.4357 B( 55-C , 69-C ) :   1.3527 B( 56-C , 70-C ) :   1.3689
B( 57-C , 71-C ) :   1.3823 B( 58-C , 74-C ) :   1.3964 B( 59-C , 75-C ) :   1.4245
B( 60-C , 70-C ) :   1.4106 B( 61-C , 71-C ) :   1.4029 B( 62-C , 76-C ) :   1.2187
B( 63-C , 77-C ) :   1.2101 B( 64-C , 76-C ) :   1.2129 B( 64-C , 78-C ) :   1.4786
B( 65-C , 77-C ) :   1.2020 B( 65-C , 79-C ) :   1.4538 B( 66-C , 80-C ) :   1.3320
B( 66-C , 82-C ) :  -0.1087 B( 67-C , 81-C ) :   1.3019 B( 67-C , 83-C ) :  -0.1097
B( 72-C , 78-C ) :   1.2342 B( 72-C , 82-C ) :   1.3510 B( 73-C , 79-C ) :   1.2625
B( 73-C , 83-C ) :   1.3611 B( 74-C , 78-C ) :   0.8615 B( 75-C , 79-C ) :   0.8699
B( 76-C , 80-C ) :   1.2866 B( 77-C , 81-C ) :   1.3103 B( 80-C , 82-C ) :   1.0378
B( 81-C , 83-C ) :   1.0272 B( 82-C , 83-C ) :   0.4835

Dispersion correction           -0.122140131
FINAL SINGLE POINT ENERGY     -2141.137231650931

DIPOLE MOMENT
-------------
                                X             Y             Z
Electronic contribution:      0.63465      -0.39356       6.55557
Nuclear contribution   :      0.49615      -1.69102      -5.06778
                        -----------------------------------------
Total Dipole Moment    :      1.13080      -2.08458       1.48780
                        -----------------------------------------
Magnitude (a.u.)       :      2.79959
Magnitude (Debye)      :      7.11599

Rotational constants in cm-1:     0.001423     0.001005     0.000658
Rotational constants in MHz :    42.648482    30.141023    19.735247

                             ****ORCA TERMINATED NORMALLY****
TOTAL RUN TIME: 0 days 0 hours 51 minutes 0 seconds 749 msec
