                         Program Version 4.2.1 -  RELEASE  -
|  1> # closed shell KS, PBE0/def2-SVP/D4
|  2> ! DFT SP RKS PBE0 def2-TZVP D4 Grid6 NOFINALGRID SlowConv TightSCF printbasis
|  3>
|  4> %base "_fe6dd_xtb_dft_sg80_1_1"
|  5> %maxcore 4000
|  6> %scf
|  7>    MaxIter 2000
|  8> end
|  9>
| 10> %pal
| 11>    nprocs 48
| 12> end
| 13>
| 14> * xyzfile 0 1 fe6dd_xtb_dft_sg80_1_1.xyz
| 15>
| 16>
| 17>                          ****END OF INPUT****

CARTESIAN COORDINATES (ANGSTROEM)
---------------------------------
  H     10.720500    8.337300    7.617300
  H     11.829400    6.897900   10.430800
  H     10.010800   15.604300    7.692100
  H      8.973800    0.684700   13.191000
  H     13.081800   12.245800   10.588200
  H      8.696400    5.274700   10.385400
  H      7.221500   19.805300   10.435700
  H      7.115900    0.726100   18.613600
  H      9.635800   20.239200   10.865100
  H      5.111800    1.119200   17.189300
  H     17.794000    7.190600   10.400700
  H     12.233300    5.078300    2.956700
  H     16.521400    5.191200    9.632000
  H     13.476500    7.098500    3.714200
  H      6.492400   17.561000    9.636000
  H      9.393700    1.093800   17.672800
  H     10.755000   13.467200    6.432300
  H     10.177500    0.610000   10.873600
  H      8.169000   15.769600    9.264400
  H      9.658700    1.849700   15.321800
  H     11.715500   11.166900    6.642400
  H     11.095000    1.981100    8.981000
  H     11.303700   18.457700   10.512700
  H      5.369500    1.884300   14.858900
  H     16.731000    9.428100   10.366200
  H     10.926600    3.741700    4.584500
  H     14.837200   10.856300    9.731900
  H     10.212800    3.336300    6.906100
  H     14.200000    5.413500    8.820900
  H     13.408200    7.807300    6.079900
  N     12.051800   13.703100    9.539100
  N      8.565000    3.518300   11.464600
  N     10.784300   15.964100    9.597200
  N      7.725300    2.309000   13.588400
  O     11.054400    9.197800    7.918100
  O     11.205800    6.169000   10.282800
  C     10.676400   15.290200    8.505500
  C      8.553800    1.643600   12.863100
  C     12.580600   12.487400    9.648000
  C      9.054700    4.247700   10.470100
  C      7.957700   19.015500   10.271500
  C      7.235600    1.059300   17.580700
  C      9.309800   19.256900   10.516300
  C      6.112500    1.284100   16.784000
  C     16.762700    7.304600   10.061100
  C     12.187100    5.379200    4.005300
  C     16.039700    6.171600    9.625400
  C     12.888500    6.527600    4.436300
  C      7.550500   17.761200    9.819000
  C      8.510000    1.260300   17.053000
  C     11.276500   13.156400    7.339400
  C      9.871600    1.647800   10.728600
  C      8.490100   16.759400    9.598000
  C      8.661800    1.671700   15.732300
  C     11.810300   11.882500    7.458900
  C     10.372900    2.408800    9.680300
  C     10.253200   18.254600   10.314300
  C      6.255200    1.712400   15.468100
  C     16.174400    8.545800   10.040100
  C     11.460700    4.638900    4.907500
  C     14.254100    9.981800    9.432500
  C     10.707300    4.255400    7.231600
  C     14.745300    6.290700    9.174300
  C     12.849200    6.927900    5.753600
  C     11.384200   14.035000    8.416800
  C      8.995400    2.249100   11.628000
  C      9.851800   17.003500    9.832400
  C      7.533800    1.891100   14.929200
  C     12.274500    9.008400    8.449400
  C     11.283800    5.826600    8.974700
  C     12.458700   11.511200    8.648000
  C     10.004100    3.754500    9.563300
  C     14.848900    8.707000    9.560600
  C     11.403700    5.022400    6.271800
  C     13.007500   10.162700    8.861900
  C     10.630200    4.629400    8.558800
  C     14.120300    7.560300    9.117900
  C     12.099400    6.193400    6.703600
  C     12.807300    7.736600    8.586000
  C     12.027600    6.576900    8.078900

 Total Charge           Charge          ....    0
 Multiplicity           Mult            ....    1
 Number of Electrons    NEL             ....  338
 Basis Dimension        Dim             .... 1730

ORBITAL ENERGIES
----------------

  NO   OCC          E(Eh)            E(eV)
   0   2.0000     -19.256654      -524.0002
   1   2.0000     -19.254345      -523.9374
   2   2.0000     -14.386784      -391.4843
   3   2.0000     -14.385444      -391.4478
   4   2.0000     -14.383208      -391.3870
   5   2.0000     -14.382515      -391.3681
   6   2.0000     -10.313278      -280.6386
   7   2.0000     -10.312240      -280.6103
   8   2.0000     -10.271906      -279.5128
   9   2.0000     -10.271479      -279.5012
  10   2.0000     -10.270365      -279.4708
  11   2.0000     -10.269935      -279.4591
  12   2.0000     -10.266615      -279.3688
  13   2.0000     -10.266066      -279.3539
  14   2.0000     -10.260699      -279.2078
  15   2.0000     -10.260639      -279.2062
  16   2.0000     -10.259872      -279.1853
  17   2.0000     -10.258991      -279.1613
  18   2.0000     -10.258689      -279.1531
  19   2.0000     -10.258083      -279.1366
  20   2.0000     -10.257761      -279.1279
  21   2.0000     -10.256995      -279.1070
  22   2.0000     -10.256823      -279.1024
  23   2.0000     -10.255065      -279.0545
  24   2.0000     -10.253989      -279.0252
  25   2.0000     -10.253617      -279.0151
  26   2.0000     -10.252988      -278.9980
  27   2.0000     -10.252378      -278.9814
  28   2.0000     -10.252347      -278.9805
  29   2.0000     -10.251745      -278.9642
  30   2.0000     -10.249357      -278.8992
  31   2.0000     -10.246539      -278.8225
  32   2.0000     -10.245583      -278.7965
  33   2.0000     -10.244184      -278.7584
  34   2.0000     -10.243387      -278.7367
  35   2.0000     -10.242127      -278.7024
  36   2.0000     -10.241839      -278.6946
  37   2.0000     -10.241261      -278.6789
  38   2.0000     -10.239727      -278.6371
  39   2.0000     -10.238959      -278.6162
  40   2.0000     -10.226797      -278.2853
  41   2.0000     -10.226340      -278.2729
  42   2.0000     -10.226313      -278.2721
  43   2.0000     -10.225829      -278.2589
  44   2.0000     -10.224847      -278.2322
  45   2.0000     -10.224478      -278.2222
  46   2.0000     -10.223035      -278.1829
  47   2.0000     -10.222637      -278.1721
  48   2.0000     -10.222544      -278.1696
  49   2.0000     -10.222469      -278.1675
  50   2.0000      -1.120644       -30.4943
  51   2.0000      -1.113682       -30.3048
  52   2.0000      -0.987091       -26.8601
  53   2.0000      -0.985736       -26.8232
  54   2.0000      -0.953933       -25.9578
  55   2.0000      -0.952696       -25.9242
  56   2.0000      -0.928067       -25.2540
  57   2.0000      -0.917084       -24.9551
  58   2.0000      -0.877178       -23.8692
  59   2.0000      -0.875421       -23.8214
  60   2.0000      -0.870128       -23.6774
  61   2.0000      -0.869026       -23.6474
  62   2.0000      -0.856194       -23.2982
  63   2.0000      -0.836095       -22.7513
  64   2.0000      -0.829232       -22.5645
  65   2.0000      -0.816004       -22.2046
  66   2.0000      -0.812243       -22.1023
  67   2.0000      -0.801353       -21.8059
  68   2.0000      -0.780869       -21.2485
  69   2.0000      -0.779308       -21.2060
  70   2.0000      -0.768157       -20.9026
  71   2.0000      -0.767644       -20.8887
  72   2.0000      -0.767185       -20.8762
  73   2.0000      -0.758526       -20.6405
  74   2.0000      -0.753181       -20.4951
  75   2.0000      -0.743576       -20.2337
  76   2.0000      -0.700985       -19.0748
  77   2.0000      -0.696123       -18.9425
  78   2.0000      -0.691325       -18.8119
  79   2.0000      -0.669772       -18.2254
  80   2.0000      -0.663818       -18.0634
  81   2.0000      -0.655410       -17.8346
  82   2.0000      -0.647179       -17.6106
  83   2.0000      -0.646310       -17.5870
  84   2.0000      -0.642187       -17.4748
  85   2.0000      -0.627066       -17.0633
  86   2.0000      -0.625956       -17.0331
  87   2.0000      -0.620123       -16.8744
  88   2.0000      -0.618567       -16.8321
  89   2.0000      -0.613544       -16.6954
  90   2.0000      -0.588450       -16.0125
  91   2.0000      -0.587970       -15.9995
  92   2.0000      -0.584633       -15.9087
  93   2.0000      -0.584240       -15.8980
  94   2.0000      -0.559649       -15.2288
  95   2.0000      -0.555666       -15.1204
  96   2.0000      -0.553195       -15.0532
  97   2.0000      -0.544796       -14.8247
  98   2.0000      -0.544002       -14.8030
  99   2.0000      -0.539615       -14.6837
 100   2.0000      -0.525411       -14.2972
 101   2.0000      -0.518684       -14.1141
 102   2.0000      -0.505358       -13.7515
 103   2.0000      -0.503869       -13.7110
 104   2.0000      -0.495506       -13.4834
 105   2.0000      -0.493243       -13.4218
 106   2.0000      -0.489714       -13.3258
 107   2.0000      -0.487642       -13.2694
 108   2.0000      -0.481523       -13.1029
 109   2.0000      -0.477940       -13.0054
 110   2.0000      -0.476150       -12.9567
 111   2.0000      -0.471354       -12.8262
 112   2.0000      -0.470777       -12.8105
 113   2.0000      -0.470081       -12.7915
 114   2.0000      -0.466768       -12.7014
 115   2.0000      -0.461562       -12.5597
 116   2.0000      -0.457400       -12.4465
 117   2.0000      -0.452693       -12.3184
 118   2.0000      -0.452130       -12.3031
 119   2.0000      -0.446565       -12.1516
 120   2.0000      -0.446016       -12.1367
 121   2.0000      -0.442339       -12.0367
 122   2.0000      -0.441430       -12.0119
 123   2.0000      -0.435577       -11.8527
 124   2.0000      -0.433870       -11.8062
 125   2.0000      -0.431188       -11.7332
 126   2.0000      -0.429954       -11.6996
 127   2.0000      -0.427772       -11.6403
 128   2.0000      -0.424761       -11.5583
 129   2.0000      -0.421910       -11.4808
 130   2.0000      -0.419425       -11.4131
 131   2.0000      -0.415362       -11.3026
 132   2.0000      -0.412401       -11.2220
 133   2.0000      -0.406080       -11.0500
 134   2.0000      -0.401185       -10.9168
 135   2.0000      -0.398735       -10.8501
 136   2.0000      -0.394754       -10.7418
 137   2.0000      -0.383640       -10.4394
 138   2.0000      -0.383298       -10.4301
 139   2.0000      -0.372981       -10.1493
 140   2.0000      -0.371210       -10.1011
 141   2.0000      -0.370380       -10.0785
 142   2.0000      -0.369617       -10.0578
 143   2.0000      -0.367720       -10.0062
 144   2.0000      -0.361646        -9.8409
 145   2.0000      -0.361073        -9.8253
 146   2.0000      -0.352589        -9.5944
 147   2.0000      -0.350797        -9.5457
 148   2.0000      -0.348849        -9.4927
 149   2.0000      -0.338959        -9.2235
 150   2.0000      -0.337226        -9.1764
 151   2.0000      -0.319149        -8.6845
 152   2.0000      -0.311641        -8.4802
 153   2.0000      -0.308385        -8.3916
 154   2.0000      -0.304979        -8.2989
 155   2.0000      -0.302523        -8.2321
 156   2.0000      -0.301649        -8.2083
 157   2.0000      -0.285257        -7.7622
 158   2.0000      -0.283480        -7.7139
 159   2.0000      -0.272529        -7.4159
 160   2.0000      -0.270239        -7.3536
 161   2.0000      -0.265151        -7.2151
 162   2.0000      -0.264613        -7.2005
 163   2.0000      -0.254276        -6.9192
 164   2.0000      -0.248585        -6.7643
 165   2.0000      -0.242584        -6.6010
 166   2.0000      -0.238339        -6.4855
 167   2.0000      -0.228519        -6.2183
 168   2.0000      -0.227897        -6.2014
 169   0.0000      -0.080432        -2.1887
 170   0.0000      -0.078337        -2.1317
 171   0.0000      -0.057120        -1.5543
 172   0.0000      -0.054320        -1.4781
 173   0.0000      -0.030202        -0.8219

MULLIKEN ATOMIC CHARGES
-----------------------
   0 H :    0.340853
   1 H :    0.339747
   2 H :    0.116978
   3 H :    0.114587
   4 H :    0.135935
   5 H :    0.129292
   6 H :    0.115289
   7 H :    0.115114
   8 H :    0.116830
   9 H :    0.117011
  10 H :    0.120930
  11 H :    0.120960
  12 H :    0.119211
  13 H :    0.120605
  14 H :    0.116466
  15 H :    0.116124
  16 H :    0.125140
  17 H :    0.126170
  18 H :    0.130631
  19 H :    0.129956
  20 H :    0.131829
  21 H :    0.141068
  22 H :    0.113426
  23 H :    0.113941
  24 H :    0.119950
  25 H :    0.118459
  26 H :    0.140999
  27 H :    0.129985
  28 H :    0.133635
  29 H :    0.136503
  30 N :   -0.162976
  31 N :   -0.163194
  32 N :   -0.100590
  33 N :   -0.093834
  34 O :   -0.372806
  35 O :   -0.359300
  36 C :   -0.221761
  37 C :   -0.238637
  38 C :   -0.156979
  39 C :   -0.114088
  40 C :   -0.141907
  41 C :   -0.144005
  42 C :   -0.062923
  43 C :   -0.063309
  44 C :   -0.106172
  45 C :   -0.103003
  46 C :   -0.103168
  47 C :   -0.109007
  48 C :   -0.090865
  49 C :   -0.085062
  50 C :   -0.185507
  51 C :   -0.184558
  52 C :   -0.280926
  53 C :   -0.278328
  54 C :   -0.162310
  55 C :   -0.226431
  56 C :   -0.259659
  57 C :   -0.262599
  58 C :   -0.230275
  59 C :   -0.232163
  60 C :   -0.297243
  61 C :   -0.311493
  62 C :   -0.226074
  63 C :   -0.226884
  64 C :    0.317795
  65 C :    0.331199
  66 C :    0.250370
  67 C :    0.248111
  68 C :    0.297521
  69 C :    0.248257
  70 C :    0.080541
  71 C :    0.112590
  72 C :    0.126481
  73 C :    0.155906
  74 C :    0.065376
  75 C :    0.090200
  76 C :    0.155571
  77 C :    0.127838
  78 C :   -0.208060
  79 C :   -0.189288
Sum of atomic charges:   -0.0000000

LOEWDIN ATOMIC CHARGES
----------------------
   0 H :    0.200712
   1 H :    0.200669
   2 H :    0.134951
   3 H :    0.134874
   4 H :    0.146863
   5 H :    0.149008
   6 H :    0.145075
   7 H :    0.145014
   8 H :    0.146984
   9 H :    0.147023
  10 H :    0.148370
  11 H :    0.148243
  12 H :    0.149186
  13 H :    0.149293
  14 H :    0.146539
  15 H :    0.146424
  16 H :    0.152630
  17 H :    0.152553
  18 H :    0.150938
  19 H :    0.151056
  20 H :    0.157213
  21 H :    0.156089
  22 H :    0.151010
  23 H :    0.151015
  24 H :    0.152149
  25 H :    0.151568
  26 H :    0.161406
  27 H :    0.160508
  28 H :    0.160288
  29 H :    0.160620
  30 N :    0.195742
  31 N :    0.199322
  32 N :    0.198857
  33 N :    0.200951
  34 O :    0.135220
  35 O :    0.128047
  36 C :   -0.174113
  37 C :   -0.173743
  38 C :   -0.160819
  39 C :   -0.151013
  40 C :   -0.153822
  41 C :   -0.154645
  42 C :   -0.143770
  43 C :   -0.143442
  44 C :   -0.146073
  45 C :   -0.146422
  46 C :   -0.135135
  47 C :   -0.135836
  48 C :   -0.146361
  49 C :   -0.146147
  50 C :   -0.107845
  51 C :   -0.109392
  52 C :   -0.126367
  53 C :   -0.126410
  54 C :   -0.073158
  55 C :   -0.081700
  56 C :   -0.110363
  57 C :   -0.111442
  58 C :   -0.099517
  59 C :   -0.100855
  60 C :   -0.048748
  61 C :   -0.052189
  62 C :   -0.100060
  63 C :   -0.101508
  64 C :   -0.227711
  65 C :   -0.225328
  66 C :   -0.205756
  67 C :   -0.205269
  68 C :   -0.212805
  69 C :   -0.204020
  70 C :   -0.105837
  71 C :   -0.107147
  72 C :   -0.099505
  73 C :   -0.100251
  74 C :   -0.083672
  75 C :   -0.085953
  76 C :   -0.069910
  77 C :   -0.070563
  78 C :   -0.101266
  79 C :   -0.100519

  Mayer bond orders larger than 0.100000
B(  0-H , 34-O ) :   0.8438 B(  1-H , 35-O ) :   0.8443 B(  2-H , 36-C ) :   0.9786
B(  3-H , 37-C ) :   0.9844 B(  4-H , 38-C ) :   0.9823 B(  5-H , 39-C ) :   0.9835
B(  6-H , 40-C ) :   0.9630 B(  7-H , 41-C ) :   0.9630 B(  8-H , 42-C ) :   0.9631
B(  9-H , 43-C ) :   0.9626 B( 10-H , 44-C ) :   0.9665 B( 11-H , 45-C ) :   0.9670
B( 12-H , 46-C ) :   0.9675 B( 13-H , 47-C ) :   0.9677 B( 14-H , 48-C ) :   0.9578
B( 15-H , 49-C ) :   0.9585 B( 16-H , 50-C ) :   0.9673 B( 17-H , 51-C ) :   0.9679
B( 18-H , 52-C ) :   0.9610 B( 19-H , 53-C ) :   0.9613 B( 20-H , 54-C ) :   0.9637
B( 21-H , 55-C ) :   0.9610 B( 22-H , 56-C ) :   0.9751 B( 23-H , 57-C ) :   0.9751
B( 24-H , 58-C ) :   0.9806 B( 25-H , 59-C ) :   0.9832 B( 26-H , 60-C ) :   0.9727
B( 27-H , 61-C ) :   0.9995 B( 28-H , 62-C ) :   0.9551 B( 29-H , 63-C ) :   0.9545
B( 30-N , 38-C ) :   1.6035 B( 30-N , 64-C ) :   1.3386 B( 31-N , 39-C ) :   1.6042
B( 31-N , 65-C ) :   1.3271 B( 32-N , 36-C ) :   1.9152 B( 32-N , 66-C ) :   1.0755
B( 33-N , 37-C ) :   1.9318 B( 33-N , 67-C ) :   1.0659 B( 34-O , 68-C ) :   1.2310
B( 35-O , 69-C ) :   1.2740 B( 36-C , 64-C ) :   0.9495 B( 37-C , 65-C ) :   0.9367
B( 38-C , 70-C ) :   1.3166 B( 39-C , 71-C ) :   1.2790 B( 40-C , 42-C ) :   1.4072
B( 40-C , 48-C ) :   1.4229 B( 41-C , 43-C ) :   1.4066 B( 41-C , 49-C ) :   1.4241
B( 42-C , 56-C ) :   1.4349 B( 43-C , 57-C ) :   1.4346 B( 44-C , 46-C ) :   1.2702
B( 44-C , 58-C ) :   1.5346 B( 45-C , 47-C ) :   1.2724 B( 45-C , 59-C ) :   1.5313
B( 46-C , 62-C ) :   1.5463 B( 47-C , 63-C ) :   1.5448 B( 48-C , 52-C ) :   1.4208
B( 49-C , 53-C ) :   1.4148 B( 50-C , 54-C ) :   1.4427 B( 50-C , 64-C ) :   1.3359
B( 51-C , 55-C ) :   1.4242 B( 51-C , 65-C ) :   1.3546 B( 52-C , 66-C ) :   1.3483
B( 53-C , 67-C ) :   1.3574 B( 54-C , 70-C ) :   1.3671 B( 55-C , 71-C ) :   1.4277
B( 56-C , 66-C ) :   1.3984 B( 57-C , 67-C ) :   1.3972 B( 58-C , 72-C ) :   1.2322
B( 59-C , 73-C ) :   1.2309 B( 60-C , 72-C ) :   1.2101 B( 60-C , 74-C ) :   1.4835
B( 61-C , 73-C ) :   1.1715 B( 61-C , 75-C ) :   1.4832 B( 62-C , 76-C ) :   1.3184
B( 63-C , 77-C ) :   1.3141 B( 68-C , 74-C ) :   1.2610 B( 68-C , 78-C ) :   1.3547
B( 69-C , 75-C ) :   1.2709 B( 69-C , 79-C ) :   1.3684 B( 70-C , 74-C ) :   0.8840
B( 71-C , 75-C ) :   0.8507 B( 72-C , 76-C ) :   1.2752 B( 73-C , 77-C ) :   1.2871
B( 76-C , 78-C ) :   1.0961 B( 77-C , 79-C ) :   1.0944 B( 78-C , 79-C ) :   0.6661

Dispersion correction           -0.111576213
FINAL SINGLE POINT ENERGY     -2062.621972926791

DIPOLE MOMENT
-------------
                                X             Y             Z
Electronic contribution:      3.01005      -1.54057      -5.86025
Nuclear contribution   :     -1.77395      -0.02358       3.92893
                        -----------------------------------------
Total Dipole Moment    :      1.23610      -1.56415      -1.93133
                        -----------------------------------------
Magnitude (a.u.)       :      2.77570
Magnitude (Debye)      :      7.05527

Rotational constants in cm-1:     0.001925     0.000772     0.000630
Rotational constants in MHz :    57.716100    23.136257    18.878950

                             ****ORCA TERMINATED NORMALLY****
TOTAL RUN TIME: 0 days 0 hours 15 minutes 51 seconds 753 msec
