                         Program Version 4.2.1 -  RELEASE  -
|  1> # closed shell KS, PBE0/def2-SVP/D4
|  2> ! DFT SP RKS PBE0 def2-TZVP D4 Grid6 NOFINALGRID SlowConv TightSCF printbasis
|  3>
|  4> %base "_fe6dd_xtb_dft_sg56_2_2"
|  5> %maxcore 4000
|  6> %scf
|  7>    MaxIter 2000
|  8> end
|  9>
| 10> %pal
| 11>    nprocs 48
| 12> end
| 13>
| 14> * xyzfile 0 1 fe6dd_xtb_dft_sg56_2_2.xyz
| 15>
| 16>
| 17>                          ****END OF INPUT****

CARTESIAN COORDINATES (ANGSTROEM)
---------------------------------
  H     10.801900   17.258000   13.697200
  H      4.546800    3.605300    9.947200
  H     10.273200   12.702600   10.863900
  H      7.771600    6.952600   12.680000
  H     15.963600   19.813100   13.711900
  H      6.054200   -1.943000    9.677000
  H     14.873600   18.275700   15.342600
  H      5.645100   -1.468300   12.086500
  H     15.205800   19.837900   11.340300
  H      6.411600   -0.057200    8.087900
  H      8.507600   16.018800   14.023700
  H      3.939400    6.143600    9.717800
  H     13.409400   18.323600   10.589700
  H      6.371200    2.284400    8.910400
  H      7.220300   13.905000   13.661300
  H      4.691600    8.499700   10.086100
  H      6.000300   12.509900   12.053500
  H      5.002800   10.294700   11.696300
  H     13.049700   16.766600   14.598600
  H      5.629000    0.855000   12.914400
  H      9.941400   10.743300   11.977200
  H      8.949300    8.543600   11.548200
  N     10.554100   14.521000   11.796300
  N      6.541700    5.556700   11.787800
  N     12.048600   16.588800   12.160700
  N      5.956800    3.074400   11.393400
  C     10.991500   16.535100   12.894500
  C      5.257900    3.920700   10.720300
  C      9.868000   13.403900   11.594200
  C      6.935800    6.807000   11.994100
  C     15.158000   19.150600   13.387600
  C      6.033500   -0.911600   10.035800
  C     14.545800   18.293100   14.301000
  C      5.810900   -0.645800   11.387400
  C     14.737900   19.159900   12.057200
  C      6.229600    0.143700    9.145900
  C      8.870400   15.252600   13.336100
  C      4.791700    6.365700   10.362500
  C     13.719800   18.311700   11.633300
  C      6.191500    1.457300    9.601600
  C      8.155300   14.080400   13.124800
  C      5.208800    7.672800   10.577300
  C      6.653700   11.639400   11.960800
  C      6.090200   10.388500   11.740600
  C     13.512600   17.457500   13.890000
  C      5.792900    0.664400   11.854800
  C      8.855200   10.655700   11.895800
  C      8.293100    9.407300   11.680700
  C     10.084200   15.431900   12.672500
  C      5.498100    5.324800   10.964800
  C     13.087500   17.467400   12.553600
  C      5.965000    1.726200   10.959100
  C      8.671900   13.106000   12.260000
  C      6.328300    7.913800   11.385300
  C      8.044600   11.792300   12.039100
  C      6.900600    9.253000   11.602700

 Total Charge           Charge          ....    0
 Multiplicity           Mult            ....    1
 Number of Electrons    NEL             ....  230
 Basis Dimension        Dim             .... 1186

ORBITAL ENERGIES
----------------

  NO   OCC          E(Eh)            E(eV)
   0   2.0000     -14.389153      -391.5488
   1   2.0000     -14.389152      -391.5487
   2   2.0000     -14.387335      -391.4993
   3   2.0000     -14.386969      -391.4893
   4   2.0000     -10.274737      -279.5898
   5   2.0000     -10.274725      -279.5895
   6   2.0000     -10.273924      -279.5677
   7   2.0000     -10.273868      -279.5662
   8   2.0000     -10.269190      -279.4389
   9   2.0000     -10.268791      -279.4280
  10   2.0000     -10.260784      -279.2101
  11   2.0000     -10.260776      -279.2099
  12   2.0000     -10.260141      -279.1926
  13   2.0000     -10.260063      -279.1905
  14   2.0000     -10.259494      -279.1750
  15   2.0000     -10.259465      -279.1742
  16   2.0000     -10.258822      -279.1567
  17   2.0000     -10.258769      -279.1553
  18   2.0000     -10.253045      -278.9995
  19   2.0000     -10.252946      -278.9968
  20   2.0000     -10.248897      -278.8867
  21   2.0000     -10.248272      -278.8697
  22   2.0000     -10.247037      -278.8360
  23   2.0000     -10.246396      -278.8186
  24   2.0000     -10.228876      -278.3419
  25   2.0000     -10.228810      -278.3401
  26   2.0000     -10.228370      -278.3281
  27   2.0000     -10.228360      -278.3278
  28   2.0000     -10.227167      -278.2954
  29   2.0000     -10.227087      -278.2932
  30   2.0000     -10.225265      -278.2436
  31   2.0000     -10.225264      -278.2436
  32   2.0000     -10.225028      -278.2372
  33   2.0000     -10.224936      -278.2347
  34   2.0000      -0.990709       -26.9586
  35   2.0000      -0.990547       -26.9542
  36   2.0000      -0.956668       -26.0323
  37   2.0000      -0.956409       -26.0252
  38   2.0000      -0.912044       -24.8180
  39   2.0000      -0.875184       -23.8150
  40   2.0000      -0.873537       -23.7701
  41   2.0000      -0.861948       -23.4548
  42   2.0000      -0.840241       -22.8641
  43   2.0000      -0.826067       -22.4784
  44   2.0000      -0.815367       -22.1873
  45   2.0000      -0.790402       -21.5079
  46   2.0000      -0.784137       -21.3374
  47   2.0000      -0.770260       -20.9599
  48   2.0000      -0.769837       -20.9483
  49   2.0000      -0.763421       -20.7738
  50   2.0000      -0.749757       -20.4019
  51   2.0000      -0.707335       -19.2476
  52   2.0000      -0.687583       -18.7101
  53   2.0000      -0.673556       -18.3284
  54   2.0000      -0.668344       -18.1866
  55   2.0000      -0.645494       -17.5648
  56   2.0000      -0.637096       -17.3363
  57   2.0000      -0.630853       -17.1664
  58   2.0000      -0.625094       -17.0097
  59   2.0000      -0.622545       -16.9403
  60   2.0000      -0.613141       -16.6844
  61   2.0000      -0.590586       -16.0707
  62   2.0000      -0.589606       -16.0440
  63   2.0000      -0.565228       -15.3806
  64   2.0000      -0.550157       -14.9705
  65   2.0000      -0.547623       -14.9016
  66   2.0000      -0.540020       -14.6947
  67   2.0000      -0.526298       -14.3213
  68   2.0000      -0.514375       -13.9968
  69   2.0000      -0.509055       -13.8521
  70   2.0000      -0.502399       -13.6710
  71   2.0000      -0.490416       -13.3449
  72   2.0000      -0.483380       -13.1534
  73   2.0000      -0.475334       -12.9345
  74   2.0000      -0.474660       -12.9162
  75   2.0000      -0.473855       -12.8942
  76   2.0000      -0.470403       -12.8003
  77   2.0000      -0.469786       -12.7835
  78   2.0000      -0.457875       -12.4594
  79   2.0000      -0.453685       -12.3454
  80   2.0000      -0.450551       -12.2601
  81   2.0000      -0.449107       -12.2208
  82   2.0000      -0.439804       -11.9677
  83   2.0000      -0.439603       -11.9622
  84   2.0000      -0.433713       -11.8019
  85   2.0000      -0.433375       -11.7927
  86   2.0000      -0.428141       -11.6503
  87   2.0000      -0.427678       -11.6377
  88   2.0000      -0.416291       -11.3279
  89   2.0000      -0.409080       -11.1316
  90   2.0000      -0.400883       -10.9086
  91   2.0000      -0.388429       -10.5697
  92   2.0000      -0.386381       -10.5140
  93   2.0000      -0.377298       -10.2668
  94   2.0000      -0.372905       -10.1473
  95   2.0000      -0.372605       -10.1391
  96   2.0000      -0.371056       -10.0969
  97   2.0000      -0.364959        -9.9311
  98   2.0000      -0.362691        -9.8693
  99   2.0000      -0.351853        -9.5744
 100   2.0000      -0.345752        -9.4084
 101   2.0000      -0.319744        -8.7007
 102   2.0000      -0.312050        -8.4913
 103   2.0000      -0.306622        -8.3436
 104   2.0000      -0.304841        -8.2951
 105   2.0000      -0.300865        -8.1870
 106   2.0000      -0.287398        -7.8205
 107   2.0000      -0.281423        -7.6579
 108   2.0000      -0.273795        -7.4503
 109   2.0000      -0.272442        -7.4135
 110   2.0000      -0.267324        -7.2743
 111   2.0000      -0.267288        -7.2733
 112   2.0000      -0.251987        -6.8569
 113   2.0000      -0.233313        -6.3488
 114   2.0000      -0.228102        -6.2070
 115   0.0000      -0.087497        -2.3809
 116   0.0000      -0.071984        -1.9588
 117   0.0000      -0.036571        -0.9952
 118   0.0000      -0.036277        -0.9871
 119   0.0000      -0.026721        -0.7271

MULLIKEN ATOMIC CHARGES
-----------------------
   0 H :    0.115660
   1 H :    0.115743
   2 H :    0.140740
   3 H :    0.140156
   4 H :    0.115928
   5 H :    0.115898
   6 H :    0.116693
   7 H :    0.117601
   8 H :    0.117620
   9 H :    0.116669
  10 H :    0.127075
  11 H :    0.127105
  12 H :    0.114485
  13 H :    0.130390
  14 H :    0.136410
  15 H :    0.136323
  16 H :    0.128388
  17 H :    0.128103
  18 H :    0.130275
  19 H :    0.114462
  20 H :    0.146641
  21 H :    0.146196
  22 N :   -0.160107
  23 N :   -0.160639
  24 N :   -0.094349
  25 N :   -0.093747
  26 C :   -0.243715
  27 C :   -0.245267
  28 C :   -0.159247
  29 C :   -0.157757
  30 C :   -0.141861
  31 C :   -0.142013
  32 C :   -0.090533
  33 C :   -0.063435
  34 C :   -0.063587
  35 C :   -0.090220
  36 C :   -0.189006
  37 C :   -0.189855
  38 C :   -0.260526
  39 C :   -0.276218
  40 C :   -0.185986
  41 C :   -0.184507
  42 C :   -0.210385
  43 C :   -0.209355
  44 C :   -0.276796
  45 C :   -0.261875
  46 C :   -0.221554
  47 C :   -0.221153
  48 C :    0.340453
  49 C :    0.341380
  50 C :    0.247077
  51 C :    0.247353
  52 C :    0.129779
  53 C :    0.129038
  54 C :    0.189973
  55 C :    0.190080
Sum of atomic charges:   -0.0000000

LOEWDIN ATOMIC CHARGES
----------------------
   0 H :    0.134724
   1 H :    0.134877
   2 H :    0.148371
   3 H :    0.148275
   4 H :    0.145348
   5 H :    0.145316
   6 H :    0.146624
   7 H :    0.147202
   8 H :    0.147197
   9 H :    0.146647
  10 H :    0.152853
  11 H :    0.152927
  12 H :    0.151216
  13 H :    0.150919
  14 H :    0.155060
  15 H :    0.155085
  16 H :    0.153327
  17 H :    0.153288
  18 H :    0.150797
  19 H :    0.151220
  20 H :    0.157743
  21 H :    0.157604
  22 N :    0.198770
  23 N :    0.198228
  24 N :    0.199805
  25 N :    0.199894
  26 C :   -0.173932
  27 C :   -0.174229
  28 C :   -0.162120
  29 C :   -0.161574
  30 C :   -0.153236
  31 C :   -0.153351
  32 C :   -0.145921
  33 C :   -0.143163
  34 C :   -0.143185
  35 C :   -0.145954
  36 C :   -0.107221
  37 C :   -0.107320
  38 C :   -0.110231
  39 C :   -0.126551
  40 C :   -0.081546
  41 C :   -0.081667
  42 C :   -0.097790
  43 C :   -0.097655
  44 C :   -0.126496
  45 C :   -0.110517
  46 C :   -0.095835
  47 C :   -0.095917
  48 C :   -0.226174
  49 C :   -0.225865
  50 C :   -0.206051
  51 C :   -0.205927
  52 C :   -0.107673
  53 C :   -0.107469
  54 C :   -0.104390
  55 C :   -0.104359

  Mayer bond orders larger than 0.100000
B(  0-H , 26-C ) :   0.9848 B(  1-H , 27-C ) :   0.9854 B(  2-H , 28-C ) :   0.9783
B(  3-H , 29-C ) :   0.9784 B(  4-H , 30-C ) :   0.9628 B(  5-H , 31-C ) :   0.9628
B(  6-H , 32-C ) :   0.9579 B(  7-H , 33-C ) :   0.9627 B(  8-H , 34-C ) :   0.9627
B(  9-H , 35-C ) :   0.9580 B( 10-H , 36-C ) :   0.9681 B( 11-H , 37-C ) :   0.9680
B( 12-H , 38-C ) :   0.9745 B( 13-H , 39-C ) :   0.9597 B( 14-H , 40-C ) :   0.9590
B( 15-H , 41-C ) :   0.9586 B( 16-H , 42-C ) :   0.9559 B( 17-H , 43-C ) :   0.9553
B( 18-H , 44-C ) :   0.9597 B( 19-H , 45-C ) :   0.9746 B( 20-H , 46-C ) :   0.9464
B( 21-H , 47-C ) :   0.9463 B( 22-N , 28-C ) :   1.6090 B( 22-N , 48-C ) :   1.3234
B( 23-N , 29-C ) :   1.6084 B( 23-N , 49-C ) :   1.3238 B( 24-N , 26-C ) :   1.9293
B( 24-N , 50-C ) :   1.0719 B( 25-N , 27-C ) :   1.9309 B( 25-N , 51-C ) :   1.0710
B( 26-C , 48-C ) :   0.9342 B( 27-C , 49-C ) :   0.9334 B( 28-C , 52-C ) :   1.3041
B( 29-C , 53-C ) :   1.3038 B( 30-C , 32-C ) :   1.4240 B( 30-C , 34-C ) :   1.4069
B( 31-C , 33-C ) :   1.4067 B( 31-C , 35-C ) :   1.4244 B( 32-C , 44-C ) :   1.4226
B( 33-C , 45-C ) :   1.4361 B( 34-C , 38-C ) :   1.4360 B( 35-C , 39-C ) :   1.4215
B( 36-C , 40-C ) :   1.4347 B( 36-C , 48-C ) :   1.3466 B( 37-C , 41-C ) :   1.4354
B( 37-C , 49-C ) :   1.3465 B( 38-C , 50-C ) :   1.3967 B( 39-C , 51-C ) :   1.3532
B( 40-C , 52-C ) :   1.3951 B( 41-C , 53-C ) :   1.3947 B( 42-C , 43-C ) :   1.4629
B( 42-C , 54-C ) :   1.3686 B( 43-C , 55-C ) :   1.3691 B( 44-C , 50-C ) :   1.3526
B( 45-C , 51-C ) :   1.3963 B( 46-C , 47-C ) :   1.4601 B( 46-C , 54-C ) :   1.3600
B( 47-C , 55-C ) :   1.3595 B( 52-C , 54-C ) :   0.8991 B( 53-C , 55-C ) :   0.8998

Dispersion correction           -0.067969378
FINAL SINGLE POINT ENERGY     -1374.331229542272

DIPOLE MOMENT
-------------
                                X             Y             Z
Electronic contribution:     -2.96537       1.33007       0.13392
Nuclear contribution   :      1.45562      -0.64417      -0.08663
                        -----------------------------------------
Total Dipole Moment    :     -1.50975       0.68590       0.04729
                        -----------------------------------------
Magnitude (a.u.)       :      1.65893
Magnitude (Debye)      :      4.21666

Rotational constants in cm-1:     0.014183     0.000785     0.000760
Rotational constants in MHz :   425.207788    23.523704    22.797654

                             ****ORCA TERMINATED NORMALLY****
TOTAL RUN TIME: 0 days 0 hours 4 minutes 53 seconds 285 msec
