                         Program Version 4.2.1 -  RELEASE  -
|  1> # closed shell KS, PBE0/def2-SVP/D4
|  2> ! DFT SP RKS PBE0 def2-TZVP D4 Grid6 NOFINALGRID SlowConv TightSCF printbasis
|  3>
|  4> %base "_fe6dd_xtb_dft_sg80_1_0"
|  5> %maxcore 4000
|  6> %scf
|  7>    MaxIter 2000
|  8> end
|  9>
| 10> %pal
| 11>    nprocs 48
| 12> end
| 13>
| 14> * xyzfile 0 1 fe6dd_xtb_dft_sg80_1_0.xyz
| 15>
| 16>
| 17>                          ****END OF INPUT****

CARTESIAN COORDINATES (ANGSTROEM)
---------------------------------
  H     13.166800    9.647800   12.889000
  H     11.468600    9.454000   15.771200
  H     15.730300   15.952100   10.137700
  H      5.589300    5.148500   15.935200
  H     12.267100   13.065400   13.082800
  H      9.984600    5.130700   12.805600
  H     14.188200   17.464200    4.833400
  H      0.453100    4.527500   13.455000
  H     15.482900   15.501500    5.655200
  H      1.705300    6.539400   14.226800
  H     12.625200   18.646400    6.370200
  H      1.689600    2.433700   12.921200
  H     15.115000   10.363500   20.307400
  H     16.898000    4.991900   12.653600
  H     14.389100    8.113100   19.523300
  H     17.580200    7.255300   13.440700
  H     16.704800   15.070600   12.395400
  H      7.734800    6.001800   17.090400
  H     12.344000   17.874900    8.696900
  H      4.143700    2.344400   13.140300
  H     16.390900   13.440000   14.278600
  H     10.076900    6.822000   16.771500
  H     15.175400   12.269500   18.725600
  H     14.524300    4.293700   12.788100
  H     13.708700    7.756800   17.175000
  H     15.910000    8.824000   14.359200
  H     15.214700   14.730400    8.001400
  H      4.174100    6.451200   14.460100
  H     14.889400   13.137600   16.436000
  H     12.232000    4.742100   13.540000
  N     13.434100   14.347900   11.961000
  N      8.265400    4.914900   13.939200
  N     13.668000   15.814500    9.847000
  N      5.728000    4.363400   14.006200
  O     13.298800   10.594500   13.057100
  O     11.035200    8.637500   15.474500
  C     14.752800   15.623600   10.511900
  C      6.220300    4.872700   15.081400
  C     13.267400   13.480800   12.951500
  C      9.517900    5.331100   13.772800
  C     14.070600   17.122500    5.863900
  C      1.539600    4.491200   13.559900
  C     14.799200   16.027400    6.325200
  C      2.239800    5.615100   13.996200
  C     13.191100   17.781700    6.723400
  C      2.233200    3.319300   13.257100
  C     14.810700   10.225700   19.267800
  C     16.143500    5.678400   13.042900
  C     14.395400    8.950600   18.822000
  C     16.528900    6.962600   13.488600
  C     15.735600   14.604300   12.582500
  C      8.268300    5.830600   16.153500
  C     13.033100   17.350900    8.036800
  C      3.617500    3.265200   13.384100
  C     15.555800   13.705900   13.626600
  C      9.565900    6.283700   15.973600
  C     14.842600   11.283700   18.390700
  C     14.827800    5.290500   13.117800
  C     14.011400    8.749400   17.514700
  C     15.601100    7.840300   14.000600
  C     14.660100   15.601000    7.642600
  C      3.622400    5.563600   14.141300
  C     14.519600   12.164800   16.101200
  C     12.509600    5.754600   13.843600
  C     14.658700   14.871500   11.741500
  C      7.631300    5.177300   15.099100
  C     13.782300   16.267800    8.509200
  C      4.320800    4.382400   13.848400
  C     13.657000   10.732100   14.356000
  C     11.964500    7.862200   14.889300
  C     14.313700   13.082300   13.796500
  C     10.214200    6.060600   14.748200
  C     14.455300   11.108700   17.037400
  C     13.849400    6.162800   13.660300
  C     14.129200   12.007500   14.785800
  C     11.572700    6.553500   14.473000
  C     14.022800    9.822100   16.590900
  C     14.241200    7.461000   14.111400
  C     13.629700    9.655400   15.226600
  C     13.261200    8.313500   14.703900

 Total Charge           Charge          ....    0
 Multiplicity           Mult            ....    1
 Number of Electrons    NEL             ....  338
 Basis Dimension        Dim             .... 1730

ORBITAL ENERGIES
----------------

  NO   OCC          E(Eh)            E(eV)
   0   2.0000     -19.256580      -523.9982
   1   2.0000     -19.254377      -523.9382
   2   2.0000     -14.386772      -391.4840
   3   2.0000     -14.385456      -391.4481
   4   2.0000     -14.383245      -391.3880
   5   2.0000     -14.382662      -391.3721
   6   2.0000     -10.313316      -280.6396
   7   2.0000     -10.312103      -280.6066
   8   2.0000     -10.271822      -279.5105
   9   2.0000     -10.271387      -279.4987
  10   2.0000     -10.270325      -279.4697
  11   2.0000     -10.269903      -279.4583
  12   2.0000     -10.266686      -279.3707
  13   2.0000     -10.266129      -279.3556
  14   2.0000     -10.260795      -279.2104
  15   2.0000     -10.260675      -279.2072
  16   2.0000     -10.259797      -279.1833
  17   2.0000     -10.259052      -279.1630
  18   2.0000     -10.258694      -279.1532
  19   2.0000     -10.258046      -279.1356
  20   2.0000     -10.257822      -279.1295
  21   2.0000     -10.256934      -279.1054
  22   2.0000     -10.256896      -279.1043
  23   2.0000     -10.255061      -279.0544
  24   2.0000     -10.254125      -279.0289
  25   2.0000     -10.253578      -279.0140
  26   2.0000     -10.253176      -279.0031
  27   2.0000     -10.252368      -278.9811
  28   2.0000     -10.252255      -278.9780
  29   2.0000     -10.251752      -278.9644
  30   2.0000     -10.249373      -278.8996
  31   2.0000     -10.246471      -278.8207
  32   2.0000     -10.245609      -278.7972
  33   2.0000     -10.244220      -278.7594
  34   2.0000     -10.243391      -278.7368
  35   2.0000     -10.242156      -278.7032
  36   2.0000     -10.241801      -278.6936
  37   2.0000     -10.241300      -278.6799
  38   2.0000     -10.239778      -278.6385
  39   2.0000     -10.238996      -278.6172
  40   2.0000     -10.226901      -278.2881
  41   2.0000     -10.226422      -278.2751
  42   2.0000     -10.226297      -278.2717
  43   2.0000     -10.225771      -278.2574
  44   2.0000     -10.225014      -278.2368
  45   2.0000     -10.224431      -278.2209
  46   2.0000     -10.223096      -278.1846
  47   2.0000     -10.222769      -278.1757
  48   2.0000     -10.222519      -278.1689
  49   2.0000     -10.222445      -278.1669
  50   2.0000      -1.120591       -30.4928
  51   2.0000      -1.113706       -30.3055
  52   2.0000      -0.987202       -26.8631
  53   2.0000      -0.985625       -26.8202
  54   2.0000      -0.953985       -25.9593
  55   2.0000      -0.952762       -25.9260
  56   2.0000      -0.928066       -25.2539
  57   2.0000      -0.917059       -24.9545
  58   2.0000      -0.877142       -23.8682
  59   2.0000      -0.875429       -23.8216
  60   2.0000      -0.870134       -23.6776
  61   2.0000      -0.869037       -23.6477
  62   2.0000      -0.856217       -23.2989
  63   2.0000      -0.836143       -22.7526
  64   2.0000      -0.829288       -22.5661
  65   2.0000      -0.816006       -22.2047
  66   2.0000      -0.812258       -22.1027
  67   2.0000      -0.801362       -21.8062
  68   2.0000      -0.780889       -21.2491
  69   2.0000      -0.779259       -21.2047
  70   2.0000      -0.768179       -20.9032
  71   2.0000      -0.767683       -20.8897
  72   2.0000      -0.767171       -20.8758
  73   2.0000      -0.758495       -20.6397
  74   2.0000      -0.753162       -20.4946
  75   2.0000      -0.743613       -20.2347
  76   2.0000      -0.701042       -19.0763
  77   2.0000      -0.696149       -18.9432
  78   2.0000      -0.691340       -18.8123
  79   2.0000      -0.669778       -18.2256
  80   2.0000      -0.663866       -18.0647
  81   2.0000      -0.655352       -17.8330
  82   2.0000      -0.647140       -17.6096
  83   2.0000      -0.646360       -17.5884
  84   2.0000      -0.642196       -17.4750
  85   2.0000      -0.627201       -17.0670
  86   2.0000      -0.625936       -17.0326
  87   2.0000      -0.620087       -16.8734
  88   2.0000      -0.618551       -16.8316
  89   2.0000      -0.613540       -16.6953
  90   2.0000      -0.588443       -16.0123
  91   2.0000      -0.587975       -15.9996
  92   2.0000      -0.584686       -15.9101
  93   2.0000      -0.584209       -15.8971
  94   2.0000      -0.559609       -15.2277
  95   2.0000      -0.555675       -15.1207
  96   2.0000      -0.553225       -15.0540
  97   2.0000      -0.544750       -14.8234
  98   2.0000      -0.544107       -14.8059
  99   2.0000      -0.539588       -14.6829
 100   2.0000      -0.525420       -14.2974
 101   2.0000      -0.518638       -14.1129
 102   2.0000      -0.505392       -13.7524
 103   2.0000      -0.503902       -13.7119
 104   2.0000      -0.495458       -13.4821
 105   2.0000      -0.493259       -13.4223
 106   2.0000      -0.489704       -13.3255
 107   2.0000      -0.487626       -13.2690
 108   2.0000      -0.481539       -13.1033
 109   2.0000      -0.477869       -13.0035
 110   2.0000      -0.476164       -12.9571
 111   2.0000      -0.471328       -12.8255
 112   2.0000      -0.470793       -12.8109
 113   2.0000      -0.470078       -12.7915
 114   2.0000      -0.466781       -12.7018
 115   2.0000      -0.461591       -12.5605
 116   2.0000      -0.457432       -12.4474
 117   2.0000      -0.452646       -12.3171
 118   2.0000      -0.452102       -12.3023
 119   2.0000      -0.446547       -12.1512
 120   2.0000      -0.446035       -12.1372
 121   2.0000      -0.442349       -12.0369
 122   2.0000      -0.441481       -12.0133
 123   2.0000      -0.435772       -11.8580
 124   2.0000      -0.433843       -11.8055
 125   2.0000      -0.431304       -11.7364
 126   2.0000      -0.429895       -11.6980
 127   2.0000      -0.427834       -11.6419
 128   2.0000      -0.424780       -11.5588
 129   2.0000      -0.421892       -11.4803
 130   2.0000      -0.419416       -11.4129
 131   2.0000      -0.415239       -11.2992
 132   2.0000      -0.412328       -11.2200
 133   2.0000      -0.406036       -11.0488
 134   2.0000      -0.401151       -10.9159
 135   2.0000      -0.398742       -10.8503
 136   2.0000      -0.394823       -10.7437
 137   2.0000      -0.383551       -10.4370
 138   2.0000      -0.383365       -10.4319
 139   2.0000      -0.372999       -10.1498
 140   2.0000      -0.371243       -10.1020
 141   2.0000      -0.370402       -10.0791
 142   2.0000      -0.369650       -10.0587
 143   2.0000      -0.367745       -10.0068
 144   2.0000      -0.361626        -9.8403
 145   2.0000      -0.361089        -9.8257
 146   2.0000      -0.352619        -9.5952
 147   2.0000      -0.350814        -9.5461
 148   2.0000      -0.348832        -9.4922
 149   2.0000      -0.339081        -9.2269
 150   2.0000      -0.337116        -9.1734
 151   2.0000      -0.319194        -8.6857
 152   2.0000      -0.311630        -8.4799
 153   2.0000      -0.308431        -8.3928
 154   2.0000      -0.304975        -8.2988
 155   2.0000      -0.302393        -8.2285
 156   2.0000      -0.301705        -8.2098
 157   2.0000      -0.285197        -7.7606
 158   2.0000      -0.283606        -7.7173
 159   2.0000      -0.272587        -7.4175
 160   2.0000      -0.270205        -7.3526
 161   2.0000      -0.265217        -7.2169
 162   2.0000      -0.264581        -7.1996
 163   2.0000      -0.254444        -6.9238
 164   2.0000      -0.248552        -6.7635
 165   2.0000      -0.242616        -6.6019
 166   2.0000      -0.238392        -6.4870
 167   2.0000      -0.228687        -6.2229
 168   2.0000      -0.227902        -6.2015
 169   0.0000      -0.080441        -2.1889
 170   0.0000      -0.078291        -2.1304
 171   0.0000      -0.057270        -1.5584
 172   0.0000      -0.054336        -1.4785
 173   0.0000      -0.030238        -0.8228

MULLIKEN ATOMIC CHARGES
-----------------------
   0 H :    0.339634
   1 H :    0.340792
   2 H :    0.114643
   3 H :    0.117302
   4 H :    0.128857
   5 H :    0.135789
   6 H :    0.115149
   7 H :    0.115279
   8 H :    0.116172
   9 H :    0.116446
  10 H :    0.117034
  11 H :    0.116779
  12 H :    0.120945
  13 H :    0.120912
  14 H :    0.120640
  15 H :    0.119232
  16 H :    0.126265
  17 H :    0.125165
  18 H :    0.114057
  19 H :    0.113398
  20 H :    0.140672
  21 H :    0.131917
  22 H :    0.118417
  23 H :    0.119960
  24 H :    0.136704
  25 H :    0.133466
  26 H :    0.130051
  27 H :    0.130944
  28 H :    0.129447
  29 H :    0.140838
  30 N :   -0.163144
  31 N :   -0.163294
  32 N :   -0.094669
  33 N :   -0.100849
  34 O :   -0.358972
  35 O :   -0.372902
  36 C :   -0.237571
  37 C :   -0.222580
  38 C :   -0.113701
  39 C :   -0.156102
  40 C :   -0.143685
  41 C :   -0.141999
  42 C :   -0.085255
  43 C :   -0.090996
  44 C :   -0.063722
  45 C :   -0.062534
  46 C :   -0.103061
  47 C :   -0.106520
  48 C :   -0.109571
  49 C :   -0.102611
  50 C :   -0.184605
  51 C :   -0.185016
  52 C :   -0.261112
  53 C :   -0.260738
  54 C :   -0.226800
  55 C :   -0.162809
  56 C :   -0.231811
  57 C :   -0.229801
  58 C :   -0.225786
  59 C :   -0.226612
  60 C :   -0.279484
  61 C :   -0.280726
  62 C :   -0.310586
  63 C :   -0.297646
  64 C :    0.330690
  65 C :    0.318004
  66 C :    0.248428
  67 C :    0.250930
  68 C :    0.249618
  69 C :    0.294719
  70 C :    0.111688
  71 C :    0.080822
  72 C :    0.154050
  73 C :    0.127235
  74 C :    0.091648
  75 C :    0.066484
  76 C :    0.128910
  77 C :    0.153239
  78 C :   -0.190679
  79 C :   -0.205421
Sum of atomic charges:   -0.0000000

LOEWDIN ATOMIC CHARGES
----------------------
   0 H :    0.200636
   1 H :    0.200667
   2 H :    0.134881
   3 H :    0.135089
   4 H :    0.148944
   5 H :    0.146815
   6 H :    0.145055
   7 H :    0.145086
   8 H :    0.146434
   9 H :    0.146542
  10 H :    0.147011
  11 H :    0.146969
  12 H :    0.148252
  13 H :    0.148385
  14 H :    0.149296
  15 H :    0.149176
  16 H :    0.152577
  17 H :    0.152693
  18 H :    0.151067
  19 H :    0.151011
  20 H :    0.155999
  21 H :    0.157260
  22 H :    0.151563
  23 H :    0.152149
  24 H :    0.160739
  25 H :    0.160206
  26 H :    0.151024
  27 H :    0.150975
  28 H :    0.160400
  29 H :    0.161353
  30 N :    0.199490
  31 N :    0.195461
  32 N :    0.200847
  33 N :    0.198632
  34 O :    0.128193
  35 O :    0.135278
  36 C :   -0.173726
  37 C :   -0.174237
  38 C :   -0.150998
  39 C :   -0.160628
  40 C :   -0.154545
  41 C :   -0.153842
  42 C :   -0.146240
  43 C :   -0.146338
  44 C :   -0.143409
  45 C :   -0.143785
  46 C :   -0.146380
  47 C :   -0.146069
  48 C :   -0.135791
  49 C :   -0.135149
  50 C :   -0.109334
  51 C :   -0.107835
  52 C :   -0.111198
  53 C :   -0.110405
  54 C :   -0.081656
  55 C :   -0.073212
  56 C :   -0.100960
  57 C :   -0.099552
  58 C :   -0.101400
  59 C :   -0.100239
  60 C :   -0.126449
  61 C :   -0.126380
  62 C :   -0.052140
  63 C :   -0.048710
  64 C :   -0.225489
  65 C :   -0.227608
  66 C :   -0.205354
  67 C :   -0.205773
  68 C :   -0.204329
  69 C :   -0.212676
  70 C :   -0.107112
  71 C :   -0.105874
  72 C :   -0.100100
  73 C :   -0.099424
  74 C :   -0.085940
  75 C :   -0.083767
  76 C :   -0.070354
  77 C :   -0.069876
  78 C :   -0.100676
  79 C :   -0.101193

  Mayer bond orders larger than 0.100000
B(  0-H , 34-O ) :   0.8445 B(  1-H , 35-O ) :   0.8437 B(  2-H , 36-C ) :   0.9837
B(  3-H , 37-C ) :   0.9790 B(  4-H , 38-C ) :   0.9835 B(  5-H , 39-C ) :   0.9823
B(  6-H , 40-C ) :   0.9630 B(  7-H , 41-C ) :   0.9630 B(  8-H , 42-C ) :   0.9584
B(  9-H , 43-C ) :   0.9578 B( 10-H , 44-C ) :   0.9627 B( 11-H , 45-C ) :   0.9631
B( 12-H , 46-C ) :   0.9671 B( 13-H , 47-C ) :   0.9665 B( 14-H , 48-C ) :   0.9679
B( 15-H , 49-C ) :   0.9675 B( 16-H , 50-C ) :   0.9679 B( 17-H , 51-C ) :   0.9671
B( 18-H , 52-C ) :   0.9750 B( 19-H , 53-C ) :   0.9752 B( 20-H , 54-C ) :   0.9613
B( 21-H , 55-C ) :   0.9635 B( 22-H , 56-C ) :   0.9832 B( 23-H , 57-C ) :   0.9806
B( 24-H , 58-C ) :   0.9541 B( 25-H , 59-C ) :   0.9553 B( 26-H , 60-C ) :   0.9614
B( 27-H , 61-C ) :   0.9607 B( 28-H , 62-C ) :   1.0005 B( 29-H , 63-C ) :   0.9721
B( 30-N , 38-C ) :   1.6042 B( 30-N , 64-C ) :   1.3271 B( 31-N , 39-C ) :   1.6034
B( 31-N , 65-C ) :   1.3389 B( 32-N , 36-C ) :   1.9296 B( 32-N , 66-C ) :   1.0663
B( 33-N , 37-C ) :   1.9152 B( 33-N , 67-C ) :   1.0758 B( 34-O , 68-C ) :   1.2752
B( 35-O , 69-C ) :   1.2299 B( 36-C , 64-C ) :   0.9377 B( 37-C , 65-C ) :   0.9494
B( 38-C , 70-C ) :   1.2793 B( 39-C , 71-C ) :   1.3159 B( 40-C , 42-C ) :   1.4241
B( 40-C , 44-C ) :   1.4065 B( 41-C , 43-C ) :   1.4229 B( 41-C , 45-C ) :   1.4073
B( 42-C , 60-C ) :   1.4148 B( 43-C , 61-C ) :   1.4207 B( 44-C , 52-C ) :   1.4342
B( 45-C , 53-C ) :   1.4349 B( 46-C , 48-C ) :   1.2720 B( 46-C , 56-C ) :   1.5314
B( 47-C , 49-C ) :   1.2704 B( 47-C , 57-C ) :   1.5344 B( 48-C , 58-C ) :   1.5450
B( 49-C , 59-C ) :   1.5462 B( 50-C , 54-C ) :   1.4239 B( 50-C , 64-C ) :   1.3548
B( 51-C , 55-C ) :   1.4430 B( 51-C , 65-C ) :   1.3353 B( 52-C , 66-C ) :   1.3977
B( 53-C , 67-C ) :   1.3983 B( 54-C , 70-C ) :   1.4283 B( 55-C , 71-C ) :   1.3676
B( 56-C , 72-C ) :   1.2313 B( 57-C , 73-C ) :   1.2322 B( 58-C , 76-C ) :   1.3132
B( 59-C , 77-C ) :   1.3187 B( 60-C , 66-C ) :   1.3565 B( 61-C , 67-C ) :   1.3482
B( 62-C , 72-C ) :   1.1701 B( 62-C , 74-C ) :   1.4838 B( 63-C , 73-C ) :   1.2113
B( 63-C , 75-C ) :   1.4836 B( 68-C , 74-C ) :   1.2703 B( 68-C , 78-C ) :   1.3658
B( 69-C , 75-C ) :   1.2599 B( 69-C , 79-C ) :   1.3563 B( 70-C , 74-C ) :   0.8493
B( 71-C , 75-C ) :   0.8855 B( 72-C , 76-C ) :   1.2885 B( 73-C , 77-C ) :   1.2752
B( 76-C , 78-C ) :   1.0946 B( 77-C , 79-C ) :   1.0967 B( 78-C , 79-C ) :   0.6696

Dispersion correction           -0.111601043
FINAL SINGLE POINT ENERGY     -2062.621994002966

DIPOLE MOMENT
-------------
                                X             Y             Z
Electronic contribution:      3.48722      -1.39837       5.58982
Nuclear contribution   :     -1.39254       1.49421      -3.76581
                        -----------------------------------------
Total Dipole Moment    :      2.09469       0.09584       1.82400
                        -----------------------------------------
Magnitude (a.u.)       :      2.77919
Magnitude (Debye)      :      7.06414

Rotational constants in cm-1:     0.001925     0.000773     0.000631
Rotational constants in MHz :    57.707334    23.168424    18.908738

                             ****ORCA TERMINATED NORMALLY****
TOTAL RUN TIME: 0 days 0 hours 16 minutes 1 seconds 424 msec
