                         Program Version 4.2.1 -  RELEASE  -
|  1> # closed shell KS, PBE0/def2-SVP/D4
|  2> ! DFT SP RKS PBE0 def2-TZVP D4 Grid6 NOFINALGRID SlowConv TightSCF printbasis
|  3>
|  4> %base "_fe6ll_xtb_dft_sg80_1_0"
|  5> %maxcore 4000
|  6> %scf
|  7>    MaxIter 2000
|  8> end
|  9>
| 10> %pal
| 11>    nprocs 48
| 12> end
| 13>
| 14> * xyzfile 0 1 fe6ll_xtb_dft_sg80_1_0.xyz
| 15>
| 16>
| 17>                          ****END OF INPUT****

CARTESIAN COORDINATES (ANGSTROEM)
---------------------------------
  H     10.512600    6.834300   14.946500
  H     11.409600   10.949500   12.024700
  H      9.082300    0.622400   12.695100
  H      9.924900   17.080700   11.188700
  H      9.739300    5.946800   13.049600
  H     13.016600   12.669000   11.738300
  H      4.644500   -1.136200    9.403500
  H     10.364000   20.276500    6.391300
  H      7.057300   -0.789400    8.885700
  H      9.626600   17.981800    5.775900
  H      3.626900    0.005600   11.368200
  H     11.419100   20.683700    8.613200
  H     18.146300    7.006000   12.920100
  H     13.725300   10.538800   19.652200
  H     17.491800    9.378500   13.319500
  H     14.133000    8.270800   18.704500
  H     11.296900    1.363500   13.913500
  H      9.598900   15.782200   13.408800
  H      4.985600    1.503400   12.782000
  H     11.796200   18.789500   10.178600
  H     12.872000    3.254500   14.296200
  H     10.211800   13.806100   14.813600
  H     16.405500    5.239500   12.849400
  H     12.849400   12.346600   18.194800
  H     15.131900    9.973000   13.749100
  H     13.689300    7.798400   16.327400
  H      8.426900    0.722500   10.295300
  H      9.967600   16.097800    7.350600
  H     14.063600    4.584600   13.007400
  H     12.155300   13.122100   15.991000
  N      9.278700    3.934800   13.083900
  N     11.870600   14.349500   11.362800
  N      7.606700    2.074700   12.415200
  N     11.166700   16.246100    9.738600
  O     10.856400    7.543100   14.389800
  O     12.080400   10.343700   12.358500
  C      8.769100    1.668900   12.792900
  C     10.616100   16.280900   10.896600
  C     10.126900    4.947000   13.248400
  C     12.234200   13.320700   12.129000
  C      5.251200   -0.477300   10.029300
  C     10.526100   19.446900    7.083400
  C      6.601300   -0.283800    9.740000
  C     10.118900   18.157700    6.735000
  C      4.679700    0.168300   11.126200
  C     11.116400   19.674400    8.325200
  C     17.094700    7.259900   13.073200
  C     13.513000   10.345200   18.598600
  C     16.721700    8.603200   13.303400
  C     13.743400    9.059900   18.057300
  C     10.992400    2.393600   13.718200
  C     10.343800   15.060200   13.068300
  C      5.444100    1.014400   11.924300
  C     11.316100   18.618700    9.213200
  C     11.867500    3.449600   13.917000
  C     10.693000   13.967300   13.846700
  C     16.132800    6.279100   13.042100
  C     13.030900   11.347000   17.792300
  C     15.406500    8.939000   13.536100
  C     13.494600    8.794000   16.728900
  C      7.375300    0.552500   10.538700
  C     10.322200   17.095400    7.608900
  C     13.772200    5.599400   13.286900
  C     12.299100   12.123900   15.569700
  C      9.707000    2.667500   13.252900
  C     10.940200   15.214100   11.816800
  C      6.801200    1.206200   11.639300
  C     10.931700   17.325000    8.846200
  C     12.112000    7.221900   13.969000
  C     12.299100   10.605500   13.678500
  C     11.475300    4.767700   13.614200
  C     11.660600   13.056000   13.387300
  C     14.769500    6.595400   13.272300
  C     12.767200   11.103400   16.419200
  C     12.454200    5.873000   13.620800
  C     12.083900   11.914900   14.217900
  C     14.398900    7.943700   13.550800
  C     13.002800    9.807100   15.868700
  C     13.052900    8.232500   13.926500
  C     12.746000    9.576200   14.481800

 Total Charge           Charge          ....    0
 Multiplicity           Mult            ....    1
 Number of Electrons    NEL             ....  338
 Basis Dimension        Dim             .... 1730

ORBITAL ENERGIES
----------------

  NO   OCC          E(Eh)            E(eV)
   0   2.0000     -19.242733      -523.6214
   1   2.0000     -19.242315      -523.6100
   2   2.0000     -14.390967      -391.5981
   3   2.0000     -14.390364      -391.5817
   4   2.0000     -14.389340      -391.5538
   5   2.0000     -14.387330      -391.4991
   6   2.0000     -10.300517      -280.2913
   7   2.0000     -10.299771      -280.2710
   8   2.0000     -10.276975      -279.6507
   9   2.0000     -10.275877      -279.6208
  10   2.0000     -10.275183      -279.6019
  11   2.0000     -10.274456      -279.5822
  12   2.0000     -10.273051      -279.5439
  13   2.0000     -10.269690      -279.4525
  14   2.0000     -10.264935      -279.3231
  15   2.0000     -10.264004      -279.2977
  16   2.0000     -10.261000      -279.2160
  17   2.0000     -10.260733      -279.2087
  18   2.0000     -10.260631      -279.2060
  19   2.0000     -10.258742      -279.1546
  20   2.0000     -10.256900      -279.1044
  21   2.0000     -10.255773      -279.0738
  22   2.0000     -10.254418      -279.0369
  23   2.0000     -10.252543      -278.9859
  24   2.0000     -10.248019      -278.8628
  25   2.0000     -10.246817      -278.8301
  26   2.0000     -10.244210      -278.7591
  27   2.0000     -10.244029      -278.7542
  28   2.0000     -10.243431      -278.7379
  29   2.0000     -10.243406      -278.7373
  30   2.0000     -10.243330      -278.7352
  31   2.0000     -10.243079      -278.7284
  32   2.0000     -10.236499      -278.5493
  33   2.0000     -10.235954      -278.5345
  34   2.0000     -10.234702      -278.5004
  35   2.0000     -10.233864      -278.4776
  36   2.0000     -10.232696      -278.4458
  37   2.0000     -10.232497      -278.4404
  38   2.0000     -10.231578      -278.4154
  39   2.0000     -10.230552      -278.3875
  40   2.0000     -10.228573      -278.3336
  41   2.0000     -10.228492      -278.3314
  42   2.0000     -10.228079      -278.3202
  43   2.0000     -10.228011      -278.3183
  44   2.0000     -10.226959      -278.2897
  45   2.0000     -10.226606      -278.2801
  46   2.0000     -10.224937      -278.2347
  47   2.0000     -10.224561      -278.2244
  48   2.0000     -10.224502      -278.2228
  49   2.0000     -10.223589      -278.1980
  50   2.0000      -1.101934       -29.9852
  51   2.0000      -1.099750       -29.9257
  52   2.0000      -0.991419       -26.9779
  53   2.0000      -0.989562       -26.9274
  54   2.0000      -0.958048       -26.0698
  55   2.0000      -0.955612       -26.0035
  56   2.0000      -0.919319       -25.0160
  57   2.0000      -0.907548       -24.6957
  58   2.0000      -0.875658       -23.8279
  59   2.0000      -0.874830       -23.8053
  60   2.0000      -0.868034       -23.6204
  61   2.0000      -0.866899       -23.5895
  62   2.0000      -0.850897       -23.1541
  63   2.0000      -0.836045       -22.7499
  64   2.0000      -0.828568       -22.5465
  65   2.0000      -0.817691       -22.2505
  66   2.0000      -0.811678       -22.0869
  67   2.0000      -0.790871       -21.5207
  68   2.0000      -0.776062       -21.1177
  69   2.0000      -0.775374       -21.0990
  70   2.0000      -0.769199       -20.9310
  71   2.0000      -0.769125       -20.9290
  72   2.0000      -0.761350       -20.7174
  73   2.0000      -0.757278       -20.6066
  74   2.0000      -0.752261       -20.4701
  75   2.0000      -0.739213       -20.1150
  76   2.0000      -0.699849       -19.0439
  77   2.0000      -0.699241       -19.0273
  78   2.0000      -0.674689       -18.3592
  79   2.0000      -0.668817       -18.1994
  80   2.0000      -0.660282       -17.9672
  81   2.0000      -0.650478       -17.7004
  82   2.0000      -0.649176       -17.6650
  83   2.0000      -0.647213       -17.6116
  84   2.0000      -0.635694       -17.2981
  85   2.0000      -0.627328       -17.0705
  86   2.0000      -0.626769       -17.0553
  87   2.0000      -0.621849       -16.9214
  88   2.0000      -0.620896       -16.8954
  89   2.0000      -0.602092       -16.3838
  90   2.0000      -0.591082       -16.0842
  91   2.0000      -0.588589       -16.0163
  92   2.0000      -0.578791       -15.7497
  93   2.0000      -0.577966       -15.7273
  94   2.0000      -0.556108       -15.1325
  95   2.0000      -0.550699       -14.9853
  96   2.0000      -0.550552       -14.9813
  97   2.0000      -0.543100       -14.7785
  98   2.0000      -0.536118       -14.5885
  99   2.0000      -0.535172       -14.5628
 100   2.0000      -0.522747       -14.2247
 101   2.0000      -0.519179       -14.1276
 102   2.0000      -0.508222       -13.8294
 103   2.0000      -0.500847       -13.6288
 104   2.0000      -0.498134       -13.5549
 105   2.0000      -0.497534       -13.5386
 106   2.0000      -0.485460       -13.2100
 107   2.0000      -0.483009       -13.1433
 108   2.0000      -0.480696       -13.0804
 109   2.0000      -0.479822       -13.0566
 110   2.0000      -0.473901       -12.8955
 111   2.0000      -0.472828       -12.8663
 112   2.0000      -0.467493       -12.7211
 113   2.0000      -0.458631       -12.4800
 114   2.0000      -0.458071       -12.4647
 115   2.0000      -0.455890       -12.4054
 116   2.0000      -0.453337       -12.3359
 117   2.0000      -0.452198       -12.3049
 118   2.0000      -0.448879       -12.2146
 119   2.0000      -0.448701       -12.2098
 120   2.0000      -0.443368       -12.0646
 121   2.0000      -0.439676       -11.9642
 122   2.0000      -0.438694       -11.9375
 123   2.0000      -0.434374       -11.8199
 124   2.0000      -0.433642       -11.8000
 125   2.0000      -0.432831       -11.7779
 126   2.0000      -0.432015       -11.7557
 127   2.0000      -0.427685       -11.6379
 128   2.0000      -0.424476       -11.5506
 129   2.0000      -0.420552       -11.4438
 130   2.0000      -0.416875       -11.3437
 131   2.0000      -0.406829       -11.0704
 132   2.0000      -0.405371       -11.0307
 133   2.0000      -0.404272       -11.0008
 134   2.0000      -0.397283       -10.8106
 135   2.0000      -0.387065       -10.5326
 136   2.0000      -0.387028       -10.5316
 137   2.0000      -0.379351       -10.3227
 138   2.0000      -0.375619       -10.2211
 139   2.0000      -0.371989       -10.1223
 140   2.0000      -0.371160       -10.0998
 141   2.0000      -0.367156        -9.9908
 142   2.0000      -0.365719        -9.9517
 143   2.0000      -0.365266        -9.9394
 144   2.0000      -0.362064        -9.8523
 145   2.0000      -0.357934        -9.7399
 146   2.0000      -0.353289        -9.6135
 147   2.0000      -0.352352        -9.5880
 148   2.0000      -0.340143        -9.2558
 149   2.0000      -0.332468        -9.0469
 150   2.0000      -0.330537        -8.9944
 151   2.0000      -0.314005        -8.5445
 152   2.0000      -0.311698        -8.4817
 153   2.0000      -0.306502        -8.3403
 154   2.0000      -0.305942        -8.3251
 155   2.0000      -0.304129        -8.2758
 156   2.0000      -0.297267        -8.0890
 157   2.0000      -0.285978        -7.7819
 158   2.0000      -0.284652        -7.7458
 159   2.0000      -0.279408        -7.6031
 160   2.0000      -0.275556        -7.4983
 161   2.0000      -0.266761        -7.2589
 162   2.0000      -0.266722        -7.2579
 163   2.0000      -0.245902        -6.6913
 164   2.0000      -0.244570        -6.6551
 165   2.0000      -0.234970        -6.3939
 166   2.0000      -0.232460        -6.3256
 167   2.0000      -0.229251        -6.2382
 168   2.0000      -0.227481        -6.1901
 169   0.0000      -0.084601        -2.3021
 170   0.0000      -0.081204        -2.2097
 171   0.0000      -0.048190        -1.3113
 172   0.0000      -0.046602        -1.2681
 173   0.0000      -0.037457        -1.0193

MULLIKEN ATOMIC CHARGES
-----------------------
   0 H :    0.335756
   1 H :    0.337344
   2 H :    0.115238
   3 H :    0.111530
   4 H :    0.179146
   5 H :    0.167847
   6 H :    0.115901
   7 H :    0.115777
   8 H :    0.116805
   9 H :    0.117597
  10 H :    0.117423
  11 H :    0.116100
  12 H :    0.117431
  13 H :    0.116800
  14 H :    0.118199
  15 H :    0.115636
  16 H :    0.127780
  17 H :    0.127961
  18 H :    0.113154
  19 H :    0.124491
  20 H :    0.143925
  21 H :    0.149437
  22 H :    0.111390
  23 H :    0.112163
  24 H :    0.134237
  25 H :    0.137144
  26 H :    0.129307
  27 H :    0.114263
  28 H :    0.124899
  29 H :    0.132141
  30 N :   -0.157100
  31 N :   -0.156175
  32 N :   -0.096104
  33 N :   -0.085826
  34 O :   -0.412438
  35 O :   -0.383876
  36 C :   -0.227005
  37 C :   -0.253982
  38 C :   -0.179376
  39 C :   -0.194423
  40 C :   -0.142354
  41 C :   -0.141607
  42 C :   -0.089344
  43 C :   -0.072191
  44 C :   -0.063562
  45 C :   -0.083340
  46 C :   -0.115732
  47 C :   -0.113458
  48 C :   -0.101214
  49 C :   -0.106480
  50 C :   -0.191758
  51 C :   -0.190438
  52 C :   -0.260504
  53 C :   -0.262141
  54 C :   -0.179461
  55 C :   -0.190042
  56 C :   -0.231221
  57 C :   -0.233142
  58 C :   -0.203803
  59 C :   -0.207807
  60 C :   -0.274884
  61 C :   -0.249247
  62 C :   -0.336170
  63 C :   -0.326785
  64 C :    0.322956
  65 C :    0.356172
  66 C :    0.249382
  67 C :    0.221546
  68 C :    0.186682
  69 C :    0.248741
  70 C :   -0.038420
  71 C :   -0.025506
  72 C :    0.127078
  73 C :    0.087826
  74 C :    0.199533
  75 C :    0.197800
  76 C :    0.138015
  77 C :    0.137408
  78 C :   -0.043052
  79 C :   -0.049989
Sum of atomic charges:   -0.0000000

LOEWDIN ATOMIC CHARGES
----------------------
   0 H :    0.192018
   1 H :    0.191374
   2 H :    0.134679
   3 H :    0.134677
   4 H :    0.151368
   5 H :    0.151426
   6 H :    0.145394
   7 H :    0.145291
   8 H :    0.146724
   9 H :    0.147255
  10 H :    0.147206
  11 H :    0.146520
  12 H :    0.147320
  13 H :    0.146905
  14 H :    0.148605
  15 H :    0.147706
  16 H :    0.153172
  17 H :    0.153622
  18 H :    0.150911
  19 H :    0.150182
  20 H :    0.156029
  21 H :    0.157978
  22 H :    0.149408
  23 H :    0.149839
  24 H :    0.160744
  25 H :    0.161061
  26 H :    0.150705
  27 H :    0.151243
  28 H :    0.157191
  29 H :    0.158291
  30 N :    0.196791
  31 N :    0.195313
  32 N :    0.200865
  33 N :    0.205018
  34 O :    0.107387
  35 O :    0.111791
  36 C :   -0.174027
  37 C :   -0.173346
  38 C :   -0.172702
  39 C :   -0.171956
  40 C :   -0.153639
  41 C :   -0.155628
  42 C :   -0.145775
  43 C :   -0.142256
  44 C :   -0.143130
  45 C :   -0.144580
  46 C :   -0.146699
  47 C :   -0.148799
  48 C :   -0.136015
  49 C :   -0.138661
  50 C :   -0.109810
  51 C :   -0.107185
  52 C :   -0.110499
  53 C :   -0.126207
  54 C :   -0.084253
  55 C :   -0.081090
  56 C :   -0.103186
  57 C :   -0.102949
  58 C :   -0.089517
  59 C :   -0.094233
  60 C :   -0.125692
  61 C :   -0.113553
  62 C :   -0.056951
  63 C :   -0.058527
  64 C :   -0.227066
  65 C :   -0.225644
  66 C :   -0.205599
  67 C :   -0.205540
  68 C :   -0.202720
  69 C :   -0.200806
  70 C :   -0.114314
  71 C :   -0.119761
  72 C :   -0.099915
  73 C :   -0.098961
  74 C :   -0.092133
  75 C :   -0.094741
  76 C :   -0.053395
  77 C :   -0.050671
  78 C :   -0.048886
  79 C :   -0.050992

  Mayer bond orders larger than 0.100000
B(  0-H , 34-O ) :   0.8627 B(  1-H , 35-O ) :   0.8574 B(  2-H , 36-C ) :   0.9821
B(  3-H , 37-C ) :   0.9904 B(  4-H , 38-C ) :   0.9646 B(  5-H , 39-C ) :   0.9783
B(  6-H , 40-C ) :   0.9626 B(  7-H , 41-C ) :   0.9623 B(  8-H , 42-C ) :   0.9576
B(  9-H , 43-C ) :   0.9619 B( 10-H , 44-C ) :   0.9626 B( 11-H , 45-C ) :   0.9597
B( 12-H , 46-C ) :   0.9677 B( 13-H , 47-C ) :   0.9686 B( 14-H , 48-C ) :   0.9679
B( 15-H , 49-C ) :   0.9697 B( 16-H , 50-C ) :   0.9661 B( 17-H , 51-C ) :   0.9689
B( 18-H , 52-C ) :   0.9753 B( 19-H , 53-C ) :   0.9638 B( 20-H , 54-C ) :   0.9481
B( 21-H , 55-C ) :   0.9568 B( 22-H , 56-C ) :   0.9847 B( 23-H , 57-C ) :   0.9854
B( 24-H , 58-C ) :   0.9486 B( 25-H , 59-C ) :   0.9458 B( 26-H , 60-C ) :   0.9592
B( 27-H , 61-C ) :   0.9748 B( 28-H , 62-C ) :   0.9503 B( 29-H , 63-C ) :   0.9590
B( 30-N , 38-C ) :   1.6039 B( 30-N , 64-C ) :   1.3320 B( 31-N , 39-C ) :   1.5924
B( 31-N , 65-C ) :   1.3439 B( 32-N , 36-C ) :   1.9300 B( 32-N , 66-C ) :   1.0681
B( 33-N , 37-C ) :   1.9354 B( 33-N , 67-C ) :   1.0516 B( 34-O , 68-C ) :   1.1798
B( 35-O , 69-C ) :   1.2433 B( 36-C , 64-C ) :   0.9472 B( 37-C , 65-C ) :   0.9148
B( 38-C , 70-C ) :   1.3183 B( 39-C , 71-C ) :   1.3150 B( 40-C , 42-C ) :   1.4243
B( 40-C , 44-C ) :   1.4068 B( 41-C , 43-C ) :   1.4038 B( 41-C , 45-C ) :   1.4267
B( 42-C , 60-C ) :   1.4217 B( 43-C , 61-C ) :   1.4354 B( 44-C , 52-C ) :   1.4359
B( 45-C , 53-C ) :   1.4118 B( 46-C , 48-C ) :   1.2668 B( 46-C , 56-C ) :   1.5420
B( 47-C , 49-C ) :   1.2657 B( 47-C , 57-C ) :   1.5390 B( 48-C , 58-C ) :   1.5415
B( 49-C , 59-C ) :   1.5479 B( 50-C , 54-C ) :   1.4548 B( 50-C , 64-C ) :   1.3383
B( 51-C , 55-C ) :   1.4418 B( 51-C , 65-C ) :   1.3375 B( 52-C , 66-C ) :   1.3955
B( 53-C , 67-C ) :   1.3796 B( 54-C , 70-C ) :   1.4032 B( 55-C , 71-C ) :   1.4118
B( 56-C , 72-C ) :   1.2096 B( 57-C , 73-C ) :   1.2117 B( 58-C , 76-C ) :   1.2880
B( 59-C , 77-C ) :   1.2738 B( 60-C , 66-C ) :   1.3552 B( 61-C , 67-C ) :   1.3984
B( 62-C , 72-C ) :   1.2364 B( 62-C , 74-C ) :   1.4766 B( 63-C , 73-C ) :   1.2290
B( 63-C , 75-C ) :   1.4783 B( 68-C , 74-C ) :   1.1966 B( 68-C , 78-C ) :   1.4797
B( 69-C , 75-C ) :   1.1685 B( 69-C , 79-C ) :   1.4346 B( 70-C , 74-C ) :   0.8430
B( 71-C , 75-C ) :   0.8061 B( 72-C , 76-C ) :   1.2494 B( 73-C , 77-C ) :   1.2914
B( 76-C , 78-C ) :   1.2210 B( 77-C , 79-C ) :   1.1992 B( 78-C , 79-C ) :   0.7615

Dispersion correction           -0.111206506
FINAL SINGLE POINT ENERGY     -2062.609668787319

DIPOLE MOMENT
-------------
                                X             Y             Z
Electronic contribution:      2.94101      -0.40302       5.80989
Nuclear contribution   :     -2.47574       0.06904      -4.19027
                        -----------------------------------------
Total Dipole Moment    :      0.46527      -0.33398       1.61962
                        -----------------------------------------
Magnitude (a.u.)       :      1.71791
Magnitude (Debye)      :      4.36657

Rotational constants in cm-1:     0.002030     0.000714     0.000589
Rotational constants in MHz :    60.864601    21.403289    17.661759

                             ****ORCA TERMINATED NORMALLY****
TOTAL RUN TIME: 0 days 0 hours 15 minutes 50 seconds 668 msec
