                         Program Version 4.2.1 -  RELEASE  -
|  1> # closed shell KS, PBE0/def2-SVP/D4
|  2> ! DFT SP RKS PBE0 def2-TZVP D4 Grid6 NOFINALGRID SlowConv TightSCF printbasis
|  3>
|  4> %base "_fe6ll_xtb_dft_sg56_2_2"
|  5> %maxcore 4000
|  6> %scf
|  7>    MaxIter 2000
|  8> end
|  9>
| 10> %pal
| 11>    nprocs 48
| 12> end
| 13>
| 14> * xyzfile 0 1 fe6ll_xtb_dft_sg56_2_2.xyz
| 15>
| 16>
| 17>                          ****END OF INPUT****

CARTESIAN COORDINATES (ANGSTROEM)
---------------------------------
  H     11.889200   14.254300    5.763100
  H      6.516100    4.955800   16.368800
  H     10.130700   12.960500   10.694500
  H      7.805500    6.669700   11.449600
  H     16.555600   17.354600    4.928800
  H      8.805700   -0.136200   17.926900
  H     16.328200   14.875000    4.864600
  H      7.270500   -0.628300   16.028900
  H     14.919200   18.713200    6.224900
  H      9.529900    2.210300   18.353400
  H      9.764400   12.760000    5.813400
  H      5.737600    7.435100   15.830700
  H     13.097400   17.606500    7.493100
  H      8.764100    4.037800   16.862200
  H      8.149400   11.441900    7.184800
  H      5.934900    9.360700   14.254000
  H      8.327500   12.477800   11.691400
  H      7.474000   10.805900   13.256100
  H     14.484800   13.763300    6.113400
  H      6.504700    1.183400   14.541100
  H      8.040700    9.613100    8.470300
  H      7.093000    7.983200   10.009400
  N     10.863900   13.618700    8.886400
  N      7.153200    5.846000   13.216400
  N     12.629500   14.969300    7.576500
  N      7.174900    3.795100   14.757500
  C     11.820900   14.278100    6.857500
  C      6.741500    4.882600   15.298000
  C     10.014500   12.906100    9.613700
  C      7.307000    6.873200   12.396800
  C     15.752200   16.863300    5.482500
  C      8.462600    0.671400   17.276300
  C     15.625600   15.475200    5.447200
  C      7.608200    0.394700   16.208500
  C     14.839100   17.623800    6.213800
  C      8.868100    1.984200   17.514300
  C      9.814200   12.773800    6.903400
  C      6.186600    7.306300   14.844500
  C     13.814400   17.010300    6.929500
  C      8.427600    3.012800   16.687300
  C      8.927000   12.034000    7.670900
  C      6.309800    8.376500   13.966000
  C      8.092200   11.479200   11.317600
  C      7.583400   10.539200   12.202900
  C     14.591400   14.851000    6.140100
  C      7.173300    1.415500   15.368800
  C      7.906900    9.893100    9.516700
  C      7.389400    8.958800   10.397700
  C     10.793200   13.532800    7.543400
  C      6.646400    6.050300   14.448600
  C     13.690900   15.620100    6.888800
  C      7.576400    2.735600   15.607100
  C      9.045200   12.056700    9.067400
  C      6.922500    8.179700   12.720100
  C      8.306400   11.158300    9.967200
  C      7.263200    9.246400   11.765900

 Total Charge           Charge          ....    0
 Multiplicity           Mult            ....    1
 Number of Electrons    NEL             ....  230
 Basis Dimension        Dim             .... 1186

ORBITAL ENERGIES
----------------

  NO   OCC          E(Eh)            E(eV)
   0   2.0000     -14.389618      -391.5614
   1   2.0000     -14.389351      -391.5541
   2   2.0000     -14.387575      -391.5058
   3   2.0000     -14.385632      -391.4529
   4   2.0000     -10.274982      -279.5965
   5   2.0000     -10.274543      -279.5845
   6   2.0000     -10.274072      -279.5717
   7   2.0000     -10.273563      -279.5578
   8   2.0000     -10.268862      -279.4299
   9   2.0000     -10.267955      -279.4053
  10   2.0000     -10.260862      -279.2122
  11   2.0000     -10.260669      -279.2070
  12   2.0000     -10.260511      -279.2027
  13   2.0000     -10.259992      -279.1886
  14   2.0000     -10.259923      -279.1867
  15   2.0000     -10.259865      -279.1851
  16   2.0000     -10.259683      -279.1802
  17   2.0000     -10.259438      -279.1735
  18   2.0000     -10.253504      -279.0120
  19   2.0000     -10.252897      -278.9955
  20   2.0000     -10.249026      -278.8902
  21   2.0000     -10.248304      -278.8705
  22   2.0000     -10.247880      -278.8590
  23   2.0000     -10.247087      -278.8374
  24   2.0000     -10.228650      -278.3357
  25   2.0000     -10.228596      -278.3342
  26   2.0000     -10.228234      -278.3244
  27   2.0000     -10.228076      -278.3201
  28   2.0000     -10.227048      -278.2921
  29   2.0000     -10.226503      -278.2773
  30   2.0000     -10.224969      -278.2356
  31   2.0000     -10.224667      -278.2273
  32   2.0000     -10.224659      -278.2271
  33   2.0000     -10.223798      -278.2037
  34   2.0000      -0.991911       -26.9913
  35   2.0000      -0.991111       -26.9695
  36   2.0000      -0.957973       -26.0678
  37   2.0000      -0.956005       -26.0142
  38   2.0000      -0.913249       -24.8508
  39   2.0000      -0.875059       -23.8116
  40   2.0000      -0.873172       -23.7602
  41   2.0000      -0.862682       -23.4748
  42   2.0000      -0.840719       -22.8771
  43   2.0000      -0.826929       -22.5019
  44   2.0000      -0.815509       -22.1911
  45   2.0000      -0.791660       -21.5422
  46   2.0000      -0.784333       -21.3428
  47   2.0000      -0.769740       -20.9457
  48   2.0000      -0.769278       -20.9331
  49   2.0000      -0.763470       -20.7751
  50   2.0000      -0.749678       -20.3998
  51   2.0000      -0.708328       -19.2746
  52   2.0000      -0.684820       -18.6349
  53   2.0000      -0.680851       -18.5269
  54   2.0000      -0.666386       -18.1333
  55   2.0000      -0.646194       -17.5838
  56   2.0000      -0.633642       -17.2423
  57   2.0000      -0.632071       -17.1995
  58   2.0000      -0.625038       -17.0081
  59   2.0000      -0.622720       -16.9451
  60   2.0000      -0.613671       -16.6988
  61   2.0000      -0.591144       -16.0859
  62   2.0000      -0.589234       -16.0339
  63   2.0000      -0.567433       -15.4406
  64   2.0000      -0.552242       -15.0273
  65   2.0000      -0.545494       -14.8436
  66   2.0000      -0.539890       -14.6912
  67   2.0000      -0.522628       -14.2214
  68   2.0000      -0.520816       -14.1721
  69   2.0000      -0.507100       -13.7989
  70   2.0000      -0.502250       -13.6669
  71   2.0000      -0.490356       -13.3433
  72   2.0000      -0.483011       -13.1434
  73   2.0000      -0.476117       -12.9558
  74   2.0000      -0.475505       -12.9392
  75   2.0000      -0.471418       -12.8279
  76   2.0000      -0.470352       -12.7989
  77   2.0000      -0.469015       -12.7625
  78   2.0000      -0.459704       -12.5092
  79   2.0000      -0.452942       -12.3252
  80   2.0000      -0.450090       -12.2476
  81   2.0000      -0.447477       -12.1765
  82   2.0000      -0.445340       -12.1183
  83   2.0000      -0.437863       -11.9149
  84   2.0000      -0.433503       -11.7962
  85   2.0000      -0.432874       -11.7791
  86   2.0000      -0.431010       -11.7284
  87   2.0000      -0.424171       -11.5423
  88   2.0000      -0.421841       -11.4789
  89   2.0000      -0.408718       -11.1218
  90   2.0000      -0.400883       -10.9086
  91   2.0000      -0.387767       -10.5517
  92   2.0000      -0.385298       -10.4845
  93   2.0000      -0.381343       -10.3769
  94   2.0000      -0.373086       -10.1522
  95   2.0000      -0.371652       -10.1132
  96   2.0000      -0.369627       -10.0581
  97   2.0000      -0.365730        -9.9520
  98   2.0000      -0.362462        -9.8631
  99   2.0000      -0.353949        -9.6314
 100   2.0000      -0.345412        -9.3991
 101   2.0000      -0.320862        -8.7311
 102   2.0000      -0.312292        -8.4979
 103   2.0000      -0.308569        -8.3966
 104   2.0000      -0.305525        -8.3137
 105   2.0000      -0.299339        -8.1454
 106   2.0000      -0.287943        -7.8353
 107   2.0000      -0.279717        -7.6115
 108   2.0000      -0.277096        -7.5402
 109   2.0000      -0.272483        -7.4146
 110   2.0000      -0.266881        -7.2622
 111   2.0000      -0.266715        -7.2577
 112   2.0000      -0.245486        -6.6800
 113   2.0000      -0.234673        -6.3858
 114   2.0000      -0.229244        -6.2381
 115   0.0000      -0.090421        -2.4605
 116   0.0000      -0.070537        -1.9194
 117   0.0000      -0.041962        -1.1419
 118   0.0000      -0.034346        -0.9346
 119   0.0000      -0.026240        -0.7140

MULLIKEN ATOMIC CHARGES
-----------------------
   0 H :    0.114839
   1 H :    0.115412
   2 H :    0.120128
   3 H :    0.125072
   4 H :    0.115791
   5 H :    0.115889
   6 H :    0.116608
   7 H :    0.117256
   8 H :    0.116661
   9 H :    0.116672
  10 H :    0.126628
  11 H :    0.127315
  12 H :    0.115721
  13 H :    0.128126
  14 H :    0.136620
  15 H :    0.135389
  16 H :    0.135747
  17 H :    0.120036
  18 H :    0.123789
  19 H :    0.113581
  20 H :    0.117819
  21 H :    0.137649
  22 N :   -0.157676
  23 N :   -0.157302
  24 N :   -0.090796
  25 N :   -0.095556
  26 C :   -0.243970
  27 C :   -0.224417
  28 C :   -0.139080
  29 C :   -0.145416
  30 C :   -0.144273
  31 C :   -0.141601
  32 C :   -0.078991
  33 C :   -0.064822
  34 C :   -0.069649
  35 C :   -0.090861
  36 C :   -0.185579
  37 C :   -0.182298
  38 C :   -0.255991
  39 C :   -0.275530
  40 C :   -0.171808
  41 C :   -0.176463
  42 C :   -0.197845
  43 C :   -0.210660
  44 C :   -0.271559
  45 C :   -0.257948
  46 C :   -0.204206
  47 C :   -0.209214
  48 C :    0.347003
  49 C :    0.324582
  50 C :    0.233438
  51 C :    0.245737
  52 C :    0.113170
  53 C :    0.122977
  54 C :    0.183140
  55 C :    0.180718
Sum of atomic charges:   -0.0000000

LOEWDIN ATOMIC CHARGES
----------------------
   0 H :    0.135595
   1 H :    0.134292
   2 H :    0.146161
   3 H :    0.147517
   4 H :    0.145275
   5 H :    0.145293
   6 H :    0.146487
   7 H :    0.147134
   8 H :    0.147003
   9 H :    0.146637
  10 H :    0.153185
  11 H :    0.152739
  12 H :    0.151216
  13 H :    0.150502
  14 H :    0.154321
  15 H :    0.153985
  16 H :    0.154671
  17 H :    0.153038
  18 H :    0.150819
  19 H :    0.150957
  20 H :    0.153478
  21 H :    0.155684
  22 N :    0.198932
  23 N :    0.199859
  24 N :    0.201885
  25 N :    0.199833
  26 C :   -0.174204
  27 C :   -0.172526
  28 C :   -0.158121
  29 C :   -0.161524
  30 C :   -0.155902
  31 C :   -0.153656
  32 C :   -0.145247
  33 C :   -0.143450
  34 C :   -0.142475
  35 C :   -0.145979
  36 C :   -0.107197
  37 C :   -0.107320
  38 C :   -0.114093
  39 C :   -0.126297
  40 C :   -0.082488
  41 C :   -0.082278
  42 C :   -0.096184
  43 C :   -0.094861
  44 C :   -0.126909
  45 C :   -0.110624
  46 C :   -0.095478
  47 C :   -0.097115
  48 C :   -0.226282
  49 C :   -0.225577
  50 C :   -0.205067
  51 C :   -0.206027
  52 C :   -0.107183
  53 C :   -0.106851
  54 C :   -0.102627
  55 C :   -0.102957

  Mayer bond orders larger than 0.100000
B(  0-H , 26-C ) :   0.9876 B(  1-H , 27-C ) :   0.9815 B(  2-H , 28-C ) :   0.9851
B(  3-H , 29-C ) :   0.9823 B(  4-H , 30-C ) :   0.9624 B(  5-H , 31-C ) :   0.9627
B(  6-H , 32-C ) :   0.9599 B(  7-H , 33-C ) :   0.9627 B(  8-H , 34-C ) :   0.9623
B(  9-H , 35-C ) :   0.9577 B( 10-H , 36-C ) :   0.9687 B( 11-H , 37-C ) :   0.9668
B( 12-H , 38-C ) :   0.9733 B( 13-H , 39-C ) :   0.9601 B( 14-H , 40-C ) :   0.9519
B( 15-H , 41-C ) :   0.9554 B( 16-H , 42-C ) :   0.9489 B( 17-H , 43-C ) :   0.9523
B( 18-H , 44-C ) :   0.9686 B( 19-H , 45-C ) :   0.9743 B( 20-H , 46-C ) :   0.9487
B( 21-H , 47-C ) :   0.9488 B( 22-N , 28-C ) :   1.6184 B( 22-N , 48-C ) :   1.3194
B( 23-N , 29-C ) :   1.6231 B( 23-N , 49-C ) :   1.3108 B( 24-N , 26-C ) :   1.9197
B( 24-N , 50-C ) :   1.0523 B( 25-N , 27-C ) :   1.9240 B( 25-N , 51-C ) :   1.0704
B( 26-C , 48-C ) :   0.9245 B( 27-C , 49-C ) :   0.9436 B( 28-C , 52-C ) :   1.3049
B( 29-C , 53-C ) :   1.3029 B( 30-C , 32-C ) :   1.4211 B( 30-C , 34-C ) :   1.4087
B( 31-C , 33-C ) :   1.4065 B( 31-C , 35-C ) :   1.4238 B( 32-C , 44-C ) :   1.4096
B( 33-C , 45-C ) :   1.4371 B( 34-C , 38-C ) :   1.4274 B( 35-C , 39-C ) :   1.4229
B( 36-C , 40-C ) :   1.4420 B( 36-C , 48-C ) :   1.3414 B( 37-C , 41-C ) :   1.4376
B( 37-C , 49-C ) :   1.3480 B( 38-C , 50-C ) :   1.4066 B( 39-C , 51-C ) :   1.3550
B( 40-C , 52-C ) :   1.3883 B( 41-C , 53-C ) :   1.3834 B( 42-C , 43-C ) :   1.4696
B( 42-C , 54-C ) :   1.3518 B( 43-C , 55-C ) :   1.3704 B( 44-C , 50-C ) :   1.3652
B( 45-C , 51-C ) :   1.3957 B( 46-C , 47-C ) :   1.4732 B( 46-C , 54-C ) :   1.3666
B( 47-C , 55-C ) :   1.3483 B( 52-C , 54-C ) :   0.9346 B( 53-C , 55-C ) :   0.9323

Dispersion correction           -0.068053208
FINAL SINGLE POINT ENERGY     -1374.326873455554

DIPOLE MOMENT
-------------
                                X             Y             Z
Electronic contribution:     -5.67491       1.65481      -0.49424
Nuclear contribution   :      4.63800      -1.32988       0.32505
                        -----------------------------------------
Total Dipole Moment    :     -1.03691       0.32493      -0.16919
                        -----------------------------------------
Magnitude (a.u.)       :      1.09972
Magnitude (Debye)      :      2.79527

Rotational constants in cm-1:     0.010189     0.000838     0.000803
Rotational constants in MHz :   305.462002    25.131207    24.086895

                             ****ORCA TERMINATED NORMALLY****
TOTAL RUN TIME: 0 days 0 hours 5 minutes 11 seconds 290 msec
