                         Program Version 4.2.1 -  RELEASE  -
|  1> # closed shell KS, PBE0/def2-SVP/D4
|  2> ! DFT SP RKS PBE0 def2-TZVP D4 Grid6 NOFINALGRID SlowConv TightSCF printbasis
|  3>
|  4> %base "_fe6ll_xtb_dft_sg80_1_1"
|  5> %maxcore 4000
|  6> %scf
|  7>    MaxIter 2000
|  8> end
|  9>
| 10> %pal
| 11>    nprocs 48
| 12> end
| 13>
| 14> * xyzfile 0 1 fe6ll_xtb_dft_sg80_1_1.xyz
| 15>
| 16>
| 17>                          ****END OF INPUT****

CARTESIAN COORDINATES (ANGSTROEM)
---------------------------------
  H     11.226800    7.161900   10.310800
  H     11.290900    9.054100    7.796700
  H      4.086300    4.139800   10.882400
  H     16.014500   15.486100    9.661700
  H      9.453400    4.659600   10.672300
  H     12.316200   11.564500    9.381000
  H      1.436100    4.876100   15.934700
  H     14.597600   20.608000   11.918300
  H      1.759500    6.381600   13.973700
  H     13.263000   18.915000   13.165000
  H     12.071700    5.631100    2.805500
  H     16.975700    4.463100   10.089100
  H     13.851100    6.975600    3.917000
  H     14.820000    3.385700    9.452300
  H      2.973500    2.946800   16.275300
  H     15.706900   19.972600    9.779700
  H      5.040900    4.485200    8.523100
  H     16.902200   13.225300    8.788000
  H      4.827700    2.536000   14.703500
  H     15.414800   17.694100    8.855000
  H      6.992900    5.261600    7.181400
  H     16.473600   10.780800    8.580600
  H      3.622800    5.975900   12.390300
  H     12.983100   16.628800   12.248000
  H     10.105200    4.863700    4.109900
  H     17.130500    6.938000   10.206500
  H      8.937000    4.692300    6.241800
  H     16.089800    9.123700    9.949600
  H     13.686800    7.551700    6.309700
  H     12.868000    4.758400    8.821700
  N      7.431300    4.312000   10.897600
  N     13.579000   13.206900    9.365300
  N      5.398000    4.017100   12.501500
  N     13.963400   15.716200    9.960100
  O     10.447000    6.650200   10.035700
  O     11.952500    9.644500    8.192500
  C      5.119600    4.105600   11.247500
  C     15.007200   15.056700    9.605000
  C      8.487600    4.660700   10.170700
  C     13.347700   11.898100    9.274800
  C      2.252900    4.695800   15.231700
  C     14.471100   19.601800   11.512000
  C      2.433200    5.536400   14.133700
  C     13.711500   18.656100   12.203100
  C     11.977900    5.884800    3.863500
  C     16.106900    5.083500    9.857100
  C     12.985200    6.647300    4.496700
  C     14.886600    4.475800    9.489700
  C      3.117400    3.617300   15.424800
  C     15.089100   19.246900   10.313900
  C      6.035400    4.549800    8.968100
  C     15.901500   12.817800    8.942400
  C      4.161800    3.381000   14.535600
  C     14.932300   17.964400    9.794600
  C      7.127800    4.970900    8.225000
  C     15.657700   11.457600    8.840900
  C      3.468400    5.299000   13.234300
  C     13.535800   17.377500   11.682200
  C     10.889500    5.458000    4.585600
  C     16.196800    6.454100    9.914500
  C      9.684000    5.318100    6.735700
  C     15.167100    8.673500    9.578500
  C     12.894400    6.973500    5.832300
  C     13.792500    5.239400    9.144100
  C      6.212800    4.274900   10.322800
  C     14.841700   13.666500    9.254100
  C      4.337600    4.212900   13.423200
  C     14.133000   17.030900   10.464900
  C     10.569600    6.377200    8.717100
  C     12.935000    8.864600    8.693000
  C      8.392100    5.071000    8.828100
  C     14.367700   10.948700    9.074300
  C     10.769600    5.777000    5.963200
  C     15.084100    7.265400    9.578200
  C      9.555000    5.586300    8.088500
  C     14.141100    9.493600    9.136900
  C     11.784800    6.550200    6.601900
  C     13.869800    6.652100    9.156400
  C     11.658200    6.842100    7.997100
  C     12.801400    7.484700    8.700200

 Total Charge           Charge          ....    0
 Multiplicity           Mult            ....    1
 Number of Electrons    NEL             ....  338
 Basis Dimension        Dim             .... 1730

ORBITAL ENERGIES
----------------

  NO   OCC          E(Eh)            E(eV)
   0   2.0000     -19.256368      -523.9924
   1   2.0000     -19.256155      -523.9866
   2   2.0000     -14.386330      -391.4719
   3   2.0000     -14.385981      -391.4624
   4   2.0000     -14.382204      -391.3597
   5   2.0000     -14.381995      -391.3540
   6   2.0000     -10.314581      -280.6740
   7   2.0000     -10.314418      -280.6696
   8   2.0000     -10.270766      -279.4817
   9   2.0000     -10.270578      -279.4766
  10   2.0000     -10.270287      -279.4687
  11   2.0000     -10.270112      -279.4640
  12   2.0000     -10.264018      -279.2981
  13   2.0000     -10.263809      -279.2924
  14   2.0000     -10.262550      -279.2582
  15   2.0000     -10.262310      -279.2517
  16   2.0000     -10.259280      -279.1692
  17   2.0000     -10.258817      -279.1566
  18   2.0000     -10.258738      -279.1544
  19   2.0000     -10.258635      -279.1516
  20   2.0000     -10.258589      -279.1504
  21   2.0000     -10.257647      -279.1248
  22   2.0000     -10.255598      -279.0690
  23   2.0000     -10.254840      -279.0484
  24   2.0000     -10.254386      -279.0360
  25   2.0000     -10.253773      -279.0193
  26   2.0000     -10.252516      -278.9851
  27   2.0000     -10.252183      -278.9761
  28   2.0000     -10.251877      -278.9678
  29   2.0000     -10.251191      -278.9491
  30   2.0000     -10.247958      -278.8611
  31   2.0000     -10.247493      -278.8484
  32   2.0000     -10.244141      -278.7572
  33   2.0000     -10.243549      -278.7411
  34   2.0000     -10.242491      -278.7123
  35   2.0000     -10.242054      -278.7005
  36   2.0000     -10.239763      -278.6381
  37   2.0000     -10.239591      -278.6334
  38   2.0000     -10.239333      -278.6264
  39   2.0000     -10.239026      -278.6181
  40   2.0000     -10.227776      -278.3119
  41   2.0000     -10.227028      -278.2916
  42   2.0000     -10.226748      -278.2840
  43   2.0000     -10.226235      -278.2700
  44   2.0000     -10.225847      -278.2594
  45   2.0000     -10.225068      -278.2383
  46   2.0000     -10.223973      -278.2084
  47   2.0000     -10.223257      -278.1890
  48   2.0000     -10.223010      -278.1822
  49   2.0000     -10.222933      -278.1801
  50   2.0000      -1.119072       -30.4515
  51   2.0000      -1.115214       -30.3465
  52   2.0000      -0.985490       -26.8165
  53   2.0000      -0.984780       -26.7972
  54   2.0000      -0.952859       -25.9286
  55   2.0000      -0.952830       -25.9278
  56   2.0000      -0.928188       -25.2573
  57   2.0000      -0.916348       -24.9351
  58   2.0000      -0.876122       -23.8405
  59   2.0000      -0.875846       -23.8330
  60   2.0000      -0.870064       -23.6756
  61   2.0000      -0.869326       -23.6556
  62   2.0000      -0.856192       -23.2982
  63   2.0000      -0.835550       -22.7365
  64   2.0000      -0.827931       -22.5291
  65   2.0000      -0.815156       -22.1815
  66   2.0000      -0.812180       -22.1005
  67   2.0000      -0.799721       -21.7615
  68   2.0000      -0.780388       -21.2354
  69   2.0000      -0.779717       -21.2172
  70   2.0000      -0.768253       -20.9052
  71   2.0000      -0.767401       -20.8820
  72   2.0000      -0.766554       -20.8590
  73   2.0000      -0.758797       -20.6479
  74   2.0000      -0.753260       -20.4972
  75   2.0000      -0.743328       -20.2270
  76   2.0000      -0.701522       -19.0894
  77   2.0000      -0.699423       -19.0323
  78   2.0000      -0.688454       -18.7338
  79   2.0000      -0.667883       -18.1740
  80   2.0000      -0.662255       -18.0209
  81   2.0000      -0.659494       -17.9458
  82   2.0000      -0.645423       -17.5628
  83   2.0000      -0.645150       -17.5554
  84   2.0000      -0.640213       -17.4211
  85   2.0000      -0.627894       -17.0859
  86   2.0000      -0.626837       -17.0571
  87   2.0000      -0.619522       -16.8580
  88   2.0000      -0.618994       -16.8437
  89   2.0000      -0.612706       -16.6726
  90   2.0000      -0.588859       -16.0237
  91   2.0000      -0.588474       -16.0132
  92   2.0000      -0.585575       -15.9343
  93   2.0000      -0.583533       -15.8787
  94   2.0000      -0.559981       -15.2379
  95   2.0000      -0.555453       -15.1147
  96   2.0000      -0.554117       -15.0783
  97   2.0000      -0.543030       -14.7766
  98   2.0000      -0.541741       -14.7415
  99   2.0000      -0.540453       -14.7065
 100   2.0000      -0.523912       -14.2564
 101   2.0000      -0.520656       -14.1678
 102   2.0000      -0.505739       -13.7618
 103   2.0000      -0.501046       -13.6342
 104   2.0000      -0.496838       -13.5197
 105   2.0000      -0.495879       -13.4935
 106   2.0000      -0.488352       -13.2887
 107   2.0000      -0.487453       -13.2643
 108   2.0000      -0.479492       -13.0476
 109   2.0000      -0.478997       -13.0342
 110   2.0000      -0.476139       -12.9564
 111   2.0000      -0.471031       -12.8174
 112   2.0000      -0.470664       -12.8074
 113   2.0000      -0.470114       -12.7925
 114   2.0000      -0.464599       -12.6424
 115   2.0000      -0.459434       -12.5018
 116   2.0000      -0.454482       -12.3671
 117   2.0000      -0.453565       -12.3421
 118   2.0000      -0.451792       -12.2939
 119   2.0000      -0.446075       -12.1383
 120   2.0000      -0.444558       -12.0971
 121   2.0000      -0.441381       -12.0106
 122   2.0000      -0.438903       -11.9432
 123   2.0000      -0.434082       -11.8120
 124   2.0000      -0.433587       -11.7985
 125   2.0000      -0.430027       -11.7016
 126   2.0000      -0.429799       -11.6954
 127   2.0000      -0.427591       -11.6353
 128   2.0000      -0.421916       -11.4809
 129   2.0000      -0.421096       -11.4586
 130   2.0000      -0.420219       -11.4347
 131   2.0000      -0.418399       -11.3852
 132   2.0000      -0.414324       -11.2743
 133   2.0000      -0.412393       -11.2218
 134   2.0000      -0.405373       -11.0308
 135   2.0000      -0.395633       -10.7657
 136   2.0000      -0.392832       -10.6895
 137   2.0000      -0.383844       -10.4449
 138   2.0000      -0.382694       -10.4136
 139   2.0000      -0.371333       -10.1045
 140   2.0000      -0.370419       -10.0796
 141   2.0000      -0.369859       -10.0644
 142   2.0000      -0.369232       -10.0473
 143   2.0000      -0.366122        -9.9627
 144   2.0000      -0.362814        -9.8727
 145   2.0000      -0.362557        -9.8657
 146   2.0000      -0.353984        -9.6324
 147   2.0000      -0.352855        -9.6017
 148   2.0000      -0.349409        -9.5079
 149   2.0000      -0.340187        -9.2569
 150   2.0000      -0.337187        -9.1753
 151   2.0000      -0.319510        -8.6943
 152   2.0000      -0.310878        -8.4594
 153   2.0000      -0.307138        -8.3577
 154   2.0000      -0.305041        -8.3006
 155   2.0000      -0.301783        -8.2119
 156   2.0000      -0.298567        -8.1244
 157   2.0000      -0.286776        -7.8036
 158   2.0000      -0.285492        -7.7686
 159   2.0000      -0.268755        -7.3132
 160   2.0000      -0.265801        -7.2328
 161   2.0000      -0.264984        -7.2106
 162   2.0000      -0.264765        -7.2046
 163   2.0000      -0.250852        -6.8260
 164   2.0000      -0.249537        -6.7902
 165   2.0000      -0.240941        -6.5563
 166   2.0000      -0.239422        -6.5150
 167   2.0000      -0.232207        -6.3187
 168   2.0000      -0.226929        -6.1751
 169   0.0000      -0.083514        -2.2725
 170   0.0000      -0.082313        -2.2398
 171   0.0000      -0.054256        -1.4764
 172   0.0000      -0.052932        -1.4404
 173   0.0000      -0.031276        -0.8511

MULLIKEN ATOMIC CHARGES
-----------------------
   0 H :    0.340529
   1 H :    0.339943
   2 H :    0.117713
   3 H :    0.110064
   4 H :    0.138025
   5 H :    0.142932
   6 H :    0.115436
   7 H :    0.115961
   8 H :    0.116416
   9 H :    0.117711
  10 H :    0.120452
  11 H :    0.120647
  12 H :    0.119527
  13 H :    0.121154
  14 H :    0.117001
  15 H :    0.115511
  16 H :    0.125185
  17 H :    0.124337
  18 H :    0.113787
  19 H :    0.122331
  20 H :    0.133129
  21 H :    0.140914
  22 H :    0.129536
  23 H :    0.116831
  24 H :    0.116320
  25 H :    0.116046
  26 H :    0.128669
  27 H :    0.133127
  28 H :    0.136664
  29 H :    0.136695
  30 N :   -0.162739
  31 N :   -0.158288
  32 N :   -0.101205
  33 N :   -0.105300
  34 O :   -0.373425
  35 O :   -0.378473
  36 C :   -0.214997
  37 C :   -0.193998
  38 C :   -0.116116
  39 C :   -0.127069
  40 C :   -0.140516
  41 C :   -0.136152
  42 C :   -0.093978
  43 C :   -0.071757
  44 C :   -0.109220
  45 C :   -0.118574
  46 C :   -0.102377
  47 C :   -0.095994
  48 C :   -0.063753
  49 C :   -0.095188
  50 C :   -0.199346
  51 C :   -0.193444
  52 C :   -0.260894
  53 C :   -0.251160
  54 C :   -0.180086
  55 C :   -0.192476
  56 C :   -0.276160
  57 C :   -0.240987
  58 C :   -0.227044
  59 C :   -0.214919
  60 C :   -0.288643
  61 C :   -0.303948
  62 C :   -0.215797
  63 C :   -0.237389
  64 C :    0.311975
  65 C :    0.297137
  66 C :    0.247660
  67 C :    0.220999
  68 C :    0.314508
  69 C :    0.314456
  70 C :    0.074573
  71 C :    0.090908
  72 C :    0.102609
  73 C :    0.107023
  74 C :    0.084531
  75 C :    0.068344
  76 C :    0.169855
  77 C :    0.211443
  78 C :   -0.224627
  79 C :   -0.292574
Sum of atomic charges:   -0.0000000

LOEWDIN ATOMIC CHARGES
----------------------
   0 H :    0.200829
   1 H :    0.200465
   2 H :    0.135176
   3 H :    0.133305
   4 H :    0.148540
   5 H :    0.149002
   6 H :    0.145136
   7 H :    0.145267
   8 H :    0.146543
   9 H :    0.147192
  10 H :    0.148209
  11 H :    0.148442
  12 H :    0.149425
  13 H :    0.149861
  14 H :    0.147039
  15 H :    0.146198
  16 H :    0.152375
  17 H :    0.152211
  18 H :    0.151173
  19 H :    0.149061
  20 H :    0.154561
  21 H :    0.155019
  22 H :    0.150724
  23 H :    0.152344
  24 H :    0.151068
  25 H :    0.150699
  26 H :    0.159215
  27 H :    0.159883
  28 H :    0.161851
  29 H :    0.161311
  30 N :    0.197640
  31 N :    0.195536
  32 N :    0.198815
  33 N :    0.200050
  34 O :    0.125909
  35 O :    0.124071
  36 C :   -0.174969
  37 C :   -0.174640
  38 C :   -0.151018
  39 C :   -0.150763
  40 C :   -0.153785
  41 C :   -0.153129
  42 C :   -0.146527
  43 C :   -0.142567
  44 C :   -0.145740
  45 C :   -0.145301
  46 C :   -0.133286
  47 C :   -0.132559
  48 C :   -0.143662
  49 C :   -0.146215
  50 C :   -0.110756
  51 C :   -0.112530
  52 C :   -0.110436
  53 C :   -0.126647
  54 C :   -0.083959
  55 C :   -0.085863
  56 C :   -0.126539
  57 C :   -0.108256
  58 C :   -0.100308
  59 C :   -0.099958
  60 C :   -0.050339
  61 C :   -0.049047
  62 C :   -0.096244
  63 C :   -0.095430
  64 C :   -0.228555
  65 C :   -0.227854
  66 C :   -0.204456
  67 C :   -0.205129
  68 C :   -0.206755
  69 C :   -0.209379
  70 C :   -0.105100
  71 C :   -0.103199
  72 C :   -0.101166
  73 C :   -0.101873
  74 C :   -0.081920
  75 C :   -0.081442
  76 C :   -0.065190
  77 C :   -0.064786
  78 C :   -0.103344
  79 C :   -0.103521

  Mayer bond orders larger than 0.100000
B(  0-H , 34-O ) :   0.8441 B(  1-H , 35-O ) :   0.8444 B(  2-H , 36-C ) :   0.9794
B(  3-H , 37-C ) :   0.9634 B(  4-H , 38-C ) :   0.9783 B(  5-H , 39-C ) :   0.9766
B(  6-H , 40-C ) :   0.9629 B(  7-H , 41-C ) :   0.9628 B(  8-H , 42-C ) :   0.9577
B(  9-H , 43-C ) :   0.9628 B( 10-H , 44-C ) :   0.9673 B( 11-H , 45-C ) :   0.9671
B( 12-H , 46-C ) :   0.9687 B( 13-H , 47-C ) :   0.9679 B( 14-H , 48-C ) :   0.9629
B( 15-H , 49-C ) :   0.9583 B( 16-H , 50-C ) :   0.9647 B( 17-H , 51-C ) :   0.9649
B( 18-H , 52-C ) :   0.9746 B( 19-H , 53-C ) :   0.9643 B( 20-H , 54-C ) :   0.9522
B( 21-H , 55-C ) :   0.9456 B( 22-H , 56-C ) :   0.9608 B( 23-H , 57-C ) :   0.9711
B( 24-H , 58-C ) :   0.9827 B( 25-H , 59-C ) :   0.9817 B( 26-H , 60-C ) :   0.9616
B( 27-H , 61-C ) :   0.9573 B( 28-H , 62-C ) :   0.9513 B( 29-H , 63-C ) :   0.9527
B( 30-N , 38-C ) :   1.5996 B( 30-N , 64-C ) :   1.3460 B( 31-N , 39-C ) :   1.5999
B( 31-N , 65-C ) :   1.3537 B( 32-N , 36-C ) :   1.9097 B( 32-N , 66-C ) :   1.0768
B( 33-N , 37-C ) :   1.9036 B( 33-N , 67-C ) :   1.0639 B( 34-O , 68-C ) :   1.2231
B( 35-O , 69-C ) :   1.2045 B( 36-C , 64-C ) :   0.9531 B( 37-C , 65-C ) :   0.9667
B( 38-C , 70-C ) :   1.2771 B( 39-C , 71-C ) :   1.2811 B( 40-C , 42-C ) :   1.4237
B( 40-C , 48-C ) :   1.4070 B( 41-C , 43-C ) :   1.4077 B( 41-C , 49-C ) :   1.4228
B( 42-C , 56-C ) :   1.4217 B( 43-C , 57-C ) :   1.4303 B( 44-C , 46-C ) :   1.2671
B( 44-C , 58-C ) :   1.5341 B( 45-C , 47-C ) :   1.2711 B( 45-C , 59-C ) :   1.5340
B( 46-C , 62-C ) :   1.5432 B( 47-C , 63-C ) :   1.5443 B( 48-C , 52-C ) :   1.4353
B( 49-C , 53-C ) :   1.4171 B( 50-C , 54-C ) :   1.4495 B( 50-C , 64-C ) :   1.3407
B( 51-C , 55-C ) :   1.4557 B( 51-C , 65-C ) :   1.3457 B( 52-C , 66-C ) :   1.3988
B( 53-C , 67-C ) :   1.3611 B( 54-C , 70-C ) :   1.4095 B( 55-C , 71-C ) :   1.3989
B( 56-C , 66-C ) :   1.3479 B( 57-C , 67-C ) :   1.4147 B( 58-C , 72-C ) :   1.2213
B( 59-C , 73-C ) :   1.2208 B( 60-C , 72-C ) :   1.2296 B( 60-C , 74-C ) :   1.4749
B( 61-C , 73-C ) :   1.2284 B( 61-C , 75-C ) :   1.4758 B( 62-C , 76-C ) :   1.3063
B( 63-C , 77-C ) :   1.2979 B( 68-C , 74-C ) :   1.2615 B( 68-C , 78-C ) :   1.3444
B( 69-C , 75-C ) :   1.2608 B( 69-C , 79-C ) :   1.3468 B( 70-C , 74-C ) :   0.8959
B( 71-C , 75-C ) :   0.9075 B( 72-C , 76-C ) :   1.2876 B( 73-C , 77-C ) :   1.2722
B( 76-C , 78-C ) :   1.1212 B( 77-C , 79-C ) :   1.1238 B( 78-C , 79-C ) :   0.7409

Dispersion correction           -0.111671664
FINAL SINGLE POINT ENERGY     -2062.619293957871

DIPOLE MOMENT
-------------
                                X             Y             Z
Electronic contribution:      1.89812      -5.89946      -4.90798
Nuclear contribution   :     -0.64740       5.11018       3.26815
                        -----------------------------------------
Total Dipole Moment    :      1.25072      -0.78928      -1.63983
                        -----------------------------------------
Magnitude (a.u.)       :      2.20823
Magnitude (Debye)      :      5.61289

Rotational constants in cm-1:     0.001934     0.000750     0.000603
Rotational constants in MHz :    57.980674    22.498070    18.075541

                             ****ORCA TERMINATED NORMALLY****
TOTAL RUN TIME: 0 days 0 hours 18 minutes 12 seconds 490 msec
