                         Program Version 4.2.1 -  RELEASE  -
|  1> # closed shell KS, PBE0/def2-SVP/D4
|  2> ! DFT SP RKS PBE0 def2-TZVP D4 Grid6 NOFINALGRID SlowConv TightSCF printbasis
|  3>
|  4> %base "_fe7dd_xtb_dft_sg56_2_2"
|  5> %maxcore 4000
|  6> %scf
|  7>    MaxIter 2000
|  8> end
|  9>
| 10> %pal
| 11>    nprocs 48
| 12> end
| 13>
| 14> * xyzfile 0 1 fe7dd_xtb_dft_sg56_2_2.xyz
| 15>
| 16>
| 17>                          ****END OF INPUT****

CARTESIAN COORDINATES (ANGSTROEM)
---------------------------------
  H     11.178100   16.955100   14.004000
  H      5.003300    3.521300    9.636100
  H     10.176900   12.689000   10.864800
  H      7.716700    7.018300   12.717400
  H     16.348300   19.450200   13.624100
  H      6.522200   -2.014700    9.762300
  H     15.385300   17.843000   15.267300
  H      5.926500   -1.455000   12.114400
  H     15.374200   19.611500   11.337600
  H      6.992000   -0.185100    8.137000
  H      8.921300   15.725200   14.515800
  H      4.422500    6.029700    9.208700
  H     13.476300   18.181400   10.688700
  H      6.870400    2.184600    8.865500
  H      7.476500   13.730500   14.064000
  H      4.984400    8.423500    9.687800
  H      8.055000   12.055400    9.978500
  H      7.073400    9.855700    9.475700
  H     13.471600   16.401100   14.619700
  H      5.810300    0.896400   12.844900
  H      7.767200   11.221300   14.203200
  H      6.781100    9.022500   13.699500
  N     10.617600   14.410800   11.909800
  N      6.665500    5.570200   11.689800
  N     12.224100   16.394600   12.284900
  N      6.214300    3.060600   11.274200
  C     11.255000   16.299900   13.127900
  C      5.599700    3.873100   10.486600
  C      9.857800   13.349600   11.671800
  C      6.968900    6.836900   11.943800
  C     15.501800   18.819500   13.344100
  C      6.464300   -0.970900   10.078600
  C     14.960600   17.922300   14.264300
  C      6.134300   -0.657700   11.397500
  C     14.959100   18.907300   12.061900
  C      6.723200    0.053200    9.168300
  C      9.166300   15.024500   13.715200
  C      5.151400    6.293000    9.977800
  C     13.884500   18.104400   11.694900
  C      6.637700    1.382200    9.569700
  C      8.372400   13.911900   13.465800
  C      5.472200    7.618300   10.242000
  C      7.779000   11.391700   10.801100
  C      7.212400   10.157200   10.516400
  C     13.876100   17.126500   13.909800
  C      6.062400    0.668500   11.810600
  C      7.605600   10.930400   13.162700
  C      7.062200    9.685100   12.877500
  C     10.292600   15.241200   12.920500
  C      5.774600    5.288400   10.718500
  C     13.323100   17.220800   12.624000
  C      6.293300    1.699300   10.892100
  C      8.721200   13.037400   12.427800
  C      6.409600    7.911700   11.241500
  C      8.000700   11.788100   12.127900
  C      6.873800    9.274900   11.550200

 Total Charge           Charge          ....    0
 Multiplicity           Mult            ....    1
 Number of Electrons    NEL             ....  230
 Basis Dimension        Dim             .... 1186

ORBITAL ENERGIES
----------------

  NO   OCC          E(Eh)            E(eV)
   0   2.0000     -14.388808      -391.5394
   1   2.0000     -14.388725      -391.5371
   2   2.0000     -14.386330      -391.4719
   3   2.0000     -14.386177      -391.4678
   4   2.0000     -10.274440      -279.5817
   5   2.0000     -10.274286      -279.5775
   6   2.0000     -10.273487      -279.5558
   7   2.0000     -10.273226      -279.5487
   8   2.0000     -10.268740      -279.4266
   9   2.0000     -10.268507      -279.4203
  10   2.0000     -10.260650      -279.2065
  11   2.0000     -10.260638      -279.2062
  12   2.0000     -10.259684      -279.1802
  13   2.0000     -10.259592      -279.1777
  14   2.0000     -10.259111      -279.1646
  15   2.0000     -10.259016      -279.1620
  16   2.0000     -10.258163      -279.1388
  17   2.0000     -10.257970      -279.1336
  18   2.0000     -10.252945      -278.9968
  19   2.0000     -10.252810      -278.9931
  20   2.0000     -10.247793      -278.8566
  21   2.0000     -10.247624      -278.8520
  22   2.0000     -10.247028      -278.8358
  23   2.0000     -10.246910      -278.8326
  24   2.0000     -10.229011      -278.3456
  25   2.0000     -10.228940      -278.3436
  26   2.0000     -10.228349      -278.3275
  27   2.0000     -10.228217      -278.3239
  28   2.0000     -10.227343      -278.3001
  29   2.0000     -10.227298      -278.2989
  30   2.0000     -10.225306      -278.2447
  31   2.0000     -10.225222      -278.2424
  32   2.0000     -10.225145      -278.2404
  33   2.0000     -10.225031      -278.2372
  34   2.0000      -0.990267       -26.9465
  35   2.0000      -0.990164       -26.9437
  36   2.0000      -0.956371       -26.0242
  37   2.0000      -0.956097       -26.0167
  38   2.0000      -0.912026       -24.8175
  39   2.0000      -0.875130       -23.8135
  40   2.0000      -0.873528       -23.7699
  41   2.0000      -0.861692       -23.4478
  42   2.0000      -0.839815       -22.8525
  43   2.0000      -0.825905       -22.4740
  44   2.0000      -0.814901       -22.1746
  45   2.0000      -0.790044       -21.4982
  46   2.0000      -0.784014       -21.3341
  47   2.0000      -0.770379       -20.9631
  48   2.0000      -0.769908       -20.9503
  49   2.0000      -0.763361       -20.7721
  50   2.0000      -0.749677       -20.3998
  51   2.0000      -0.707402       -19.2494
  52   2.0000      -0.684509       -18.6264
  53   2.0000      -0.676731       -18.4148
  54   2.0000      -0.665661       -18.1135
  55   2.0000      -0.646023       -17.5792
  56   2.0000      -0.636413       -17.3177
  57   2.0000      -0.632605       -17.2141
  58   2.0000      -0.624902       -17.0044
  59   2.0000      -0.622231       -16.9318
  60   2.0000      -0.612625       -16.6704
  61   2.0000      -0.590588       -16.0707
  62   2.0000      -0.589266       -16.0347
  63   2.0000      -0.563983       -15.3468
  64   2.0000      -0.551087       -14.9958
  65   2.0000      -0.546921       -14.8825
  66   2.0000      -0.539877       -14.6908
  67   2.0000      -0.523985       -14.2584
  68   2.0000      -0.518643       -14.1130
  69   2.0000      -0.503826       -13.7098
  70   2.0000      -0.503735       -13.7073
  71   2.0000      -0.490816       -13.3558
  72   2.0000      -0.482956       -13.1419
  73   2.0000      -0.476918       -12.9776
  74   2.0000      -0.474412       -12.9094
  75   2.0000      -0.472830       -12.8664
  76   2.0000      -0.470608       -12.8059
  77   2.0000      -0.470538       -12.8040
  78   2.0000      -0.457011       -12.4359
  79   2.0000      -0.452915       -12.3245
  80   2.0000      -0.450993       -12.2721
  81   2.0000      -0.447895       -12.1878
  82   2.0000      -0.442693       -12.0463
  83   2.0000      -0.435948       -11.8628
  84   2.0000      -0.433780       -11.8038
  85   2.0000      -0.432339       -11.7646
  86   2.0000      -0.430010       -11.7012
  87   2.0000      -0.424758       -11.5582
  88   2.0000      -0.419311       -11.4100
  89   2.0000      -0.406440       -11.0598
  90   2.0000      -0.401075       -10.9138
  91   2.0000      -0.388380       -10.5684
  92   2.0000      -0.385949       -10.5022
  93   2.0000      -0.378660       -10.3039
  94   2.0000      -0.372884       -10.1467
  95   2.0000      -0.372372       -10.1328
  96   2.0000      -0.370579       -10.0840
  97   2.0000      -0.364238        -9.9114
  98   2.0000      -0.362539        -9.8652
  99   2.0000      -0.351596        -9.5674
 100   2.0000      -0.346091        -9.4176
 101   2.0000      -0.318115        -8.6564
 102   2.0000      -0.311706        -8.4819
 103   2.0000      -0.307322        -8.3627
 104   2.0000      -0.304058        -8.2738
 105   2.0000      -0.296641        -8.0720
 106   2.0000      -0.286982        -7.8092
 107   2.0000      -0.280621        -7.6361
 108   2.0000      -0.277493        -7.5510
 109   2.0000      -0.271929        -7.3996
 110   2.0000      -0.267368        -7.2755
 111   2.0000      -0.267283        -7.2731
 112   2.0000      -0.249224        -6.7817
 113   2.0000      -0.233068        -6.3421
 114   2.0000      -0.230548        -6.2735
 115   0.0000      -0.085990        -2.3399
 116   0.0000      -0.072238        -1.9657
 117   0.0000      -0.035851        -0.9755
 118   0.0000      -0.034520        -0.9393
 119   0.0000      -0.027853        -0.7579

MULLIKEN ATOMIC CHARGES
-----------------------
   0 H :    0.115624
   1 H :    0.116101
   2 H :    0.140556
   3 H :    0.141140
   4 H :    0.116041
   5 H :    0.116080
   6 H :    0.116675
   7 H :    0.117618
   8 H :    0.117587
   9 H :    0.116745
  10 H :    0.127104
  11 H :    0.127162
  12 H :    0.114292
  13 H :    0.131063
  14 H :    0.142046
  15 H :    0.142663
  16 H :    0.144065
  17 H :    0.133076
  18 H :    0.130853
  19 H :    0.114452
  20 H :    0.131956
  21 H :    0.143799
  22 N :   -0.159568
  23 N :   -0.159890
  24 N :   -0.095933
  25 N :   -0.096476
  26 C :   -0.243121
  27 C :   -0.244961
  28 C :   -0.163588
  29 C :   -0.163287
  30 C :   -0.141708
  31 C :   -0.141591
  32 C :   -0.091579
  33 C :   -0.062935
  34 C :   -0.063252
  35 C :   -0.091902
  36 C :   -0.184734
  37 C :   -0.184369
  38 C :   -0.258538
  39 C :   -0.279840
  40 C :   -0.190651
  41 C :   -0.192965
  42 C :   -0.218956
  43 C :   -0.217658
  44 C :   -0.278664
  45 C :   -0.258881
  46 C :   -0.218373
  47 C :   -0.218233
  48 C :    0.339258
  49 C :    0.340261
  50 C :    0.248822
  51 C :    0.250331
  52 C :    0.135711
  53 C :    0.137333
  54 C :    0.187242
  55 C :    0.185996
Sum of atomic charges:   -0.0000000

LOEWDIN ATOMIC CHARGES
----------------------
   0 H :    0.134536
   1 H :    0.134725
   2 H :    0.148541
   3 H :    0.148620
   4 H :    0.145342
   5 H :    0.145376
   6 H :    0.146603
   7 H :    0.147253
   8 H :    0.147246
   9 H :    0.146609
  10 H :    0.152782
  11 H :    0.152862
  12 H :    0.151260
  13 H :    0.150797
  14 H :    0.155732
  15 H :    0.155937
  16 H :    0.156604
  17 H :    0.154888
  18 H :    0.150726
  19 H :    0.151321
  20 H :    0.154659
  21 H :    0.156628
  22 N :    0.198374
  23 N :    0.198310
  24 N :    0.199305
  25 N :    0.199115
  26 C :   -0.174175
  27 C :   -0.174648
  28 C :   -0.160623
  29 C :   -0.160358
  30 C :   -0.152826
  31 C :   -0.152673
  32 C :   -0.145915
  33 C :   -0.143297
  34 C :   -0.143361
  35 C :   -0.145993
  36 C :   -0.106970
  37 C :   -0.106894
  38 C :   -0.109952
  39 C :   -0.126437
  40 C :   -0.083013
  41 C :   -0.082922
  42 C :   -0.097102
  43 C :   -0.096188
  44 C :   -0.126315
  45 C :   -0.109684
  46 C :   -0.095911
  47 C :   -0.097025
  48 C :   -0.226438
  49 C :   -0.226834
  50 C :   -0.205787
  51 C :   -0.205728
  52 C :   -0.107911
  53 C :   -0.108045
  54 C :   -0.105379
  55 C :   -0.105745

  Mayer bond orders larger than 0.100000
B(  0-H , 26-C ) :   0.9839 B(  1-H , 27-C ) :   0.9838 B(  2-H , 28-C ) :   0.9800
B(  3-H , 29-C ) :   0.9798 B(  4-H , 30-C ) :   0.9627 B(  5-H , 31-C ) :   0.9627
B(  6-H , 32-C ) :   0.9577 B(  7-H , 33-C ) :   0.9628 B(  8-H , 34-C ) :   0.9626
B(  9-H , 35-C ) :   0.9577 B( 10-H , 36-C ) :   0.9675 B( 11-H , 37-C ) :   0.9673
B( 12-H , 38-C ) :   0.9742 B( 13-H , 39-C ) :   0.9593 B( 14-H , 40-C ) :   0.9601
B( 15-H , 41-C ) :   0.9604 B( 16-H , 42-C ) :   0.9565 B( 17-H , 43-C ) :   0.9550
B( 18-H , 44-C ) :   0.9591 B( 19-H , 45-C ) :   0.9743 B( 20-H , 46-C ) :   0.9551
B( 21-H , 47-C ) :   0.9574 B( 22-N , 28-C ) :   1.6073 B( 22-N , 48-C ) :   1.3244
B( 23-N , 29-C ) :   1.6056 B( 23-N , 49-C ) :   1.3264 B( 24-N , 26-C ) :   1.9267
B( 24-N , 50-C ) :   1.0729 B( 25-N , 27-C ) :   1.9257 B( 25-N , 51-C ) :   1.0744
B( 26-C , 48-C ) :   0.9333 B( 27-C , 49-C ) :   0.9328 B( 28-C , 52-C ) :   1.3141
B( 29-C , 53-C ) :   1.3145 B( 30-C , 32-C ) :   1.4237 B( 30-C , 34-C ) :   1.4073
B( 31-C , 33-C ) :   1.4075 B( 31-C , 35-C ) :   1.4236 B( 32-C , 44-C ) :   1.4238
B( 33-C , 45-C ) :   1.4362 B( 34-C , 38-C ) :   1.4369 B( 35-C , 39-C ) :   1.4237
B( 36-C , 40-C ) :   1.4318 B( 36-C , 48-C ) :   1.3451 B( 37-C , 41-C ) :   1.4317
B( 37-C , 49-C ) :   1.3446 B( 38-C , 50-C ) :   1.3971 B( 39-C , 51-C ) :   1.3490
B( 40-C , 52-C ) :   1.3845 B( 41-C , 53-C ) :   1.3848 B( 42-C , 43-C ) :   1.4486
B( 42-C , 54-C ) :   1.3506 B( 43-C , 55-C ) :   1.3712 B( 44-C , 50-C ) :   1.3509
B( 45-C , 51-C ) :   1.3972 B( 46-C , 47-C ) :   1.4488 B( 46-C , 54-C ) :   1.3722
B( 47-C , 55-C ) :   1.3522 B( 52-C , 54-C ) :   0.8890 B( 53-C , 55-C ) :   0.8849

Dispersion correction           -0.067959581
FINAL SINGLE POINT ENERGY     -1374.331219352486

DIPOLE MOMENT
-------------
                                X             Y             Z
Electronic contribution:     -3.81367       1.73731       0.15105
Nuclear contribution   :      2.46681      -1.13473      -0.10665
                        -----------------------------------------
Total Dipole Moment    :     -1.34686       0.60257       0.04440
                        -----------------------------------------
Magnitude (a.u.)       :      1.47617
Magnitude (Debye)      :      3.75213

Rotational constants in cm-1:     0.012420     0.000799     0.000776
Rotational constants in MHz :   372.342532    23.949558    23.278724

                             ****ORCA TERMINATED NORMALLY****
TOTAL RUN TIME: 0 days 0 hours 5 minutes 14 seconds 636 msec
