                         Program Version 4.2.1 -  RELEASE  -
|  1> # closed shell KS, PBE0/def2-SVP/D4
|  2> ! DFT SP RKS PBE0 def2-TZVP D4 Grid6 NOFINALGRID SlowConv TightSCF printbasis
|  3>
|  4> %base "_fe7dd_xtb_dft_sg86_1_1"
|  5> %maxcore 4000
|  6> %scf
|  7>    MaxIter 2000
|  8> end
|  9>
| 10> %pal
| 11>    nprocs 48
| 12> end
| 13>
| 14> * xyzfile 0 1 fe7dd_xtb_dft_sg86_1_1.xyz
| 15>
| 16>
| 17>                          ****END OF INPUT****

CARTESIAN COORDINATES (ANGSTROEM)
---------------------------------
  H      9.634000   15.767100    8.032500
  H      9.141100    0.866500   13.489700
  H     13.062200   12.237000   10.235000
  H      8.886900    5.298100   10.428200
  H      7.391700   19.851100   11.407900
  H      6.670300    0.968600   18.671400
  H      6.485800   17.680600   10.583000
  H      4.817600    1.250100   17.032400
  H     17.895600    7.535900    9.351500
  H     12.354600    4.426400    3.004600
  H     16.575000    5.477600    8.861400
  H     13.276000    6.699800    3.426300
  H      9.855800   20.206400   11.497900
  H      9.023100    1.383000   17.960500
  H     10.202100   13.719800    6.527300
  H     10.527800    0.741100   11.284400
  H     11.398000   18.417900   10.794000
  H      9.510100    2.081600   15.627900
  H     11.239800   11.441800    6.409100
  H     11.464400    2.016300    9.340800
  H      8.036900   15.881100    9.864500
  H      5.295800    1.946000   14.715800
  H     16.786900    9.758700    9.258000
  H     11.274200    3.163300    4.843100
  H     14.784200   11.107400    8.869900
  H     10.612200    3.005100    7.195800
  H     14.190000    5.617700    8.305300
  H     13.127500    7.721400    5.667900
  H      9.973100    7.783900    6.823900
  H      9.643300    7.891900    8.591400
  H      8.872200    9.042200    7.446400
  H     11.816900    6.801800   11.975500
  H     13.104000    6.727400   10.732700
  H     12.311000    5.222000   11.287500
  N     11.873400   13.732800    9.458200
  N      8.767000    3.605200   11.606500
  N     10.678400   15.999200    9.824700
  N      7.757600    2.415700   13.684100
  O     10.802200    9.425500    7.812200
  O     11.132800    6.466200   10.093800
  C     10.399400   15.392600    8.723500
  C      8.703000    1.785500   13.080200
  C     12.441900   12.533600    9.387800
  C      9.276400    4.293100   10.589500
  C      8.071300   19.059100   11.086000
  C      6.888800    1.271800   17.645100
  C      7.564900   17.846000   10.621500
  C      5.850200    1.433200   16.727500
  C     16.832400    7.616300    9.116800
  C     12.277200    4.863400    4.002000
  C     16.082800    6.452600    8.840200
  C     12.799600    6.153700    4.243300
  C      9.451500   19.256600   11.141300
  C      8.205000    1.499900   17.246600
  C     10.839900   13.349000    7.332200
  C     10.187400    1.753500   11.058500
  C     10.324100   18.250700   10.740300
  C      8.482100    1.877100   15.936400
  C     11.416200   12.088300    7.268900
  C     10.700600    2.463300    9.981300
  C      8.432100   16.841400   10.204000
  C      6.117900    1.824000   15.419100
  C     16.218100    8.844600    9.068500
  C     11.678600    4.162500    5.021100
  C     14.194600   10.204700    8.690200
  C     10.988400    4.013300    7.387300
  C     14.743800    6.530000    8.528600
  C     12.715600    6.726000    5.492700
  C     11.070100   14.141500    8.457600
  C      9.231700    2.364700   11.866700
  C      9.819600   17.041600   10.249600
  C      7.440100    2.030800   15.010600
  C     12.084300    9.135900    8.105000
  C     11.344900    5.891200    8.871500
  C     12.229700   11.645500    8.323800
  C     10.273900    3.777600    9.744000
  C     14.839800    8.952200    8.755000
  C     11.577900    4.724200    6.319300
  C     12.862100   10.316300    8.366100
  C     10.854300    4.569500    8.645000
  C     14.075000    7.780500    8.482000
  C     12.101500    6.030700    6.563200
  C     12.675200    7.882900    8.169300
  C     11.986300    6.595300    7.871200
  C      9.782500    8.467000    7.663700
  C     12.149700    6.290900   11.063000

 Total Charge           Charge          ....    0
 Multiplicity           Mult            ....    1
 Number of Electrons    NEL             ....  354
 Basis Dimension        Dim             .... 1816

ORBITAL ENERGIES
----------------

  NO   OCC          E(Eh)            E(eV)
   0   2.0000     -19.249664      -523.8100
   1   2.0000     -19.237131      -523.4689
   2   2.0000     -14.388478      -391.5304
   3   2.0000     -14.385363      -391.4456
   4   2.0000     -14.382960      -391.3802
   5   2.0000     -14.377970      -391.2445
   6   2.0000     -10.306430      -280.4522
   7   2.0000     -10.299057      -280.2516
   8   2.0000     -10.276504      -279.6379
   9   2.0000     -10.273621      -279.5594
  10   2.0000     -10.273067      -279.5444
  11   2.0000     -10.272641      -279.5328
  12   2.0000     -10.267993      -279.4063
  13   2.0000     -10.267755      -279.3998
  14   2.0000     -10.266380      -279.3624
  15   2.0000     -10.260948      -279.2146
  16   2.0000     -10.260367      -279.1988
  17   2.0000     -10.259989      -279.1885
  18   2.0000     -10.258523      -279.1486
  19   2.0000     -10.258099      -279.1371
  20   2.0000     -10.256252      -279.0868
  21   2.0000     -10.254737      -279.0456
  22   2.0000     -10.254252      -279.0324
  23   2.0000     -10.252942      -278.9967
  24   2.0000     -10.251668      -278.9621
  25   2.0000     -10.251123      -278.9472
  26   2.0000     -10.251077      -278.9460
  27   2.0000     -10.250682      -278.9353
  28   2.0000     -10.249438      -278.9014
  29   2.0000     -10.248916      -278.8872
  30   2.0000     -10.248162      -278.8667
  31   2.0000     -10.243762      -278.7469
  32   2.0000     -10.243451      -278.7385
  33   2.0000     -10.243368      -278.7362
  34   2.0000     -10.241626      -278.6888
  35   2.0000     -10.241246      -278.6785
  36   2.0000     -10.240938      -278.6701
  37   2.0000     -10.239752      -278.6378
  38   2.0000     -10.237108      -278.5659
  39   2.0000     -10.235883      -278.5325
  40   2.0000     -10.233271      -278.4615
  41   2.0000     -10.233100      -278.4568
  42   2.0000     -10.228426      -278.3296
  43   2.0000     -10.227890      -278.3150
  44   2.0000     -10.226646      -278.2812
  45   2.0000     -10.225038      -278.2374
  46   2.0000     -10.224747      -278.2295
  47   2.0000     -10.224445      -278.2213
  48   2.0000     -10.224425      -278.2207
  49   2.0000     -10.222929      -278.1800
  50   2.0000     -10.221206      -278.1332
  51   2.0000     -10.220769      -278.1213
  52   2.0000      -1.114338       -30.3227
  53   2.0000      -1.101082       -29.9620
  54   2.0000      -0.988118       -26.8881
  55   2.0000      -0.982321       -26.7303
  56   2.0000      -0.955287       -25.9947
  57   2.0000      -0.949902       -25.8481
  58   2.0000      -0.925015       -25.1709
  59   2.0000      -0.911410       -24.8007
  60   2.0000      -0.876572       -23.8527
  61   2.0000      -0.872056       -23.7298
  62   2.0000      -0.870756       -23.6945
  63   2.0000      -0.866370       -23.5751
  64   2.0000      -0.852877       -23.2080
  65   2.0000      -0.834339       -22.7035
  66   2.0000      -0.826150       -22.4807
  67   2.0000      -0.815341       -22.1865
  68   2.0000      -0.808716       -22.0063
  69   2.0000      -0.798136       -21.7184
  70   2.0000      -0.784488       -21.3470
  71   2.0000      -0.782472       -21.2921
  72   2.0000      -0.770237       -20.9592
  73   2.0000      -0.768464       -20.9110
  74   2.0000      -0.766526       -20.8582
  75   2.0000      -0.763449       -20.7745
  76   2.0000      -0.753174       -20.4949
  77   2.0000      -0.743321       -20.2268
  78   2.0000      -0.729698       -19.8561
  79   2.0000      -0.714042       -19.4301
  80   2.0000      -0.699320       -19.0295
  81   2.0000      -0.691122       -18.8064
  82   2.0000      -0.667933       -18.1754
  83   2.0000      -0.664469       -18.0811
  84   2.0000      -0.656527       -17.8650
  85   2.0000      -0.645288       -17.5592
  86   2.0000      -0.640010       -17.4156
  87   2.0000      -0.636177       -17.3113
  88   2.0000      -0.632650       -17.2153
  89   2.0000      -0.627794       -17.0831
  90   2.0000      -0.623099       -16.9554
  91   2.0000      -0.620920       -16.8961
  92   2.0000      -0.615429       -16.7467
  93   2.0000      -0.603822       -16.4308
  94   2.0000      -0.589149       -16.0316
  95   2.0000      -0.584681       -15.9100
  96   2.0000      -0.559664       -15.2292
  97   2.0000      -0.557371       -15.1668
  98   2.0000      -0.555231       -15.1086
  99   2.0000      -0.551624       -15.0105
 100   2.0000      -0.550588       -14.9823
 101   2.0000      -0.542687       -14.7673
 102   2.0000      -0.539689       -14.6857
 103   2.0000      -0.537566       -14.6279
 104   2.0000      -0.524551       -14.2738
 105   2.0000      -0.516311       -14.0495
 106   2.0000      -0.504958       -13.7406
 107   2.0000      -0.501429       -13.6446
 108   2.0000      -0.497442       -13.5361
 109   2.0000      -0.495394       -13.4804
 110   2.0000      -0.492602       -13.4044
 111   2.0000      -0.487371       -13.2620
 112   2.0000      -0.483990       -13.1700
 113   2.0000      -0.479399       -13.0451
 114   2.0000      -0.478044       -13.0082
 115   2.0000      -0.474632       -12.9154
 116   2.0000      -0.472811       -12.8659
 117   2.0000      -0.470222       -12.7954
 118   2.0000      -0.468573       -12.7505
 119   2.0000      -0.467934       -12.7331
 120   2.0000      -0.464146       -12.6300
 121   2.0000      -0.455541       -12.3959
 122   2.0000      -0.451697       -12.2913
 123   2.0000      -0.451539       -12.2870
 124   2.0000      -0.449041       -12.2190
 125   2.0000      -0.445391       -12.1197
 126   2.0000      -0.444200       -12.0873
 127   2.0000      -0.442164       -12.0319
 128   2.0000      -0.437321       -11.9001
 129   2.0000      -0.436177       -11.8690
 130   2.0000      -0.432292       -11.7633
 131   2.0000      -0.431833       -11.7508
 132   2.0000      -0.428693       -11.6653
 133   2.0000      -0.424063       -11.5393
 134   2.0000      -0.422067       -11.4850
 135   2.0000      -0.420101       -11.4315
 136   2.0000      -0.417969       -11.3735
 137   2.0000      -0.414745       -11.2858
 138   2.0000      -0.402128       -10.9425
 139   2.0000      -0.397241       -10.8095
 140   2.0000      -0.393489       -10.7074
 141   2.0000      -0.386181       -10.5085
 142   2.0000      -0.384565       -10.4645
 143   2.0000      -0.381669       -10.3857
 144   2.0000      -0.378702       -10.3050
 145   2.0000      -0.373532       -10.1643
 146   2.0000      -0.372142       -10.1265
 147   2.0000      -0.369917       -10.0660
 148   2.0000      -0.368484       -10.0270
 149   2.0000      -0.365783        -9.9535
 150   2.0000      -0.364686        -9.9236
 151   2.0000      -0.360758        -9.8167
 152   2.0000      -0.355488        -9.6733
 153   2.0000      -0.354654        -9.6506
 154   2.0000      -0.345355        -9.3976
 155   2.0000      -0.342177        -9.3111
 156   2.0000      -0.339250        -9.2315
 157   2.0000      -0.327999        -8.9253
 158   2.0000      -0.313215        -8.5230
 159   2.0000      -0.308296        -8.3891
 160   2.0000      -0.306299        -8.3348
 161   2.0000      -0.303420        -8.2565
 162   2.0000      -0.300632        -8.1806
 163   2.0000      -0.298645        -8.1265
 164   2.0000      -0.294541        -8.0149
 165   2.0000      -0.287938        -7.8352
 166   2.0000      -0.276965        -7.5366
 167   2.0000      -0.271907        -7.3990
 168   2.0000      -0.269132        -7.3235
 169   2.0000      -0.266738        -7.2583
 170   2.0000      -0.263247        -7.1633
 171   2.0000      -0.258287        -7.0283
 172   2.0000      -0.242134        -6.5888
 173   2.0000      -0.240450        -6.5430
 174   2.0000      -0.231701        -6.3049
 175   2.0000      -0.228926        -6.2294
 176   2.0000      -0.225993        -6.1496
 177   0.0000      -0.080510        -2.1908
 178   0.0000      -0.074484        -2.0268
 179   0.0000      -0.055922        -1.5217
 180   0.0000      -0.046292        -1.2597
 181   0.0000      -0.033196        -0.9033

MULLIKEN ATOMIC CHARGES
-----------------------
   0 H :    0.114832
   1 H :    0.114118
   2 H :    0.140309
   3 H :    0.136531
   4 H :    0.114653
   5 H :    0.115821
   6 H :    0.115667
   7 H :    0.117544
   8 H :    0.117083
   9 H :    0.120260
  10 H :    0.115859
  11 H :    0.120053
  12 H :    0.116295
  13 H :    0.116505
  14 H :    0.122680
  15 H :    0.125884
  16 H :    0.113132
  17 H :    0.129301
  18 H :    0.127659
  19 H :    0.143673
  20 H :    0.129714
  21 H :    0.114217
  22 H :    0.117080
  23 H :    0.117026
  24 H :    0.137626
  25 H :    0.127822
  26 H :    0.132102
  27 H :    0.138691
  28 H :    0.127355
  29 H :    0.135959
  30 H :    0.143380
  31 H :    0.142641
  32 H :    0.149496
  33 H :    0.122665
  34 N :   -0.163078
  35 N :   -0.160723
  36 N :   -0.098087
  37 N :   -0.093102
  38 O :   -0.232091
  39 O :   -0.306384
  40 C :   -0.237464
  41 C :   -0.255805
  42 C :   -0.174036
  43 C :   -0.111950
  44 C :   -0.142059
  45 C :   -0.143698
  46 C :   -0.091162
  47 C :   -0.062496
  48 C :   -0.126949
  49 C :   -0.103677
  50 C :   -0.082994
  51 C :   -0.105133
  52 C :   -0.063153
  53 C :   -0.086896
  54 C :   -0.189615
  55 C :   -0.192410
  56 C :   -0.259184
  57 C :   -0.278093
  58 C :   -0.163867
  59 C :   -0.201189
  60 C :   -0.280003
  61 C :   -0.262761
  62 C :   -0.216338
  63 C :   -0.228810
  64 C :   -0.370188
  65 C :   -0.385081
  66 C :   -0.253059
  67 C :   -0.222759
  68 C :    0.333863
  69 C :    0.346075
  70 C :    0.248598
  71 C :    0.250599
  72 C :    0.219335
  73 C :    0.259415
  74 C :    0.086139
  75 C :    0.028538
  76 C :    0.168237
  77 C :    0.188733
  78 C :    0.182455
  79 C :    0.168737
  80 C :   -0.011269
  81 C :    0.120612
  82 C :    0.097847
  83 C :   -0.172511
  84 C :   -0.215781
  85 C :   -0.228960
Sum of atomic charges:   -0.0000000

LOEWDIN ATOMIC CHARGES
----------------------
   0 H :    0.134227
   1 H :    0.134820
   2 H :    0.147522
   3 H :    0.148998
   4 H :    0.144837
   5 H :    0.145303
   6 H :    0.146288
   7 H :    0.147176
   8 H :    0.147072
   9 H :    0.148240
  10 H :    0.147853
  11 H :    0.149061
  12 H :    0.146797
  13 H :    0.146537
  14 H :    0.151558
  15 H :    0.152674
  16 H :    0.150963
  17 H :    0.150680
  18 H :    0.156175
  19 H :    0.156462
  20 H :    0.150666
  21 H :    0.151165
  22 H :    0.151486
  23 H :    0.151067
  24 H :    0.161362
  25 H :    0.158740
  26 H :    0.162252
  27 H :    0.162196
  28 H :    0.120771
  29 H :    0.122116
  30 H :    0.117665
  31 H :    0.119529
  32 H :    0.119018
  33 H :    0.111858
  34 N :    0.194870
  35 N :    0.196420
  36 N :    0.198101
  37 N :    0.199661
  38 O :    0.281715
  39 O :    0.237404
  40 C :   -0.174042
  41 C :   -0.174959
  42 C :   -0.162137
  43 C :   -0.152283
  44 C :   -0.154419
  45 C :   -0.153669
  46 C :   -0.146795
  47 C :   -0.143057
  48 C :   -0.149482
  49 C :   -0.142544
  50 C :   -0.141975
  51 C :   -0.136868
  52 C :   -0.144175
  53 C :   -0.146053
  54 C :   -0.110484
  55 C :   -0.110630
  56 C :   -0.110707
  57 C :   -0.126640
  58 C :   -0.075215
  59 C :   -0.085485
  60 C :   -0.126543
  61 C :   -0.110612
  62 C :   -0.101099
  63 C :   -0.101817
  64 C :   -0.057023
  65 C :   -0.058695
  66 C :   -0.106198
  67 C :   -0.093789
  68 C :   -0.229367
  69 C :   -0.227188
  70 C :   -0.206234
  71 C :   -0.205284
  72 C :   -0.179146
  73 C :   -0.198980
  74 C :   -0.103829
  75 C :   -0.107718
  76 C :   -0.102504
  77 C :   -0.097209
  78 C :   -0.077716
  79 C :   -0.083004
  80 C :   -0.064973
  81 C :   -0.066835
  82 C :   -0.056455
  83 C :   -0.062840
  84 C :   -0.323387
  85 C :   -0.331240

  Mayer bond orders larger than 0.100000
B(  0-H , 40-C ) :   0.9814 B(  1-H , 41-C ) :   0.9865 B(  2-H , 42-C ) :   0.9823
B(  3-H , 43-C ) :   0.9822 B(  4-H , 44-C ) :   0.9632 B(  5-H , 45-C ) :   0.9627
B(  6-H , 46-C ) :   0.9580 B(  7-H , 47-C ) :   0.9625 B(  8-H , 48-C ) :   0.9713
B(  9-H , 49-C ) :   0.9679 B( 10-H , 50-C ) :   0.9715 B( 11-H , 51-C ) :   0.9686
B( 12-H , 52-C ) :   0.9632 B( 13-H , 53-C ) :   0.9580 B( 14-H , 54-C ) :   0.9694
B( 15-H , 55-C ) :   0.9709 B( 16-H , 56-C ) :   0.9745 B( 17-H , 57-C ) :   0.9608
B( 18-H , 58-C ) :   0.9706 B( 19-H , 59-C ) :   0.9596 B( 20-H , 60-C ) :   0.9606
B( 21-H , 61-C ) :   0.9749 B( 22-H , 62-C ) :   0.9845 B( 23-H , 63-C ) :   0.9860
B( 24-H , 64-C ) :   0.9900 B( 25-H , 65-C ) :   0.9933 B( 26-H , 66-C ) :   0.9512
B( 27-H , 67-C ) :   0.9527 B( 28-H , 84-C ) :   0.9567 B( 29-H , 84-C ) :   0.9638
B( 30-H , 84-C ) :   0.9624 B( 31-H , 85-C ) :   0.9705 B( 32-H , 85-C ) :   0.9630
B( 33-H , 85-C ) :   0.9661 B( 34-N , 42-C ) :   1.6003 B( 34-N , 68-C ) :   1.3387
B( 35-N , 43-C ) :   1.6056 B( 35-N , 69-C ) :   1.3266 B( 36-N , 40-C ) :   1.9226
B( 36-N , 70-C ) :   1.0765 B( 37-N , 41-C ) :   1.9392 B( 37-N , 71-C ) :   1.0695
B( 38-O , 72-C ) :   1.2098 B( 38-O , 84-C ) :   0.9410 B( 39-O , 73-C ) :   1.0022
B( 39-O , 85-C ) :   0.9361 B( 40-C , 68-C ) :   0.9403 B( 41-C , 69-C ) :   0.9284
B( 42-C , 74-C ) :   1.3244 B( 43-C , 75-C ) :   1.2868 B( 44-C , 46-C ) :   1.4233
B( 44-C , 52-C ) :   1.4064 B( 45-C , 47-C ) :   1.4072 B( 45-C , 53-C ) :   1.4241
B( 46-C , 60-C ) :   1.4210 B( 47-C , 61-C ) :   1.4346 B( 48-C , 50-C ) :   1.2737
B( 48-C , 62-C ) :   1.5181 B( 49-C , 51-C ) :   1.2668 B( 49-C , 63-C ) :   1.5320
B( 50-C , 66-C ) :   1.5415 B( 51-C , 67-C ) :   1.5464 B( 52-C , 56-C ) :   1.4362
B( 53-C , 57-C ) :   1.4185 B( 54-C , 58-C ) :   1.4340 B( 54-C , 68-C ) :   1.3319
B( 55-C , 59-C ) :   1.4276 B( 55-C , 69-C ) :   1.3492 B( 56-C , 70-C ) :   1.3987
B( 57-C , 71-C ) :   1.3534 B( 58-C , 74-C ) :   1.3663 B( 59-C , 75-C ) :   1.4229
B( 60-C , 70-C ) :   1.3501 B( 61-C , 71-C ) :   1.3970 B( 62-C , 76-C ) :   1.2250
B( 63-C , 77-C ) :   1.2237 B( 64-C , 76-C ) :   1.1751 B( 64-C , 78-C ) :   1.4921
B( 65-C , 77-C ) :   1.1865 B( 65-C , 79-C ) :   1.4569 B( 66-C , 80-C ) :   1.2959
B( 66-C , 82-C ) :  -0.1124 B( 67-C , 81-C ) :   1.3113 B( 72-C , 78-C ) :   1.2027
B( 72-C , 82-C ) :   1.3120 B( 73-C , 79-C ) :   1.2466 B( 73-C , 83-C ) :   1.3873
B( 74-C , 78-C ) :   0.8567 B( 75-C , 79-C ) :   0.8268 B( 76-C , 80-C ) :   1.3317
B( 77-C , 81-C ) :   1.2749 B( 80-C , 82-C ) :   1.0348 B( 81-C , 83-C ) :   1.0892
B( 82-C , 83-C ) :   0.5291

Dispersion correction           -0.122273042
FINAL SINGLE POINT ENERGY     -2141.136601123492

DIPOLE MOMENT
-------------
                                X             Y             Z
Electronic contribution:      3.08147       1.39519      -7.11032
Nuclear contribution   :     -2.25000      -3.27955       5.47283
                        -----------------------------------------
Total Dipole Moment    :      0.83147      -1.88436      -1.63748
                        -----------------------------------------
Magnitude (a.u.)       :      2.63125
Magnitude (Debye)      :      6.68811

Rotational constants in cm-1:     0.001771     0.000786     0.000609
Rotational constants in MHz :    53.082236    23.554289    18.255337

                             ****ORCA TERMINATED NORMALLY****
TOTAL RUN TIME: 0 days 0 hours 19 minutes 5 seconds 286 msec
