                         Program Version 4.2.1 -  RELEASE  -
|  1> # closed shell KS, PBE0/def2-SVP/D4
|  2> ! DFT SP RKS PBE0 def2-TZVP D4 Grid6 NOFINALGRID SlowConv TightSCF printbasis
|  3>
|  4> %base "_fe7dd_xtb_dft_sg86_1_0"
|  5> %maxcore 4000
|  6> %scf
|  7>    MaxIter 2000
|  8> end
|  9>
| 10> %pal
| 11>    nprocs 48
| 12> end
| 13>
| 14> * xyzfile 0 1 fe7dd_xtb_dft_sg86_1_0.xyz
| 15>
| 16>
| 17>                          ****END OF INPUT****

CARTESIAN COORDINATES (ANGSTROEM)
---------------------------------
  H     15.659600   15.729300    9.825400
  H      5.232900    5.292700   15.658500
  H     12.377800   12.897400   13.034100
  H     10.004000    5.139900   13.153300
  H     13.636000   17.724700    4.845600
  H      0.477200    4.342200   12.589400
  H     14.910700   15.652700    5.385500
  H      1.839000    2.272500   12.338000
  H     12.307800   18.855600    6.623400
  H      1.553700    6.439100   13.400200
  H     15.826700   10.649400   20.179500
  H     16.748100    4.660400   13.527000
  H     14.734800    8.454100   19.750200
  H     17.447000    6.995000   14.057400
  H     16.810400   14.727100   11.937600
  H      7.221300    6.209000   17.056400
  H     12.241600   17.932000    8.907300
  H      3.975600    6.461200   13.941600
  H     16.603800   13.133400   13.862000
  H      9.612800    6.957900   17.043700
  H     15.911700   12.365700   18.394200
  H     14.363000    4.006300   13.772300
  H     13.726100    7.961000   17.551400
  H     15.805600    8.660900   14.797800
  H     14.848300   14.720200    7.686600
  H      4.246000    2.292200   12.873000
  H     15.431500   13.046400   16.087600
  H     12.059300    4.591800   14.345900
  H     14.619800   10.457400   11.913700
  H     14.129700    8.839900   12.501200
  H     13.080800    9.728000   11.353200
  H     11.087100   10.555100   14.893400
  H     11.482100   10.330800   16.636500
  H      9.778600   10.330900   16.102100
  N     13.486800   14.138400   11.809600
  N      8.146900    5.011500   14.040900
  N     13.574000   15.737100    9.764500
  N      5.638900    4.409900   13.811600
  O     13.018400   10.439300   13.254300
  O     10.754400    8.646800   15.638800
  C     14.709500   15.432700   10.287300
  C      5.976200    4.990400   14.910500
  C     13.375700   13.278100   12.816700
  C      9.421300    5.387500   14.042000
  C     13.613300   17.313900    5.857300
  C      1.541300    4.353800   12.835100
  C     14.329400   16.157000    6.160300
  C      2.305200    3.195400   12.689500
  C     12.866700   17.945600    6.852300
  C      2.142900    5.525800   13.291400
  C     15.383100   10.449600   19.202200
  C     16.001800    5.391700   13.843800
  C     14.763500    9.204000   18.956700
  C     16.394800    6.714000   14.143000
  C     15.844500   14.300300   12.215100
  C      7.874100    5.996100   16.207400
  C     12.829700   17.427600    8.142800
  C      3.496800    5.536400   13.611100
  C     15.723600   13.420300   13.282200
  C      9.198400    6.409700   16.197700
  C     15.431000   11.401600   18.212400
  C     14.682100    5.031900   13.975200
  C     14.198900    8.927900   17.731700
  C     15.474000    7.650300   14.557400
  C     14.308500   15.640700    7.452200
  C      3.662300    3.202500   12.994000
  C     14.922800   12.097700   15.897500
  C     12.355500    5.625300   14.542700
  C     14.704200   14.622500   11.483400
  C      7.369900    5.316800   15.097800
  C     13.567500   16.280900    8.455500
  C      4.263800    4.369700   13.476600
  C     13.671000   10.625600   14.441300
  C     11.797400    7.890800   15.246200
  C     14.475500   12.857900   13.584700
  C     10.005400    6.119200   15.086400
  C     14.860800   11.146300   16.939300
  C     13.712800    5.977800   14.394000
  C     14.340200   11.866300   14.666200
  C     11.412600    6.534500   14.964700
  C     14.228300    9.889800   16.692200
  C     14.100800    7.317700   14.687700
  C     13.643000    9.643800   15.412100
  C     13.119700    8.283400   15.102700
  C     13.758300    9.833700   12.210400
  C     10.800900   10.041600   15.823400

 Total Charge           Charge          ....    0
 Multiplicity           Mult            ....    1
 Number of Electrons    NEL             ....  354
 Basis Dimension        Dim             .... 1816

ORBITAL ENERGIES
----------------

  NO   OCC          E(Eh)            E(eV)
   0   2.0000     -19.249690      -523.8107
   1   2.0000     -19.237166      -523.4699
   2   2.0000     -14.388561      -391.5326
   3   2.0000     -14.385435      -391.4476
   4   2.0000     -14.382867      -391.3777
   5   2.0000     -14.378034      -391.2462
   6   2.0000     -10.306503      -280.4542
   7   2.0000     -10.298980      -280.2495
   8   2.0000     -10.276677      -279.6426
   9   2.0000     -10.273599      -279.5588
  10   2.0000     -10.273078      -279.5447
  11   2.0000     -10.272571      -279.5309
  12   2.0000     -10.267798      -279.4010
  13   2.0000     -10.267785      -279.4006
  14   2.0000     -10.266217      -279.3580
  15   2.0000     -10.260981      -279.2155
  16   2.0000     -10.260300      -279.1969
  17   2.0000     -10.259980      -279.1883
  18   2.0000     -10.258463      -279.1470
  19   2.0000     -10.258181      -279.1393
  20   2.0000     -10.256198      -279.0853
  21   2.0000     -10.254623      -279.0425
  22   2.0000     -10.254100      -279.0283
  23   2.0000     -10.252969      -278.9975
  24   2.0000     -10.251704      -278.9631
  25   2.0000     -10.251162      -278.9483
  26   2.0000     -10.251126      -278.9473
  27   2.0000     -10.250762      -278.9374
  28   2.0000     -10.249360      -278.8993
  29   2.0000     -10.248749      -278.8826
  30   2.0000     -10.248228      -278.8685
  31   2.0000     -10.243778      -278.7474
  32   2.0000     -10.243337      -278.7354
  33   2.0000     -10.243329      -278.7351
  34   2.0000     -10.241594      -278.6879
  35   2.0000     -10.241196      -278.6771
  36   2.0000     -10.240904      -278.6692
  37   2.0000     -10.239682      -278.6359
  38   2.0000     -10.237180      -278.5678
  39   2.0000     -10.235996      -278.5356
  40   2.0000     -10.233357      -278.4638
  41   2.0000     -10.233243      -278.4607
  42   2.0000     -10.228433      -278.3298
  43   2.0000     -10.227841      -278.3137
  44   2.0000     -10.226653      -278.2814
  45   2.0000     -10.225041      -278.2375
  46   2.0000     -10.224606      -278.2257
  47   2.0000     -10.224443      -278.2212
  48   2.0000     -10.224401      -278.2201
  49   2.0000     -10.222937      -278.1803
  50   2.0000     -10.221200      -278.1330
  51   2.0000     -10.220821      -278.1227
  52   2.0000      -1.114197       -30.3188
  53   2.0000      -1.101162       -29.9641
  54   2.0000      -0.988207       -26.8905
  55   2.0000      -0.982390       -26.7322
  56   2.0000      -0.955361       -25.9967
  57   2.0000      -0.950018       -25.8513
  58   2.0000      -0.925055       -25.1720
  59   2.0000      -0.911458       -24.8020
  60   2.0000      -0.876643       -23.8547
  61   2.0000      -0.872075       -23.7304
  62   2.0000      -0.870836       -23.6966
  63   2.0000      -0.866409       -23.5762
  64   2.0000      -0.852917       -23.2090
  65   2.0000      -0.834424       -22.7058
  66   2.0000      -0.826227       -22.4828
  67   2.0000      -0.815424       -22.1888
  68   2.0000      -0.808737       -22.0069
  69   2.0000      -0.798151       -21.7188
  70   2.0000      -0.784551       -21.3487
  71   2.0000      -0.782527       -21.2936
  72   2.0000      -0.770260       -20.9598
  73   2.0000      -0.768536       -20.9129
  74   2.0000      -0.766582       -20.8598
  75   2.0000      -0.763480       -20.7753
  76   2.0000      -0.753207       -20.4958
  77   2.0000      -0.743284       -20.2258
  78   2.0000      -0.729729       -19.8569
  79   2.0000      -0.714029       -19.4297
  80   2.0000      -0.699389       -19.0313
  81   2.0000      -0.691119       -18.8063
  82   2.0000      -0.668035       -18.1782
  83   2.0000      -0.664614       -18.0851
  84   2.0000      -0.656470       -17.8634
  85   2.0000      -0.645265       -17.5585
  86   2.0000      -0.640023       -17.4159
  87   2.0000      -0.636150       -17.3105
  88   2.0000      -0.632719       -17.2172
  89   2.0000      -0.627809       -17.0836
  90   2.0000      -0.623156       -16.9569
  91   2.0000      -0.620944       -16.8968
  92   2.0000      -0.615415       -16.7463
  93   2.0000      -0.603785       -16.4298
  94   2.0000      -0.589235       -16.0339
  95   2.0000      -0.584666       -15.9096
  96   2.0000      -0.559745       -15.2314
  97   2.0000      -0.557436       -15.1686
  98   2.0000      -0.555284       -15.1100
  99   2.0000      -0.551688       -15.0122
 100   2.0000      -0.550619       -14.9831
 101   2.0000      -0.542689       -14.7673
 102   2.0000      -0.539608       -14.6835
 103   2.0000      -0.537551       -14.6275
 104   2.0000      -0.524540       -14.2734
 105   2.0000      -0.516231       -14.0474
 106   2.0000      -0.504933       -13.7399
 107   2.0000      -0.501370       -13.6430
 108   2.0000      -0.497457       -13.5365
 109   2.0000      -0.495512       -13.4836
 110   2.0000      -0.492687       -13.4067
 111   2.0000      -0.487359       -13.2617
 112   2.0000      -0.484044       -13.1715
 113   2.0000      -0.479480       -13.0473
 114   2.0000      -0.478080       -13.0092
 115   2.0000      -0.474504       -12.9119
 116   2.0000      -0.472878       -12.8677
 117   2.0000      -0.470175       -12.7941
 118   2.0000      -0.468607       -12.7515
 119   2.0000      -0.467964       -12.7340
 120   2.0000      -0.464096       -12.6287
 121   2.0000      -0.455508       -12.3950
 122   2.0000      -0.451662       -12.2904
 123   2.0000      -0.451648       -12.2900
 124   2.0000      -0.449000       -12.2179
 125   2.0000      -0.445388       -12.1196
 126   2.0000      -0.444251       -12.0887
 127   2.0000      -0.442222       -12.0335
 128   2.0000      -0.437360       -11.9012
 129   2.0000      -0.436213       -11.8700
 130   2.0000      -0.432341       -11.7646
 131   2.0000      -0.431884       -11.7522
 132   2.0000      -0.428714       -11.6659
 133   2.0000      -0.424125       -11.5410
 134   2.0000      -0.422137       -11.4869
 135   2.0000      -0.420117       -11.4320
 136   2.0000      -0.418035       -11.3753
 137   2.0000      -0.414785       -11.2869
 138   2.0000      -0.402112       -10.9420
 139   2.0000      -0.397202       -10.8084
 140   2.0000      -0.393579       -10.7098
 141   2.0000      -0.386324       -10.5124
 142   2.0000      -0.384650       -10.4669
 143   2.0000      -0.381551       -10.3825
 144   2.0000      -0.378720       -10.3055
 145   2.0000      -0.373440       -10.1618
 146   2.0000      -0.372107       -10.1255
 147   2.0000      -0.369929       -10.0663
 148   2.0000      -0.368538       -10.0284
 149   2.0000      -0.365828        -9.9547
 150   2.0000      -0.364747        -9.9253
 151   2.0000      -0.360714        -9.8155
 152   2.0000      -0.355433        -9.6718
 153   2.0000      -0.354574        -9.6484
 154   2.0000      -0.345404        -9.3989
 155   2.0000      -0.342201        -9.3118
 156   2.0000      -0.339286        -9.2325
 157   2.0000      -0.328022        -8.9259
 158   2.0000      -0.313371        -8.5273
 159   2.0000      -0.308302        -8.3893
 160   2.0000      -0.306386        -8.3372
 161   2.0000      -0.303502        -8.2587
 162   2.0000      -0.300655        -8.1812
 163   2.0000      -0.298758        -8.1296
 164   2.0000      -0.294566        -8.0156
 165   2.0000      -0.287915        -7.8346
 166   2.0000      -0.277185        -7.5426
 167   2.0000      -0.271961        -7.4004
 168   2.0000      -0.269153        -7.3240
 169   2.0000      -0.266763        -7.2590
 170   2.0000      -0.263272        -7.1640
 171   2.0000      -0.258244        -7.0272
 172   2.0000      -0.242106        -6.5880
 173   2.0000      -0.240441        -6.5427
 174   2.0000      -0.231800        -6.3076
 175   2.0000      -0.229118        -6.2346
 176   2.0000      -0.225948        -6.1484
 177   0.0000      -0.080409        -2.1880
 178   0.0000      -0.074646        -2.0312
 179   0.0000      -0.055875        -1.5204
 180   0.0000      -0.046301        -1.2599
 181   0.0000      -0.033220        -0.9040

MULLIKEN ATOMIC CHARGES
-----------------------
   0 H :    0.114135
   1 H :    0.115286
   2 H :    0.136544
   3 H :    0.140369
   4 H :    0.115844
   5 H :    0.114667
   6 H :    0.116512
   7 H :    0.116306
   8 H :    0.117575
   9 H :    0.115717
  10 H :    0.120191
  11 H :    0.117187
  12 H :    0.120139
  13 H :    0.116027
  14 H :    0.125940
  15 H :    0.122692
  16 H :    0.114311
  17 H :    0.130205
  18 H :    0.143583
  19 H :    0.128074
  20 H :    0.117020
  21 H :    0.117099
  22 H :    0.139167
  23 H :    0.132583
  24 H :    0.129142
  25 H :    0.113289
  26 H :    0.127814
  27 H :    0.138530
  28 H :    0.123733
  29 H :    0.148822
  30 H :    0.141839
  31 H :    0.136404
  32 H :    0.127399
  33 H :    0.143495
  34 N :   -0.160362
  35 N :   -0.163043
  36 N :   -0.093078
  37 N :   -0.098955
  38 O :   -0.306664
  39 O :   -0.233526
  40 C :   -0.256251
  41 C :   -0.236630
  42 C :   -0.111067
  43 C :   -0.173758
  44 C :   -0.143948
  45 C :   -0.142179
  46 C :   -0.085796
  47 C :   -0.063121
  48 C :   -0.062811
  49 C :   -0.090969
  50 C :   -0.102912
  51 C :   -0.127321
  52 C :   -0.106286
  53 C :   -0.081395
  54 C :   -0.191444
  55 C :   -0.189394
  56 C :   -0.261849
  57 C :   -0.280899
  58 C :   -0.203466
  59 C :   -0.163911
  60 C :   -0.229376
  61 C :   -0.217111
  62 C :   -0.220389
  63 C :   -0.258510
  64 C :   -0.278726
  65 C :   -0.258909
  66 C :   -0.385173
  67 C :   -0.369136
  68 C :    0.346570
  69 C :    0.332829
  70 C :    0.249665
  71 C :    0.248764
  72 C :    0.253980
  73 C :    0.218516
  74 C :    0.028160
  75 C :    0.084188
  76 C :    0.188546
  77 C :    0.164457
  78 C :    0.169077
  79 C :    0.182529
  80 C :    0.116021
  81 C :   -0.002563
  82 C :   -0.161189
  83 C :    0.096536
  84 C :   -0.228788
  85 C :   -0.216572
Sum of atomic charges:   -0.0000000

LOEWDIN ATOMIC CHARGES
----------------------
   0 H :    0.134842
   1 H :    0.134399
   2 H :    0.149033
   3 H :    0.147519
   4 H :    0.145290
   5 H :    0.144862
   6 H :    0.146535
   7 H :    0.146791
   8 H :    0.147212
   9 H :    0.146268
  10 H :    0.148246
  11 H :    0.147112
  12 H :    0.149085
  13 H :    0.147885
  14 H :    0.152734
  15 H :    0.151626
  16 H :    0.151165
  17 H :    0.150744
  18 H :    0.156458
  19 H :    0.156238
  20 H :    0.151049
  21 H :    0.151490
  22 H :    0.162314
  23 H :    0.162194
  24 H :    0.150665
  25 H :    0.150971
  26 H :    0.158720
  27 H :    0.161379
  28 H :    0.111710
  29 H :    0.119254
  30 H :    0.119619
  31 H :    0.122350
  32 H :    0.120522
  33 H :    0.117660
  34 N :    0.196428
  35 N :    0.194814
  36 N :    0.199802
  37 N :    0.197925
  38 O :    0.237535
  39 O :    0.281319
  40 C :   -0.174789
  41 C :   -0.174246
  42 C :   -0.152428
  43 C :   -0.162222
  44 C :   -0.153725
  45 C :   -0.154479
  46 C :   -0.145996
  47 C :   -0.144141
  48 C :   -0.143117
  49 C :   -0.146835
  50 C :   -0.142598
  51 C :   -0.149479
  52 C :   -0.136914
  53 C :   -0.142021
  54 C :   -0.110637
  55 C :   -0.110494
  56 C :   -0.110806
  57 C :   -0.126700
  58 C :   -0.085273
  59 C :   -0.075410
  60 C :   -0.101880
  61 C :   -0.100957
  62 C :   -0.093504
  63 C :   -0.106923
  64 C :   -0.126648
  65 C :   -0.110632
  66 C :   -0.058638
  67 C :   -0.057049
  68 C :   -0.227230
  69 C :   -0.229502
  70 C :   -0.205294
  71 C :   -0.206202
  72 C :   -0.199178
  73 C :   -0.178815
  74 C :   -0.107860
  75 C :   -0.103627
  76 C :   -0.097168
  77 C :   -0.102490
  78 C :   -0.083124
  79 C :   -0.077436
  80 C :   -0.066722
  81 C :   -0.065120
  82 C :   -0.062628
  83 C :   -0.056393
  84 C :   -0.331186
  85 C :   -0.323245

  Mayer bond orders larger than 0.100000
B(  0-H , 40-C ) :   0.9864 B(  1-H , 41-C ) :   0.9812 B(  2-H , 42-C ) :   0.9824
B(  3-H , 43-C ) :   0.9821 B(  4-H , 44-C ) :   0.9627 B(  5-H , 45-C ) :   0.9632
B(  6-H , 46-C ) :   0.9581 B(  7-H , 47-C ) :   0.9632 B(  8-H , 48-C ) :   0.9624
B(  9-H , 49-C ) :   0.9580 B( 10-H , 50-C ) :   0.9680 B( 11-H , 51-C ) :   0.9712
B( 12-H , 52-C ) :   0.9687 B( 13-H , 53-C ) :   0.9714 B( 14-H , 54-C ) :   0.9711
B( 15-H , 55-C ) :   0.9693 B( 16-H , 56-C ) :   0.9748 B( 17-H , 57-C ) :   0.9606
B( 18-H , 58-C ) :   0.9599 B( 19-H , 59-C ) :   0.9703 B( 20-H , 60-C ) :   0.9862
B( 21-H , 61-C ) :   0.9845 B( 22-H , 62-C ) :   0.9527 B( 23-H , 63-C ) :   0.9530
B( 24-H , 64-C ) :   0.9613 B( 25-H , 65-C ) :   0.9745 B( 26-H , 66-C ) :   0.9938
B( 27-H , 67-C ) :   0.9874 B( 28-H , 84-C ) :   0.9661 B( 29-H , 84-C ) :   0.9628
B( 30-H , 84-C ) :   0.9708 B( 31-H , 85-C ) :   0.9637 B( 32-H , 85-C ) :   0.9570
B( 33-H , 85-C ) :   0.9624 B( 34-N , 42-C ) :   1.6056 B( 34-N , 68-C ) :   1.3265
B( 35-N , 43-C ) :   1.6019 B( 35-N , 69-C ) :   1.3379 B( 36-N , 40-C ) :   1.9380
B( 36-N , 70-C ) :   1.0686 B( 37-N , 41-C ) :   1.9203 B( 37-N , 71-C ) :   1.0767
B( 38-O , 72-C ) :   1.0014 B( 38-O , 84-C ) :   0.9359 B( 39-O , 73-C ) :   1.2058
B( 39-O , 85-C ) :   0.9407 B( 40-C , 68-C ) :   0.9280 B( 41-C , 69-C ) :   0.9413
B( 42-C , 74-C ) :   1.2858 B( 43-C , 75-C ) :   1.3228 B( 44-C , 46-C ) :   1.4242
B( 44-C , 48-C ) :   1.4071 B( 45-C , 47-C ) :   1.4071 B( 45-C , 49-C ) :   1.4232
B( 46-C , 64-C ) :   1.4172 B( 47-C , 65-C ) :   1.4355 B( 48-C , 56-C ) :   1.4347
B( 49-C , 57-C ) :   1.4208 B( 50-C , 52-C ) :   1.2666 B( 50-C , 60-C ) :   1.5318
B( 51-C , 53-C ) :   1.2740 B( 51-C , 61-C ) :   1.5188 B( 52-C , 62-C ) :   1.5461
B( 53-C , 63-C ) :   1.5409 B( 54-C , 58-C ) :   1.4267 B( 54-C , 68-C ) :   1.3497
B( 55-C , 59-C ) :   1.4332 B( 55-C , 69-C ) :   1.3325 B( 56-C , 70-C ) :   1.3974
B( 57-C , 71-C ) :   1.3495 B( 58-C , 74-C ) :   1.4253 B( 59-C , 75-C ) :   1.3676
B( 60-C , 76-C ) :   1.2238 B( 61-C , 77-C ) :   1.2239 B( 62-C , 80-C ) :   1.3106
B( 63-C , 81-C ) :   1.2911 B( 63-C , 83-C ) :  -0.1116 B( 64-C , 70-C ) :   1.3546
B( 65-C , 71-C ) :   1.3991 B( 66-C , 76-C ) :   1.1852 B( 66-C , 78-C ) :   1.4563
B( 67-C , 77-C ) :   1.1783 B( 67-C , 79-C ) :   1.4905 B( 72-C , 78-C ) :   1.2491
B( 72-C , 82-C ) :   1.3864 B( 73-C , 79-C ) :   1.2055 B( 73-C , 83-C ) :   1.3178
B( 74-C , 78-C ) :   0.8266 B( 75-C , 79-C ) :   0.8590 B( 76-C , 80-C ) :   1.2751
B( 77-C , 81-C ) :   1.3324 B( 80-C , 82-C ) :   1.0911 B( 81-C , 83-C ) :   1.0361
B( 82-C , 83-C ) :   0.5299

Dispersion correction           -0.122311531
FINAL SINGLE POINT ENERGY     -2141.136785600081

DIPOLE MOMENT
-------------
                                X             Y             Z
Electronic contribution:      1.46496      -3.51101       6.93329
Nuclear contribution   :      0.60043       4.11504      -5.41026
                        -----------------------------------------
Total Dipole Moment    :      2.06538       0.60403       1.52304
                        -----------------------------------------
Magnitude (a.u.)       :      2.63634
Magnitude (Debye)      :      6.70105

Rotational constants in cm-1:     0.001774     0.000785     0.000609
Rotational constants in MHz :    53.169180    23.532739    18.258811

                             ****ORCA TERMINATED NORMALLY****
TOTAL RUN TIME: 0 days 0 hours 20 minutes 36 seconds 945 msec
