                         Program Version 4.2.1 -  RELEASE  -
|  1> # closed shell KS, PBE0/def2-SVP/D4
|  2> ! DFT SP RKS PBE0 def2-TZVP D4 Grid6 NOFINALGRID SlowConv TightSCF printbasis
|  3>
|  4> %base "_fe7ll_xtb_dft_sg86_1_1"
|  5> %maxcore 4000
|  6> %scf
|  7>    MaxIter 2000
|  8> end
|  9>
| 10> %pal
| 11>    nprocs 48
| 12> end
| 13>
| 14> * xyzfile 0 1 fe7ll_xtb_dft_sg86_1_1.xyz
| 15>
| 16>
| 17>                          ****END OF INPUT****

CARTESIAN COORDINATES (ANGSTROEM)
---------------------------------
  H     16.044900   15.411900    9.670000
  H      4.121400    4.070400   10.769400
  H     12.257900   11.593900    9.167800
  H      9.473600    4.708300   10.594900
  H     14.878500   20.492700   12.043700
  H      1.401100    4.776300   15.759600
  H     13.584900   18.797900   13.328500
  H      1.780400    6.328400   13.845600
  H     16.897100    4.622900   10.330400
  H     12.434800    4.462900    2.897700
  H     14.869200    3.459700    9.460400
  H     14.134700    6.024700    3.837000
  H     15.814000   19.900000    9.811800
  H      2.926200    2.837000   16.096500
  H     16.867300   13.215200    8.642500
  H      5.101800    4.292300    8.392900
  H     15.398500   17.653400    8.845900
  H      4.821800    2.458400   14.564300
  H     16.387500   10.803900    8.223400
  H      7.071600    4.982900    7.019400
  H     13.184900   16.546200   12.371300
  H      3.678900    5.945400   12.295600
  H     16.995400    7.106900   10.298600
  H     10.405900    3.907400    4.213100
  H     15.980400    9.232800    9.748700
  H      9.111400    4.109200    6.270300
  H     12.994700    4.730200    8.524200
  H     13.825800    7.031300    6.060400
  H     11.254400    8.699400    6.139700
  H     10.145800    8.779300    7.551700
  H     10.489300   10.251000    6.587000
  H     11.435000    5.915600   10.974500
  H     11.988200    7.543400   10.518300
  H     10.552600    7.368300   11.559100
  N     13.553800   13.201200    9.290400
  N      7.460200    4.334400   10.809900
  N     14.004800   15.679000    9.994700
  N      5.426800    3.975900   12.393600
  O     11.989300    9.710300    7.805600
  O     10.206600    6.916400    9.620400
  C     15.027000   15.007400    9.606000
  C      5.154600    4.054800   11.138000
  C     13.294600   11.912100    9.071800
  C      8.516900    4.663900   10.075300
  C     14.698300   19.503100   11.618200
  C      2.232600    4.607300   15.071700
  C     13.962200   18.556300   12.332700
  C      2.442400    5.473400   13.999700
  C     16.060500    5.206500    9.940600
  C     12.280200    4.901700    3.885100
  C     14.914100    4.551300    9.444000
  C     13.241200    5.788300    4.419100
  C     15.220800   19.171700   10.369200
  C      3.091000    3.523700   15.263300
  C     15.861400   12.811800    8.773200
  C      6.088200    4.408300    8.846100
  C     14.997700   17.908700    9.827400
  C      4.158200    3.305300   14.397100
  C     15.589100   11.472100    8.551200
  C      7.187400    4.785800    8.087400
  C     13.721000   17.296800   11.792000
  C      3.497600    5.252000   13.120400
  C     16.118800    6.579200    9.916900
  C     11.156400    4.593800    4.612900
  C     15.102600    8.741500    9.323700
  C      9.819300    4.839600    6.669600
  C     13.859500    5.265200    8.917000
  C     13.070000    6.351500    5.664300
  C     14.823600   13.644300    9.182100
  C      6.251900    4.227100   10.217800
  C     14.229400   16.974000   10.529600
  C      4.357200    4.159000   13.306500
  C     12.916300    8.844700    8.267500
  C     10.566000    6.312300    8.449900
  C     14.294200   10.968300    8.761500
  C      8.436800    4.954700    8.700700
  C     15.048000    7.335000    9.378900
  C     10.953700    5.160000    5.897200
  C     14.090700    9.504000    8.776000
  C      9.617500    5.373800    7.927000
  C     13.897300    6.681800    8.856300
  C     11.921300    6.056600    6.440200
  C     12.818600    7.458100    8.300600
  C     11.705900    6.638700    7.732900
  C     10.915000    9.319400    6.980900
  C     11.100000    6.933000   10.713000

 Total Charge           Charge          ....    0
 Multiplicity           Mult            ....    1
 Number of Electrons    NEL             ....  354
 Basis Dimension        Dim             .... 1816

ORBITAL ENERGIES
----------------

  NO   OCC          E(Eh)            E(eV)
   0   2.0000     -19.251096      -523.8490
   1   2.0000     -19.242211      -523.6072
   2   2.0000     -14.386037      -391.4640
   3   2.0000     -14.384382      -391.4189
   4   2.0000     -14.382972      -391.3806
   5   2.0000     -14.380896      -391.3241
   6   2.0000     -10.310052      -280.5508
   7   2.0000     -10.303611      -280.3755
   8   2.0000     -10.276204      -279.6297
   9   2.0000     -10.272277      -279.5229
  10   2.0000     -10.270663      -279.4789
  11   2.0000     -10.270096      -279.4635
  12   2.0000     -10.268792      -279.4280
  13   2.0000     -10.267497      -279.3928
  14   2.0000     -10.266461      -279.3646
  15   2.0000     -10.262386      -279.2537
  16   2.0000     -10.258585      -279.1503
  17   2.0000     -10.257669      -279.1254
  18   2.0000     -10.257102      -279.1099
  19   2.0000     -10.256978      -279.1066
  20   2.0000     -10.256893      -279.1042
  21   2.0000     -10.256546      -279.0948
  22   2.0000     -10.255114      -279.0558
  23   2.0000     -10.254622      -279.0424
  24   2.0000     -10.253660      -279.0163
  25   2.0000     -10.253503      -279.0120
  26   2.0000     -10.252633      -278.9883
  27   2.0000     -10.251395      -278.9546
  28   2.0000     -10.250207      -278.9223
  29   2.0000     -10.247900      -278.8595
  30   2.0000     -10.246459      -278.8203
  31   2.0000     -10.245888      -278.8048
  32   2.0000     -10.244909      -278.7781
  33   2.0000     -10.244258      -278.7604
  34   2.0000     -10.241991      -278.6987
  35   2.0000     -10.240219      -278.6505
  36   2.0000     -10.239420      -278.6288
  37   2.0000     -10.238965      -278.6164
  38   2.0000     -10.237811      -278.5850
  39   2.0000     -10.237586      -278.5789
  40   2.0000     -10.235606      -278.5250
  41   2.0000     -10.234730      -278.5012
  42   2.0000     -10.226715      -278.2831
  43   2.0000     -10.226574      -278.2792
  44   2.0000     -10.226438      -278.2755
  45   2.0000     -10.225961      -278.2625
  46   2.0000     -10.224770      -278.2301
  47   2.0000     -10.224283      -278.2169
  48   2.0000     -10.223145      -278.1859
  49   2.0000     -10.222906      -278.1794
  50   2.0000     -10.222457      -278.1672
  51   2.0000     -10.222076      -278.1568
  52   2.0000      -1.114474       -30.3264
  53   2.0000      -1.104066       -30.0432
  54   2.0000      -0.985712       -26.8226
  55   2.0000      -0.982976       -26.7481
  56   2.0000      -0.953189       -25.9376
  57   2.0000      -0.951947       -25.9038
  58   2.0000      -0.925582       -25.1864
  59   2.0000      -0.912723       -24.8365
  60   2.0000      -0.874999       -23.8099
  61   2.0000      -0.873940       -23.7811
  62   2.0000      -0.869234       -23.6530
  63   2.0000      -0.868466       -23.6322
  64   2.0000      -0.853364       -23.2212
  65   2.0000      -0.834374       -22.7045
  66   2.0000      -0.826183       -22.4816
  67   2.0000      -0.813689       -22.1416
  68   2.0000      -0.810119       -22.0445
  69   2.0000      -0.798868       -21.7383
  70   2.0000      -0.786015       -21.3885
  71   2.0000      -0.782746       -21.2996
  72   2.0000      -0.768642       -20.9158
  73   2.0000      -0.767677       -20.8896
  74   2.0000      -0.766700       -20.8630
  75   2.0000      -0.764093       -20.7920
  76   2.0000      -0.752525       -20.4773
  77   2.0000      -0.744705       -20.2645
  78   2.0000      -0.733239       -19.9524
  79   2.0000      -0.715264       -19.4633
  80   2.0000      -0.697245       -18.9730
  81   2.0000      -0.694316       -18.8933
  82   2.0000      -0.666898       -18.1472
  83   2.0000      -0.662817       -18.0362
  84   2.0000      -0.656111       -17.8537
  85   2.0000      -0.647880       -17.6297
  86   2.0000      -0.638332       -17.3699
  87   2.0000      -0.635567       -17.2947
  88   2.0000      -0.634744       -17.2723
  89   2.0000      -0.626138       -17.0381
  90   2.0000      -0.625540       -17.0218
  91   2.0000      -0.619003       -16.8439
  92   2.0000      -0.617370       -16.7995
  93   2.0000      -0.604306       -16.4440
  94   2.0000      -0.587268       -15.9804
  95   2.0000      -0.585409       -15.9298
  96   2.0000      -0.560064       -15.2401
  97   2.0000      -0.558058       -15.1855
  98   2.0000      -0.555385       -15.1128
  99   2.0000      -0.553783       -15.0692
 100   2.0000      -0.552523       -15.0349
 101   2.0000      -0.540762       -14.7149
 102   2.0000      -0.539303       -14.6752
 103   2.0000      -0.538679       -14.6582
 104   2.0000      -0.523348       -14.2410
 105   2.0000      -0.517918       -14.0933
 106   2.0000      -0.506534       -13.7835
 107   2.0000      -0.501870       -13.6566
 108   2.0000      -0.498698       -13.5703
 109   2.0000      -0.494946       -13.4682
 110   2.0000      -0.493046       -13.4165
 111   2.0000      -0.486736       -13.2448
 112   2.0000      -0.483968       -13.1694
 113   2.0000      -0.481958       -13.1147
 114   2.0000      -0.476291       -12.9605
 115   2.0000      -0.475403       -12.9364
 116   2.0000      -0.471402       -12.8275
 117   2.0000      -0.471133       -12.8202
 118   2.0000      -0.470172       -12.7940
 119   2.0000      -0.464426       -12.6377
 120   2.0000      -0.462783       -12.5930
 121   2.0000      -0.455963       -12.4074
 122   2.0000      -0.453349       -12.3363
 123   2.0000      -0.451623       -12.2893
 124   2.0000      -0.447651       -12.1812
 125   2.0000      -0.446980       -12.1630
 126   2.0000      -0.444092       -12.0844
 127   2.0000      -0.440163       -11.9774
 128   2.0000      -0.437263       -11.8985
 129   2.0000      -0.434169       -11.8143
 130   2.0000      -0.432140       -11.7591
 131   2.0000      -0.430278       -11.7085
 132   2.0000      -0.428019       -11.6470
 133   2.0000      -0.424200       -11.5431
 134   2.0000      -0.423018       -11.5109
 135   2.0000      -0.420539       -11.4434
 136   2.0000      -0.418240       -11.3809
 137   2.0000      -0.413099       -11.2410
 138   2.0000      -0.410805       -11.1786
 139   2.0000      -0.396984       -10.8025
 140   2.0000      -0.392879       -10.6908
 141   2.0000      -0.385721       -10.4960
 142   2.0000      -0.383289       -10.4298
 143   2.0000      -0.382052       -10.3962
 144   2.0000      -0.380984       -10.3671
 145   2.0000      -0.375293       -10.2122
 146   2.0000      -0.373431       -10.1616
 147   2.0000      -0.370033       -10.0691
 148   2.0000      -0.368441       -10.0258
 149   2.0000      -0.365857        -9.9555
 150   2.0000      -0.361531        -9.8378
 151   2.0000      -0.360519        -9.8102
 152   2.0000      -0.356024        -9.6879
 153   2.0000      -0.351963        -9.5774
 154   2.0000      -0.349082        -9.4990
 155   2.0000      -0.346565        -9.4305
 156   2.0000      -0.338607        -9.2140
 157   2.0000      -0.330055        -8.9813
 158   2.0000      -0.320866        -8.7312
 159   2.0000      -0.308625        -8.3981
 160   2.0000      -0.306285        -8.3344
 161   2.0000      -0.304354        -8.2819
 162   2.0000      -0.301999        -8.2178
 163   2.0000      -0.298075        -8.1110
 164   2.0000      -0.294113        -8.0032
 165   2.0000      -0.285293        -7.7632
 166   2.0000      -0.282450        -7.6858
 167   2.0000      -0.270151        -7.3512
 168   2.0000      -0.265033        -7.2119
 169   2.0000      -0.264699        -7.2028
 170   2.0000      -0.263478        -7.1696
 171   2.0000      -0.251956        -6.8561
 172   2.0000      -0.246171        -6.6987
 173   2.0000      -0.238678        -6.4947
 174   2.0000      -0.232820        -6.3354
 175   2.0000      -0.229761        -6.2521
 176   2.0000      -0.226907        -6.1744
 177   0.0000      -0.079551        -2.1647
 178   0.0000      -0.077562        -2.1106
 179   0.0000      -0.054614        -1.4861
 180   0.0000      -0.047682        -1.2975
 181   0.0000      -0.031671        -0.8618

MULLIKEN ATOMIC CHARGES
-----------------------
   0 H :    0.112730
   1 H :    0.116951
   2 H :    0.137892
   3 H :    0.111028
   4 H :    0.115329
   5 H :    0.115325
   6 H :    0.117061
   7 H :    0.116536
   8 H :    0.118032
   9 H :    0.119169
  10 H :    0.118739
  11 H :    0.118965
  12 H :    0.115065
  13 H :    0.116898
  14 H :    0.123768
  15 H :    0.125147
  16 H :    0.123760
  17 H :    0.113525
  18 H :    0.151547
  19 H :    0.140507
  20 H :    0.116399
  21 H :    0.130804
  22 H :    0.114814
  23 H :    0.115787
  24 H :    0.137282
  25 H :    0.130033
  26 H :    0.141836
  27 H :    0.139014
  28 H :    0.131404
  29 H :    0.128471
  30 H :    0.149460
  31 H :    0.115129
  32 H :    0.148326
  33 H :    0.153354
  34 N :   -0.157592
  35 N :   -0.166881
  36 N :   -0.103338
  37 N :   -0.098780
  38 O :   -0.244184
  39 O :   -0.272097
  40 C :   -0.217661
  41 C :   -0.233249
  42 C :   -0.133030
  43 C :   -0.112102
  44 C :   -0.138570
  45 C :   -0.142798
  46 C :   -0.070371
  47 C :   -0.089444
  48 C :   -0.124284
  49 C :   -0.110292
  50 C :   -0.098157
  51 C :   -0.104419
  52 C :   -0.091422
  53 C :   -0.062620
  54 C :   -0.188575
  55 C :   -0.198857
  56 C :   -0.257102
  57 C :   -0.264219
  58 C :   -0.215692
  59 C :   -0.191975
  60 C :   -0.248218
  61 C :   -0.279092
  62 C :   -0.213643
  63 C :   -0.225660
  64 C :   -0.382488
  65 C :   -0.373624
  66 C :   -0.278478
  67 C :   -0.229588
  68 C :    0.311899
  69 C :    0.328849
  70 C :    0.227200
  71 C :    0.249357
  72 C :    0.327130
  73 C :    0.172662
  74 C :    0.075622
  75 C :    0.098748
  76 C :    0.187479
  77 C :    0.185494
  78 C :    0.181990
  79 C :    0.176756
  80 C :    0.081207
  81 C :    0.049673
  82 C :   -0.143606
  83 C :   -0.056234
  84 C :   -0.207918
  85 C :   -0.207892
Sum of atomic charges:   -0.0000000

LOEWDIN ATOMIC CHARGES
----------------------
   0 H :    0.134207
   1 H :    0.135421
   2 H :    0.147454
   3 H :    0.145973
   4 H :    0.144995
   5 H :    0.145084
   6 H :    0.146877
   7 H :    0.146525
   8 H :    0.147579
   9 H :    0.147885
  10 H :    0.149088
  11 H :    0.148950
  12 H :    0.146029
  13 H :    0.146937
  14 H :    0.152113
  15 H :    0.152420
  16 H :    0.149523
  17 H :    0.150981
  18 H :    0.156634
  19 H :    0.155645
  20 H :    0.152021
  21 H :    0.151101
  22 H :    0.150576
  23 H :    0.150939
  24 H :    0.160984
  25 H :    0.158837
  26 H :    0.163873
  27 H :    0.162999
  28 H :    0.122510
  29 H :    0.121256
  30 H :    0.118442
  31 H :    0.110493
  32 H :    0.121892
  33 H :    0.120463
  34 N :    0.193397
  35 N :    0.196186
  36 N :    0.199576
  37 N :    0.197894
  38 O :    0.272812
  39 O :    0.253068
  40 C :   -0.175671
  41 C :   -0.175214
  42 C :   -0.152897
  43 C :   -0.149612
  44 C :   -0.154578
  45 C :   -0.154249
  46 C :   -0.142815
  47 C :   -0.146458
  48 C :   -0.147093
  49 C :   -0.144394
  50 C :   -0.137799
  51 C :   -0.137143
  52 C :   -0.146326
  53 C :   -0.143561
  54 C :   -0.113666
  55 C :   -0.110103
  56 C :   -0.127731
  57 C :   -0.111313
  58 C :   -0.088359
  59 C :   -0.084280
  60 C :   -0.109885
  61 C :   -0.126809
  62 C :   -0.101401
  63 C :   -0.101374
  64 C :   -0.057886
  65 C :   -0.057747
  66 C :   -0.098225
  67 C :   -0.097770
  68 C :   -0.229677
  69 C :   -0.228060
  70 C :   -0.205376
  71 C :   -0.205282
  72 C :   -0.185341
  73 C :   -0.192262
  74 C :   -0.099566
  75 C :   -0.100745
  76 C :   -0.105814
  77 C :   -0.100439
  78 C :   -0.075007
  79 C :   -0.079928
  80 C :   -0.065818
  81 C :   -0.068216
  82 C :   -0.070038
  83 C :   -0.068510
  84 C :   -0.320297
  85 C :   -0.334902

  Mayer bond orders larger than 0.100000
B(  0-H , 40-C ) :   0.9697 B(  1-H , 41-C ) :   0.9839 B(  2-H , 42-C ) :   0.9774
B(  3-H , 43-C ) :   0.9866 B(  4-H , 44-C ) :   0.9629 B(  5-H , 45-C ) :   0.9630
B(  6-H , 46-C ) :   0.9629 B(  7-H , 47-C ) :   0.9579 B(  8-H , 48-C ) :   0.9709
B(  9-H , 49-C ) :   0.9693 B( 10-H , 50-C ) :   0.9704 B( 11-H , 51-C ) :   0.9693
B( 12-H , 52-C ) :   0.9590 B( 13-H , 53-C ) :   0.9628 B( 14-H , 54-C ) :   0.9660
B( 15-H , 55-C ) :   0.9664 B( 16-H , 56-C ) :   0.9659 B( 17-H , 57-C ) :   0.9752
B( 18-H , 58-C ) :   0.9462 B( 19-H , 59-C ) :   0.9550 B( 20-H , 60-C ) :   0.9717
B( 21-H , 61-C ) :   0.9610 B( 22-H , 62-C ) :   0.9843 B( 23-H , 63-C ) :   0.9853
B( 24-H , 64-C ) :   0.9661 B( 25-H , 65-C ) :   0.9703 B( 26-H , 66-C ) :   0.9508
B( 27-H , 67-C ) :   0.9528 B( 28-H , 84-C ) :   0.9614 B( 29-H , 84-C ) :   0.9604
B( 30-H , 84-C ) :   0.9618 B( 31-H , 85-C ) :   0.9566 B( 32-H , 85-C ) :   0.9570
B( 33-H , 85-C ) :   0.9651 B( 34-N , 42-C ) :   1.5970 B( 34-N , 68-C ) :   1.3545
B( 35-N , 43-C ) :   1.6147 B( 35-N , 69-C ) :   1.3286 B( 36-N , 40-C ) :   1.9106
B( 36-N , 70-C ) :   1.0609 B( 37-N , 41-C ) :   1.9209 B( 37-N , 71-C ) :   1.0735
B( 38-O , 72-C ) :   1.1698 B( 38-O , 84-C ) :   0.9363 B( 39-O , 73-C ) :   1.1298
B( 39-O , 85-C ) :   0.9268 B( 40-C , 68-C ) :   0.9528 B( 41-C , 69-C ) :   0.9428
B( 42-C , 74-C ) :   1.2948 B( 43-C , 75-C ) :   1.2814 B( 44-C , 46-C ) :   1.4071
B( 44-C , 52-C ) :   1.4229 B( 45-C , 47-C ) :   1.4238 B( 45-C , 53-C ) :   1.4070
B( 46-C , 60-C ) :   1.4296 B( 47-C , 61-C ) :   1.4184 B( 48-C , 50-C ) :   1.2734
B( 48-C , 62-C ) :   1.5215 B( 49-C , 51-C ) :   1.2672 B( 49-C , 63-C ) :   1.5302
B( 50-C , 66-C ) :   1.5510 B( 51-C , 67-C ) :   1.5502 B( 52-C , 56-C ) :   1.4127
B( 53-C , 57-C ) :   1.4345 B( 54-C , 58-C ) :   1.4436 B( 54-C , 68-C ) :   1.3438
B( 55-C , 59-C ) :   1.4353 B( 55-C , 69-C ) :   1.3499 B( 56-C , 70-C ) :   1.3622
B( 57-C , 71-C ) :   1.3982 B( 58-C , 74-C ) :   1.4004 B( 59-C , 75-C ) :   1.4032
B( 60-C , 70-C ) :   1.4142 B( 61-C , 71-C ) :   1.3509 B( 62-C , 76-C ) :   1.2115
B( 63-C , 77-C ) :   1.2154 B( 64-C , 76-C ) :   1.2082 B( 64-C , 78-C ) :   1.4819
B( 65-C , 77-C ) :   1.2227 B( 65-C , 79-C ) :   1.4796 B( 66-C , 80-C ) :   1.2873
B( 66-C , 82-C ) :  -0.1034 B( 67-C , 81-C ) :   1.3079 B( 72-C , 78-C ) :   1.1943
B( 72-C , 82-C ) :   1.2518 B( 73-C , 79-C ) :   1.2217 B( 73-C , 83-C ) :   1.4041
B( 74-C , 78-C ) :   0.8875 B( 75-C , 79-C ) :   0.8726 B( 76-C , 80-C ) :   1.3096
B( 77-C , 81-C ) :   1.2905 B( 80-C , 82-C ) :   0.9906 B( 81-C , 83-C ) :   1.0370
B( 82-C , 83-C ) :   0.4789

Dispersion correction           -0.122474242
FINAL SINGLE POINT ENERGY     -2141.131730206123

DIPOLE MOMENT
-------------
                                X             Y             Z
Electronic contribution:      1.96885      -3.93848      -5.06291
Nuclear contribution   :     -0.96883       2.98396       3.44515
                        -----------------------------------------
Total Dipole Moment    :      1.00002      -0.95452      -1.61776
                        -----------------------------------------
Magnitude (a.u.)       :      2.12798
Magnitude (Debye)      :      5.40889

Rotational constants in cm-1:     0.001869     0.000745     0.000590
Rotational constants in MHz :    56.045543    22.336690    17.675136

                             ****ORCA TERMINATED NORMALLY****
TOTAL RUN TIME: 0 days 0 hours 18 minutes 24 seconds 88 msec
