                         Program Version 4.2.1 -  RELEASE  -
|  1> # closed shell KS, PBE0/def2-SVP/D4
|  2> ! DFT SP RKS PBE0 def2-TZVP D4 Grid6 NOFINALGRID SlowConv TightSCF printbasis
|  3>
|  4> %base "_fe7ll_xtb_dft_sg56_2_2"
|  5> %maxcore 4000
|  6> %scf
|  7>    MaxIter 2000
|  8> end
|  9>
| 10> %pal
| 11>    nprocs 48
| 12> end
| 13>
| 14> * xyzfile 0 1 fe7ll_xtb_dft_sg56_2_2.xyz
| 15>
| 16>
| 17>                          ****END OF INPUT****

CARTESIAN COORDINATES (ANGSTROEM)
---------------------------------
  H     11.622200   14.496600    5.855900
  H      6.629300    4.846100   16.334200
  H     10.250500   12.878300   10.810700
  H      7.672700    6.698100   11.398600
  H     16.387100   17.258900    4.735600
  H      8.784500   -0.265600   17.769300
  H     16.082100   14.787200    4.737300
  H      7.211900   -0.707400   15.890100
  H     14.891700   18.690800    6.120200
  H      9.624200    2.048400   18.161400
  H      9.407100   13.135000    5.986600
  H      5.903100    7.358100   15.930100
  H     13.111000   17.666700    7.510300
  H      8.886700    3.902700   16.687200
  H      7.863100   11.769100    7.397900
  H      6.074100    9.336800   14.415100
  H      8.495500   12.448500   11.916000
  H      7.660200   10.723600   13.431100
  H     14.278800   13.759300    6.111400
  H      6.486100    1.130100   14.412200
  H      7.808200    9.825300    8.550400
  H      6.907300    8.133300   10.055900
  N     10.817300   13.690000    9.003800
  N      7.129000    5.829700   13.183300
  N     12.543900   15.043100    7.641300
  N      7.196800    3.730300   14.662600
  C     11.635800   14.455000    6.952100
  C      6.806700    4.807100   15.252700
  C     10.016900   12.940500    9.749300
  C      7.251000    6.880300   12.387100
  C     15.607400   16.803600    5.350500
  C      8.459500    0.553100   17.123300
  C     15.435000   15.420200    5.348700
  C      7.581100    0.305200   16.067700
  C     14.771700   17.604900    6.129300
  C      8.924600    1.848500   17.346600
  C      9.556500   13.055300    7.065500
  C      6.289000    7.253100   14.914300
  C     13.771600   17.037400    6.915000
  C      8.501000    2.892400   16.530500
  C      8.708200   12.289400    7.852900
  C      6.395900    8.351600   14.070500
  C      8.163300   11.496200   11.498300
  C      7.670600   10.526400   12.357100
  C     14.424900   14.842500    6.113800
  C      7.167300    1.340300   15.235200
  C      7.760000   10.041900    9.619300
  C      7.267300    9.073300   10.477200
  C     10.623000   13.718900    7.670700
  C      6.694600    6.001900   14.447300
  C     13.596500   15.652700    6.899700
  C      7.609200    2.646500   15.475800
  C      8.958100   12.185600    9.227700
  C      6.925800    8.183200   12.782800
  C      8.252100   11.255300   10.118900
  C      7.250600    9.283400   11.864400

 Total Charge           Charge          ....    0
 Multiplicity           Mult            ....    1
 Number of Electrons    NEL             ....  230
 Basis Dimension        Dim             .... 1186

ORBITAL ENERGIES
----------------

  NO   OCC          E(Eh)            E(eV)
   0   2.0000     -14.389695      -391.5635
   1   2.0000     -14.388992      -391.5444
   2   2.0000     -14.387799      -391.5119
   3   2.0000     -14.386012      -391.4633
   4   2.0000     -10.274812      -279.5919
   5   2.0000     -10.274358      -279.5795
   6   2.0000     -10.273904      -279.5671
   7   2.0000     -10.273859      -279.5659
   8   2.0000     -10.269351      -279.4433
   9   2.0000     -10.268502      -279.4201
  10   2.0000     -10.260715      -279.2082
  11   2.0000     -10.260626      -279.2058
  12   2.0000     -10.260341      -279.1981
  13   2.0000     -10.259814      -279.1837
  14   2.0000     -10.259743      -279.1818
  15   2.0000     -10.259690      -279.1804
  16   2.0000     -10.259576      -279.1773
  17   2.0000     -10.259468      -279.1743
  18   2.0000     -10.253555      -279.0134
  19   2.0000     -10.253387      -279.0089
  20   2.0000     -10.248736      -278.8823
  21   2.0000     -10.248289      -278.8701
  22   2.0000     -10.247980      -278.8617
  23   2.0000     -10.247467      -278.8478
  24   2.0000     -10.228831      -278.3406
  25   2.0000     -10.228358      -278.3278
  26   2.0000     -10.228234      -278.3244
  27   2.0000     -10.228077      -278.3201
  28   2.0000     -10.227072      -278.2928
  29   2.0000     -10.225841      -278.2593
  30   2.0000     -10.225211      -278.2421
  31   2.0000     -10.224939      -278.2347
  32   2.0000     -10.224516      -278.2232
  33   2.0000     -10.223166      -278.1865
  34   2.0000      -0.992092       -26.9962
  35   2.0000      -0.991273       -26.9739
  36   2.0000      -0.958201       -26.0740
  37   2.0000      -0.956631       -26.0313
  38   2.0000      -0.913798       -24.8657
  39   2.0000      -0.875151       -23.8141
  40   2.0000      -0.873214       -23.7614
  41   2.0000      -0.862979       -23.4829
  42   2.0000      -0.840816       -22.8798
  43   2.0000      -0.827057       -22.5054
  44   2.0000      -0.815577       -22.1930
  45   2.0000      -0.792310       -21.5599
  46   2.0000      -0.784212       -21.3395
  47   2.0000      -0.770005       -20.9529
  48   2.0000      -0.769052       -20.9270
  49   2.0000      -0.763370       -20.7724
  50   2.0000      -0.749598       -20.3976
  51   2.0000      -0.708390       -19.2763
  52   2.0000      -0.684579       -18.6283
  53   2.0000      -0.681052       -18.5324
  54   2.0000      -0.666510       -18.1367
  55   2.0000      -0.645916       -17.5763
  56   2.0000      -0.634059       -17.2536
  57   2.0000      -0.631617       -17.1872
  58   2.0000      -0.625086       -17.0095
  59   2.0000      -0.622965       -16.9517
  60   2.0000      -0.613743       -16.7008
  61   2.0000      -0.591167       -16.0865
  62   2.0000      -0.589257       -16.0345
  63   2.0000      -0.567510       -15.4427
  64   2.0000      -0.552170       -15.0253
  65   2.0000      -0.545446       -14.8424
  66   2.0000      -0.539900       -14.6914
  67   2.0000      -0.523085       -14.2339
  68   2.0000      -0.520724       -14.1696
  69   2.0000      -0.507087       -13.7985
  70   2.0000      -0.502097       -13.6628
  71   2.0000      -0.490471       -13.3464
  72   2.0000      -0.483131       -13.1467
  73   2.0000      -0.476156       -12.9569
  74   2.0000      -0.475601       -12.9418
  75   2.0000      -0.471887       -12.8407
  76   2.0000      -0.470780       -12.8106
  77   2.0000      -0.469486       -12.7754
  78   2.0000      -0.460074       -12.5193
  79   2.0000      -0.453445       -12.3389
  80   2.0000      -0.450061       -12.2468
  81   2.0000      -0.447491       -12.1768
  82   2.0000      -0.445330       -12.1181
  83   2.0000      -0.437878       -11.9153
  84   2.0000      -0.433574       -11.7981
  85   2.0000      -0.432910       -11.7801
  86   2.0000      -0.430915       -11.7258
  87   2.0000      -0.424218       -11.5436
  88   2.0000      -0.422214       -11.4890
  89   2.0000      -0.409039       -11.1305
  90   2.0000      -0.400971       -10.9110
  91   2.0000      -0.387307       -10.5391
  92   2.0000      -0.384353       -10.4588
  93   2.0000      -0.381471       -10.3803
  94   2.0000      -0.373179       -10.1547
  95   2.0000      -0.371663       -10.1135
  96   2.0000      -0.370016       -10.0687
  97   2.0000      -0.366192        -9.9646
  98   2.0000      -0.362869        -9.8742
  99   2.0000      -0.353732        -9.6255
 100   2.0000      -0.345126        -9.3914
 101   2.0000      -0.320120        -8.7109
 102   2.0000      -0.312374        -8.5001
 103   2.0000      -0.308619        -8.3979
 104   2.0000      -0.306013        -8.3270
 105   2.0000      -0.300001        -8.1634
 106   2.0000      -0.288542        -7.8516
 107   2.0000      -0.279158        -7.5963
 108   2.0000      -0.277551        -7.5525
 109   2.0000      -0.273108        -7.4316
 110   2.0000      -0.267188        -7.2706
 111   2.0000      -0.266386        -7.2487
 112   2.0000      -0.245401        -6.6777
 113   2.0000      -0.234686        -6.3861
 114   2.0000      -0.229780        -6.2526
 115   0.0000      -0.089927        -2.4470
 116   0.0000      -0.070146        -1.9088
 117   0.0000      -0.041721        -1.1353
 118   0.0000      -0.034591        -0.9413
 119   0.0000      -0.025777        -0.7014

MULLIKEN ATOMIC CHARGES
-----------------------
   0 H :    0.111751
   1 H :    0.116831
   2 H :    0.123506
   3 H :    0.125170
   4 H :    0.115501
   5 H :    0.115976
   6 H :    0.116689
   7 H :    0.117482
   8 H :    0.116557
   9 H :    0.116866
  10 H :    0.127449
  11 H :    0.127497
  12 H :    0.115233
  13 H :    0.130675
  14 H :    0.137004
  15 H :    0.137107
  16 H :    0.135665
  17 H :    0.121919
  18 H :    0.122157
  19 H :    0.114309
  20 H :    0.120237
  21 H :    0.137199
  22 N :   -0.158058
  23 N :   -0.157413
  24 N :   -0.088365
  25 N :   -0.096446
  26 C :   -0.243702
  27 C :   -0.229670
  28 C :   -0.141618
  29 C :   -0.145974
  30 C :   -0.146045
  31 C :   -0.142853
  32 C :   -0.075135
  33 C :   -0.063286
  34 C :   -0.070274
  35 C :   -0.088494
  36 C :   -0.184662
  37 C :   -0.182678
  38 C :   -0.257072
  39 C :   -0.280803
  40 C :   -0.173634
  41 C :   -0.177383
  42 C :   -0.202286
  43 C :   -0.210856
  44 C :   -0.269071
  45 C :   -0.260278
  46 C :   -0.207039
  47 C :   -0.207966
  48 C :    0.347082
  49 C :    0.326323
  50 C :    0.229793
  51 C :    0.248852
  52 C :    0.117907
  53 C :    0.120857
  54 C :    0.183351
  55 C :    0.184117
Sum of atomic charges:   -0.0000000

LOEWDIN ATOMIC CHARGES
----------------------
   0 H :    0.135809
   1 H :    0.134926
   2 H :    0.146542
   3 H :    0.147327
   4 H :    0.145153
   5 H :    0.145320
   6 H :    0.146512
   7 H :    0.147205
   8 H :    0.146935
   9 H :    0.146674
  10 H :    0.153391
  11 H :    0.152855
  12 H :    0.150897
  13 H :    0.150901
  14 H :    0.154500
  15 H :    0.154429
  16 H :    0.155144
  17 H :    0.153567
  18 H :    0.150949
  19 H :    0.151156
  20 H :    0.153631
  21 H :    0.155580
  22 N :    0.199110
  23 N :    0.199876
  24 N :    0.201810
  25 N :    0.199543
  26 C :   -0.174039
  27 C :   -0.173833
  28 C :   -0.158120
  29 C :   -0.160743
  30 C :   -0.156963
  31 C :   -0.153478
  32 C :   -0.145093
  33 C :   -0.143263
  34 C :   -0.142520
  35 C :   -0.146083
  36 C :   -0.106784
  37 C :   -0.106980
  38 C :   -0.115697
  39 C :   -0.126805
  40 C :   -0.082390
  41 C :   -0.082644
  42 C :   -0.096465
  43 C :   -0.094849
  44 C :   -0.126680
  45 C :   -0.110613
  46 C :   -0.095101
  47 C :   -0.096802
  48 C :   -0.226248
  49 C :   -0.225902
  50 C :   -0.204659
  51 C :   -0.205983
  52 C :   -0.107215
  53 C :   -0.107277
  54 C :   -0.103265
  55 C :   -0.103245

  Mayer bond orders larger than 0.100000
B(  0-H , 26-C ) :   0.9905 B(  1-H , 27-C ) :   0.9829 B(  2-H , 28-C ) :   0.9836
B(  3-H , 29-C ) :   0.9832 B(  4-H , 30-C ) :   0.9625 B(  5-H , 31-C ) :   0.9627
B(  6-H , 32-C ) :   0.9604 B(  7-H , 33-C ) :   0.9626 B(  8-H , 34-C ) :   0.9620
B(  9-H , 35-C ) :   0.9578 B( 10-H , 36-C ) :   0.9683 B( 11-H , 37-C ) :   0.9668
B( 12-H , 38-C ) :   0.9747 B( 13-H , 39-C ) :   0.9603 B( 14-H , 40-C ) :   0.9532
B( 15-H , 41-C ) :   0.9544 B( 16-H , 42-C ) :   0.9506 B( 17-H , 43-C ) :   0.9506
B( 18-H , 44-C ) :   0.9686 B( 19-H , 45-C ) :   0.9748 B( 20-H , 46-C ) :   0.9485
B( 21-H , 47-C ) :   0.9502 B( 22-N , 28-C ) :   1.6175 B( 22-N , 48-C ) :   1.3197
B( 23-N , 29-C ) :   1.6203 B( 23-N , 49-C ) :   1.3142 B( 24-N , 26-C ) :   1.9269
B( 24-N , 50-C ) :   1.0460 B( 25-N , 27-C ) :   1.9216 B( 25-N , 51-C ) :   1.0709
B( 26-C , 48-C ) :   0.9207 B( 27-C , 49-C ) :   0.9422 B( 28-C , 52-C ) :   1.3045
B( 29-C , 53-C ) :   1.3039 B( 30-C , 32-C ) :   1.4217 B( 30-C , 34-C ) :   1.4096
B( 31-C , 33-C ) :   1.4072 B( 31-C , 35-C ) :   1.4237 B( 32-C , 44-C ) :   1.4078
B( 33-C , 45-C ) :   1.4354 B( 34-C , 38-C ) :   1.4249 B( 35-C , 39-C ) :   1.4203
B( 36-C , 40-C ) :   1.4396 B( 36-C , 48-C ) :   1.3456 B( 37-C , 41-C ) :   1.4390
B( 37-C , 49-C ) :   1.3452 B( 38-C , 50-C ) :   1.4049 B( 39-C , 51-C ) :   1.3522
B( 40-C , 52-C ) :   1.3886 B( 41-C , 53-C ) :   1.3845 B( 42-C , 43-C ) :   1.4692
B( 42-C , 54-C ) :   1.3519 B( 43-C , 55-C ) :   1.3700 B( 44-C , 50-C ) :   1.3728
B( 45-C , 51-C ) :   1.3970 B( 46-C , 47-C ) :   1.4725 B( 46-C , 54-C ) :   1.3673
B( 47-C , 55-C ) :   1.3498 B( 52-C , 54-C ) :   0.9301 B( 53-C , 55-C ) :   0.9281

Dispersion correction           -0.068122714
FINAL SINGLE POINT ENERGY     -1374.327016439134

DIPOLE MOMENT
-------------
                                X             Y             Z
Electronic contribution:     -5.65109       1.85108      -0.13705
Nuclear contribution   :      4.56537      -1.49220       0.04420
                        -----------------------------------------
Total Dipole Moment    :     -1.08572       0.35887      -0.09285
                        -----------------------------------------
Magnitude (a.u.)       :      1.14726
Magnitude (Debye)      :      2.91610

Rotational constants in cm-1:     0.010213     0.000840     0.000804
Rotational constants in MHz :   306.180855    25.184865    24.108891

                             ****ORCA TERMINATED NORMALLY****
TOTAL RUN TIME: 0 days 0 hours 7 minutes 31 seconds 313 msec
