                         Program Version 4.2.1 -  RELEASE  -
|  1> # closed shell KS, PBE0/def2-SVP/D4
|  2> ! DFT SP RKS PBE0 def2-TZVP D4 Grid6 NOFINALGRID SlowConv TightSCF printbasis
|  3>
|  4> %base "_fe7ll_xtb_dft_sg86_1_0"
|  5> %maxcore 4000
|  6> %scf
|  7>    MaxIter 2000
|  8> end
|  9>
| 10> %pal
| 11>    nprocs 48
| 12> end
| 13>
| 14> * xyzfile 0 1 fe7ll_xtb_dft_sg86_1_0.xyz
| 15>
| 16>
| 17>                          ****END OF INPUT****

CARTESIAN COORDINATES (ANGSTROEM)
---------------------------------
  H     10.091500   17.169400   11.359800
  H      9.192100    0.682700   12.466900
  H     13.069900   12.674400   11.797700
  H      9.657100    5.993900   13.230400
  H     10.517100   20.382400    6.553900
  H      4.798300   -1.249000    9.326100
  H      9.482900   18.176100    6.051600
  H      7.157000   -0.727600    8.712900
  H     11.814300   20.688700    8.660700
  H      3.780300   -0.183300   11.333200
  H     14.117500   10.869100   19.824200
  H     18.127700    6.978500   13.234500
  H     14.270700    8.518500   19.011300
  H     17.538200    9.315600   13.877900
  H      9.842400   15.918300   13.594700
  H     11.383300    1.422300   13.724500
  H     12.132600   18.777800   10.217100
  H      5.088900    1.397300   12.704700
  H     10.522300   13.983800   15.029000
  H     12.866800    3.329300   14.302500
  H     13.349400   12.661200   18.290700
  H     16.328900    5.274100   13.026200
  H     13.683400    7.949300   16.689900
  H     15.218600    9.938400   14.369800
  H      9.791000   16.270600    7.609500
  H      8.478100    0.857900   10.090600
  H     12.595200   13.361900   16.079800
  H     13.992800    4.683000   13.139300
  H     13.115700    8.911000   11.961600
  H     13.716300   10.550700   11.608200
  H     12.260800    9.925200   10.767200
  H     10.168400    9.450700   14.433000
  H     10.700200    8.808800   16.028000
  H      9.140400    8.288500   15.327900
  N     11.945200   14.367400   11.453200
  N      9.287700    3.974400   13.043800
  N     11.241000   16.298500    9.858700
  N      7.667800    2.094800   12.281500
  O     11.927300   10.482500   12.672900
  O     10.736700    7.451200   14.448100
  C     10.735600   16.342800   11.034500
  C      8.850500    1.714100   12.618500
  C     12.334800   13.355500   12.226700
  C     10.086400    5.000200   13.321900
  C     10.655300   19.545000    7.241500
  C      5.383000   -0.554600    9.933900
  C     10.085100   18.303900    6.953600
  C      6.703400   -0.265500    9.592500
  C     11.381400   19.715700    8.418300
  C      4.811000    0.047300   11.055000
  C     13.848800   10.634400   18.792500
  C     17.085300    7.244900   13.421800
  C     13.935100    9.302800   18.329200
  C     16.749300    8.564900   13.790900
  C     10.548000   15.168800   13.230900
  C     11.042300    2.452000   13.601000
  C     11.556100   18.649300    9.299800
  C      5.547300    0.937400   11.831000
  C     10.937000   14.099700   14.025500
  C     11.868600    3.522000   13.906500
  C     13.424400   11.627600   17.943500
  C     16.092800    6.301600   13.311300
  C     13.606700    8.983000   17.030600
  C     15.445300    8.915800   14.067400
  C     10.266800   17.229100    7.817600
  C      7.451100    0.612000   10.371500
  C     12.636100   12.332200   15.715800
  C     13.718300    5.680300   13.487300
  C     11.065200   15.267800   11.942600
  C      9.758600    2.714000   13.128800
  C     11.015600   17.398900    8.985200
  C      6.879500    1.211700   11.503100
  C     12.394400   10.705700   13.935500
  C     12.054500    7.302000   14.197400
  C     11.852900   13.157600   13.535900
  C     11.434700    4.845100   13.700100
  C     13.075900   11.327300   16.601800
  C     14.743600    6.639300   13.584600
  C     12.307800   12.054200   14.402600
  C     12.401200    5.959400   13.796400
  C     13.171900    9.984600   16.127200
  C     14.401300    7.959400   13.989400
  C     12.816200    9.685700   14.771800
  C     13.031900    8.286800   14.291900
  C     12.806800    9.935500   11.717100
  C     10.175000    8.571400   15.092700

 Total Charge           Charge          ....    0
 Multiplicity           Mult            ....    1
 Number of Electrons    NEL             ....  354
 Basis Dimension        Dim             .... 1816

ORBITAL ENERGIES
----------------

  NO   OCC          E(Eh)            E(eV)
   0   2.0000     -19.251067      -523.8482
   1   2.0000     -19.240935      -523.5725
   2   2.0000     -14.387435      -391.5020
   3   2.0000     -14.384917      -391.4335
   4   2.0000     -14.384242      -391.4151
   5   2.0000     -14.378349      -391.2548
   6   2.0000     -10.311398      -280.5874
   7   2.0000     -10.302168      -280.3362
   8   2.0000     -10.276679      -279.6426
   9   2.0000     -10.272569      -279.5308
  10   2.0000     -10.272462      -279.5279
  11   2.0000     -10.271175      -279.4929
  12   2.0000     -10.269113      -279.4368
  13   2.0000     -10.268665      -279.4246
  14   2.0000     -10.267135      -279.3829
  15   2.0000     -10.259323      -279.1704
  16   2.0000     -10.259032      -279.1624
  17   2.0000     -10.258250      -279.1412
  18   2.0000     -10.257573      -279.1227
  19   2.0000     -10.257570      -279.1227
  20   2.0000     -10.257302      -279.1154
  21   2.0000     -10.256620      -279.0968
  22   2.0000     -10.255747      -279.0731
  23   2.0000     -10.255181      -279.0577
  24   2.0000     -10.254348      -279.0350
  25   2.0000     -10.253352      -279.0079
  26   2.0000     -10.252797      -278.9928
  27   2.0000     -10.251328      -278.9528
  28   2.0000     -10.251313      -278.9524
  29   2.0000     -10.248619      -278.8791
  30   2.0000     -10.247422      -278.8465
  31   2.0000     -10.245887      -278.8048
  32   2.0000     -10.244838      -278.7762
  33   2.0000     -10.244198      -278.7588
  34   2.0000     -10.242704      -278.7182
  35   2.0000     -10.240842      -278.6675
  36   2.0000     -10.239762      -278.6381
  37   2.0000     -10.239696      -278.6363
  38   2.0000     -10.238467      -278.6028
  39   2.0000     -10.237978      -278.5895
  40   2.0000     -10.235759      -278.5292
  41   2.0000     -10.234941      -278.5069
  42   2.0000     -10.226279      -278.2712
  43   2.0000     -10.225823      -278.2588
  44   2.0000     -10.225792      -278.2580
  45   2.0000     -10.225423      -278.2479
  46   2.0000     -10.223878      -278.2059
  47   2.0000     -10.223776      -278.2031
  48   2.0000     -10.221949      -278.1534
  49   2.0000     -10.221947      -278.1533
  50   2.0000     -10.221871      -278.1512
  51   2.0000     -10.220882      -278.1243
  52   2.0000      -1.114713       -30.3329
  53   2.0000      -1.104749       -30.0617
  54   2.0000      -0.986368       -26.8404
  55   2.0000      -0.982365       -26.7315
  56   2.0000      -0.954238       -25.9661
  57   2.0000      -0.950569       -25.8663
  58   2.0000      -0.925768       -25.1914
  59   2.0000      -0.913028       -24.8448
  60   2.0000      -0.875428       -23.8216
  61   2.0000      -0.873360       -23.7653
  62   2.0000      -0.869524       -23.6610
  63   2.0000      -0.867825       -23.6147
  64   2.0000      -0.853482       -23.2244
  65   2.0000      -0.834442       -22.7063
  66   2.0000      -0.825842       -22.4723
  67   2.0000      -0.813829       -22.1454
  68   2.0000      -0.809812       -22.0361
  69   2.0000      -0.799319       -21.7506
  70   2.0000      -0.786213       -21.3940
  71   2.0000      -0.782930       -21.3046
  72   2.0000      -0.768768       -20.9192
  73   2.0000      -0.767108       -20.8741
  74   2.0000      -0.766547       -20.8588
  75   2.0000      -0.764009       -20.7897
  76   2.0000      -0.752900       -20.4875
  77   2.0000      -0.744777       -20.2664
  78   2.0000      -0.732895       -19.9431
  79   2.0000      -0.715214       -19.4620
  80   2.0000      -0.696930       -18.9644
  81   2.0000      -0.694256       -18.8917
  82   2.0000      -0.667845       -18.1730
  83   2.0000      -0.662372       -18.0241
  84   2.0000      -0.656271       -17.8580
  85   2.0000      -0.648046       -17.6342
  86   2.0000      -0.638415       -17.3722
  87   2.0000      -0.635811       -17.3013
  88   2.0000      -0.634722       -17.2717
  89   2.0000      -0.625064       -17.0089
  90   2.0000      -0.624612       -16.9966
  91   2.0000      -0.620316       -16.8797
  92   2.0000      -0.617479       -16.8025
  93   2.0000      -0.604458       -16.4481
  94   2.0000      -0.587483       -15.9862
  95   2.0000      -0.585066       -15.9204
  96   2.0000      -0.560578       -15.2541
  97   2.0000      -0.558326       -15.1928
  98   2.0000      -0.555688       -15.1210
  99   2.0000      -0.554148       -15.0791
 100   2.0000      -0.552393       -15.0314
 101   2.0000      -0.540829       -14.7167
 102   2.0000      -0.539651       -14.6847
 103   2.0000      -0.537953       -14.6385
 104   2.0000      -0.523938       -14.2571
 105   2.0000      -0.517911       -14.0931
 106   2.0000      -0.506774       -13.7900
 107   2.0000      -0.501773       -13.6539
 108   2.0000      -0.498400       -13.5622
 109   2.0000      -0.495160       -13.4740
 110   2.0000      -0.493614       -13.4319
 111   2.0000      -0.487170       -13.2566
 112   2.0000      -0.485014       -13.1979
 113   2.0000      -0.481682       -13.1072
 114   2.0000      -0.477928       -13.0051
 115   2.0000      -0.474827       -12.9207
 116   2.0000      -0.471788       -12.8380
 117   2.0000      -0.471684       -12.8352
 118   2.0000      -0.469300       -12.7703
 119   2.0000      -0.465067       -12.6551
 120   2.0000      -0.462166       -12.5762
 121   2.0000      -0.457058       -12.4372
 122   2.0000      -0.454139       -12.3577
 123   2.0000      -0.451489       -12.2856
 124   2.0000      -0.446895       -12.1606
 125   2.0000      -0.446333       -12.1453
 126   2.0000      -0.444447       -12.0940
 127   2.0000      -0.442592       -12.0435
 128   2.0000      -0.440970       -11.9994
 129   2.0000      -0.432292       -11.7633
 130   2.0000      -0.430958       -11.7270
 131   2.0000      -0.429711       -11.6930
 132   2.0000      -0.427985       -11.6461
 133   2.0000      -0.424868       -11.5612
 134   2.0000      -0.423432       -11.5222
 135   2.0000      -0.421171       -11.4607
 136   2.0000      -0.417814       -11.3693
 137   2.0000      -0.413356       -11.2480
 138   2.0000      -0.410225       -11.1628
 139   2.0000      -0.395515       -10.7625
 140   2.0000      -0.389648       -10.6029
 141   2.0000      -0.386910       -10.5284
 142   2.0000      -0.383973       -10.4484
 143   2.0000      -0.383126       -10.4254
 144   2.0000      -0.382137       -10.3985
 145   2.0000      -0.375556       -10.2194
 146   2.0000      -0.373177       -10.1547
 147   2.0000      -0.369233       -10.0473
 148   2.0000      -0.366938        -9.9849
 149   2.0000      -0.366192        -9.9646
 150   2.0000      -0.362588        -9.8665
 151   2.0000      -0.359805        -9.7908
 152   2.0000      -0.355251        -9.6669
 153   2.0000      -0.351876        -9.5750
 154   2.0000      -0.348225        -9.4757
 155   2.0000      -0.346111        -9.4182
 156   2.0000      -0.337411        -9.1814
 157   2.0000      -0.328882        -8.9493
 158   2.0000      -0.318787        -8.6746
 159   2.0000      -0.309241        -8.4149
 160   2.0000      -0.306443        -8.3387
 161   2.0000      -0.304000        -8.2723
 162   2.0000      -0.303287        -8.2529
 163   2.0000      -0.299531        -8.1507
 164   2.0000      -0.294954        -8.0261
 165   2.0000      -0.282814        -7.6958
 166   2.0000      -0.281387        -7.6569
 167   2.0000      -0.275061        -7.4848
 168   2.0000      -0.268182        -7.2976
 169   2.0000      -0.264266        -7.1910
 170   2.0000      -0.264056        -7.1853
 171   2.0000      -0.251071        -6.8320
 172   2.0000      -0.242215        -6.5910
 173   2.0000      -0.237346        -6.4585
 174   2.0000      -0.233386        -6.3508
 175   2.0000      -0.231932        -6.3112
 176   2.0000      -0.226098        -6.1524
 177   0.0000      -0.080174        -2.1816
 178   0.0000      -0.076934        -2.0935
 179   0.0000      -0.055028        -1.4974
 180   0.0000      -0.047409        -1.2901
 181   0.0000      -0.032039        -0.8718

MULLIKEN ATOMIC CHARGES
-----------------------
   0 H :    0.106891
   1 H :    0.113405
   2 H :    0.105266
   3 H :    0.141753
   4 H :    0.114603
   5 H :    0.114833
   6 H :    0.116523
   7 H :    0.115694
   8 H :    0.115063
   9 H :    0.116469
  10 H :    0.119616
  11 H :    0.118052
  12 H :    0.119488
  13 H :    0.118459
  14 H :    0.125114
  15 H :    0.123908
  16 H :    0.121094
  17 H :    0.113267
  18 H :    0.146203
  19 H :    0.142329
  20 H :    0.116326
  21 H :    0.113784
  22 H :    0.140154
  23 H :    0.140139
  24 H :    0.113742
  25 H :    0.129950
  26 H :    0.132851
  27 H :    0.127232
  28 H :    0.150011
  29 H :    0.110791
  30 H :    0.150871
  31 H :    0.132725
  32 H :    0.133157
  33 H :    0.149674
  34 N :   -0.167797
  35 N :   -0.158524
  36 N :   -0.081735
  37 N :   -0.094312
  38 O :   -0.274274
  39 O :   -0.248084
  40 C :   -0.259057
  41 C :   -0.243781
  42 C :   -0.113865
  43 C :   -0.135018
  44 C :   -0.142736
  45 C :   -0.144352
  46 C :   -0.074033
  47 C :   -0.085927
  48 C :   -0.081113
  49 C :   -0.062813
  50 C :   -0.107927
  51 C :   -0.122170
  52 C :   -0.106124
  53 C :   -0.103301
  54 C :   -0.192165
  55 C :   -0.194101
  56 C :   -0.258739
  57 C :   -0.261324
  58 C :   -0.211643
  59 C :   -0.191124
  60 C :   -0.225490
  61 C :   -0.216462
  62 C :   -0.221886
  63 C :   -0.258723
  64 C :   -0.247806
  65 C :   -0.280259
  66 C :   -0.382388
  67 C :   -0.366532
  68 C :    0.363429
  69 C :    0.336200
  70 C :    0.212745
  71 C :    0.249868
  72 C :    0.188218
  73 C :    0.307313
  74 C :    0.119425
  75 C :    0.057946
  76 C :    0.196114
  77 C :    0.196787
  78 C :    0.166530
  79 C :    0.167623
  80 C :    0.048026
  81 C :    0.026624
  82 C :   -0.045090
  83 C :   -0.100107
  84 C :   -0.210283
  85 C :   -0.215222
Sum of atomic charges:   -0.0000000

LOEWDIN ATOMIC CHARGES
----------------------
   0 H :    0.134406
   1 H :    0.134406
   2 H :    0.144424
   3 H :    0.148442
   4 H :    0.144839
   5 H :    0.144966
   6 H :    0.146788
   7 H :    0.146262
   8 H :    0.146140
   9 H :    0.146811
  10 H :    0.148063
  11 H :    0.147557
  12 H :    0.149152
  13 H :    0.148960
  14 H :    0.152729
  15 H :    0.151918
  16 H :    0.149684
  17 H :    0.150902
  18 H :    0.156602
  19 H :    0.155075
  20 H :    0.151067
  21 H :    0.150410
  22 H :    0.163253
  23 H :    0.163260
  24 H :    0.150959
  25 H :    0.150858
  26 H :    0.159500
  27 H :    0.159537
  28 H :    0.121949
  29 H :    0.107828
  30 H :    0.119913
  31 H :    0.121751
  32 H :    0.122981
  33 H :    0.118822
  34 N :    0.193899
  35 N :    0.194898
  36 N :    0.203841
  37 N :    0.198703
  38 O :    0.251287
  39 O :    0.272641
  40 C :   -0.173429
  41 C :   -0.174306
  42 C :   -0.148387
  43 C :   -0.156165
  44 C :   -0.157956
  45 C :   -0.154970
  46 C :   -0.142971
  47 C :   -0.146718
  48 C :   -0.145049
  49 C :   -0.143949
  50 C :   -0.143734
  51 C :   -0.147672
  52 C :   -0.136463
  53 C :   -0.137439
  54 C :   -0.110129
  55 C :   -0.114302
  56 C :   -0.126337
  57 C :   -0.111116
  58 C :   -0.083965
  59 C :   -0.087683
  60 C :   -0.101450
  61 C :   -0.101451
  62 C :   -0.096102
  63 C :   -0.098399
  64 C :   -0.115766
  65 C :   -0.126690
  66 C :   -0.057483
  67 C :   -0.057560
  68 C :   -0.226424
  69 C :   -0.229892
  70 C :   -0.204687
  71 C :   -0.205655
  72 C :   -0.196732
  73 C :   -0.177414
  74 C :   -0.099151
  75 C :   -0.098553
  76 C :   -0.099366
  77 C :   -0.106990
  78 C :   -0.080718
  79 C :   -0.071799
  80 C :   -0.068253
  81 C :   -0.069919
  82 C :   -0.066565
  83 C :   -0.067772
  84 C :   -0.337367
  85 C :   -0.320582

  Mayer bond orders larger than 0.100000
B(  0-H , 40-C ) :   0.9934 B(  1-H , 41-C ) :   0.9846 B(  2-H , 42-C ) :   0.9895
B(  3-H , 43-C ) :   0.9744 B(  4-H , 44-C ) :   0.9626 B(  5-H , 45-C ) :   0.9630
B(  6-H , 46-C ) :   0.9620 B(  7-H , 47-C ) :   0.9581 B(  8-H , 48-C ) :   0.9604
B(  9-H , 49-C ) :   0.9629 B( 10-H , 50-C ) :   0.9690 B( 11-H , 51-C ) :   0.9707
B( 12-H , 52-C ) :   0.9689 B( 13-H , 53-C ) :   0.9699 B( 14-H , 54-C ) :   0.9685
B( 15-H , 55-C ) :   0.9670 B( 16-H , 56-C ) :   0.9652 B( 17-H , 57-C ) :   0.9750
B( 18-H , 58-C ) :   0.9578 B( 19-H , 59-C ) :   0.9411 B( 20-H , 60-C ) :   0.9854
B( 21-H , 61-C ) :   0.9841 B( 22-H , 62-C ) :   0.9523 B( 23-H , 63-C ) :   0.9459
B( 24-H , 64-C ) :   0.9749 B( 25-H , 65-C ) :   0.9605 B( 26-H , 66-C ) :   0.9819
B( 27-H , 67-C ) :   0.9546 B( 28-H , 84-C ) :   0.9577 B( 29-H , 84-C ) :   0.9573
B( 30-H , 84-C ) :   0.9675 B( 31-H , 85-C ) :   0.9606 B( 32-H , 85-C ) :   0.9603
B( 33-H , 85-C ) :   0.9618 B( 34-N , 42-C ) :   1.6142 B( 34-N , 68-C ) :   1.3287
B( 35-N , 43-C ) :   1.6064 B( 35-N , 69-C ) :   1.3248 B( 36-N , 40-C ) :   1.9449
B( 36-N , 70-C ) :   1.0496 B( 37-N , 41-C ) :   1.9333 B( 37-N , 71-C ) :   1.0703
B( 38-O , 72-C ) :   1.1159 B( 38-O , 84-C ) :   0.9298 B( 39-O , 73-C ) :   1.1393
B( 39-O , 85-C ) :   0.9334 B( 40-C , 68-C ) :   0.9064 B( 41-C , 69-C ) :   0.9391
B( 42-C , 74-C ) :   1.2799 B( 43-C , 75-C ) :   1.2920 B( 44-C , 46-C ) :   1.4043
B( 44-C , 48-C ) :   1.4269 B( 45-C , 47-C ) :   1.4235 B( 45-C , 49-C ) :   1.4074
B( 46-C , 64-C ) :   1.4334 B( 47-C , 65-C ) :   1.4176 B( 48-C , 56-C ) :   1.4108
B( 49-C , 57-C ) :   1.4335 B( 50-C , 52-C ) :   1.2660 B( 50-C , 60-C ) :   1.5317
B( 51-C , 53-C ) :   1.2731 B( 51-C , 61-C ) :   1.5251 B( 52-C , 62-C ) :   1.5516
B( 53-C , 63-C ) :   1.5555 B( 54-C , 58-C ) :   1.4287 B( 54-C , 68-C ) :   1.3569
B( 55-C , 59-C ) :   1.4495 B( 55-C , 69-C ) :   1.3437 B( 56-C , 70-C ) :   1.3864
B( 57-C , 71-C ) :   1.3979 B( 58-C , 74-C ) :   1.4032 B( 59-C , 75-C ) :   1.4072
B( 60-C , 76-C ) :   1.2155 B( 61-C , 77-C ) :   1.2103 B( 62-C , 80-C ) :   1.3100
B( 63-C , 81-C ) :   1.3177 B( 63-C , 83-C ) :  -0.1057 B( 64-C , 70-C ) :   1.3990
B( 65-C , 71-C ) :   1.3546 B( 66-C , 76-C ) :   1.1980 B( 66-C , 78-C ) :   1.4685
B( 67-C , 77-C ) :   1.2318 B( 67-C , 79-C ) :   1.4673 B( 72-C , 78-C ) :   1.2339
B( 72-C , 82-C ) :   1.3678 B( 73-C , 79-C ) :   1.2047 B( 73-C , 83-C ) :   1.3137
B( 74-C , 78-C ) :   0.8571 B( 75-C , 79-C ) :   0.9023 B( 76-C , 80-C ) :   1.2887
B( 77-C , 81-C ) :   1.2905 B( 80-C , 82-C ) :   1.0532 B( 81-C , 83-C ) :   1.0063
B( 82-C , 83-C ) :   0.4835

Dispersion correction           -0.122236048
FINAL SINGLE POINT ENERGY     -2141.131636276534

DIPOLE MOMENT
-------------
                                X             Y             Z
Electronic contribution:      1.55718      -1.55800       5.64214
Nuclear contribution   :     -0.38206       1.52092      -3.85654
                        -----------------------------------------
Total Dipole Moment    :      1.17512      -0.03708       1.78560
                        -----------------------------------------
Magnitude (a.u.)       :      2.13791
Magnitude (Debye)      :      5.43413

Rotational constants in cm-1:     0.001957     0.000708     0.000577
Rotational constants in MHz :    58.681686    21.210929    17.298258

                             ****ORCA TERMINATED NORMALLY****
TOTAL RUN TIME: 0 days 0 hours 18 minutes 15 seconds 761 msec
