                         Program Version 4.2.1 -  RELEASE  -
|  1> # closed shell KS, PBE0/def2-SVP/D4
|  2> ! DFT SP RKS PBE0 def2-TZVP D4 Grid6 NOFINALGRID SlowConv TightSCF printbasis
|  3>
|  4> %base "_lD"
|  5> %maxcore 4000
|  6> %scf
|  7>    MaxIter 2000
|  8> end
|  9>
| 10> %pal
| 11>    nprocs 48
| 12> end
| 13>
| 14> * xyzfile 0 1 longD_dopt.xyz
| 15>
| 16>
| 17>                          ****END OF INPUT****

CARTESIAN COORDINATES (ANGSTROEM)
---------------------------------
  H     -7.446550   -0.841890   -1.283927
  C     -7.091984   -0.229864   -0.434236
  N     -7.867105    0.402843    0.353133
  C     -9.251209    0.295538    0.230475
  C     -9.901297   -0.908891   -0.085150
  C    -11.289234   -0.952528   -0.176357
  C    -12.047548    0.198077    0.037105
  C    -11.407573    1.394626    0.363398
  C    -10.022941    1.440784    0.477298
  H     -9.505998    2.363702    0.747228
  H    -11.995470    2.298031    0.543077
  H    -13.136796    0.159308   -0.036117
  H    -11.784455   -1.898136   -0.410542
  H     -9.311829   -1.817577   -0.227807
  C     -5.631814   -0.181598   -0.287217
  N     -4.925621   -0.857531   -1.198669
  C     -3.604785   -0.839441   -1.111249
  C     -2.889519   -0.150339   -0.116859
  C     -3.646676    0.547423    0.836249
  C     -5.028710    0.534186    0.755436
  H     -5.663787    1.067338    1.464687
  H     -3.145272    1.116501    1.623037
  C     -1.416855   -0.169418   -0.077985
  C     -0.659607   -0.140879   -1.258435
  C      0.728239   -0.145749   -1.217318
  C      1.415967   -0.186662    0.004319
  C      0.658573   -0.223007    1.184463
  C     -0.729050   -0.211109    1.143567
  H     -1.292316   -0.250357    2.078786
  H      1.166035   -0.239499    2.151561
  C      2.888588   -0.183192    0.047524
  C      3.593589   -0.935806    1.002446
  N      4.913383   -0.962944    1.100305
  C      5.629360   -0.233574    0.239133
  C      5.037346    0.542868   -0.765799
  C      3.656008    0.565690   -0.857296
  H      3.163086    1.183027   -1.612470
  H      5.679950    1.116155   -1.435881
  C      7.087329   -0.284976    0.404958
  N      7.870678    0.398733   -0.329865
  C      9.253421    0.298874   -0.185640
  C     10.015675    1.463478   -0.360671
  C     11.398112    1.428219   -0.219489
  C     12.046315    0.225075    0.062870
  C     11.298300   -0.943321    0.204363
  C      9.912203   -0.911678    0.085331
  H      9.331948   -1.833312    0.171581
  H     11.800515   -1.893287    0.403384
  H     13.134166    0.195678    0.157948
  H     11.977958    2.346205   -0.342652
  H      9.492685    2.392356   -0.596362
  H      7.431659   -0.943571    1.223473
  H      3.040403   -1.565608    1.708940
  H      1.291450   -0.132432   -2.153321
  H     -1.166985   -0.092536   -2.224526
  H     -3.059596   -1.425539   -1.860297

 Total Charge           Charge          ....    0
 Multiplicity           Mult            ....    1
 Number of Electrons    NEL             ....  230
 Basis Dimension        Dim             .... 1186

ORBITAL ENERGIES
----------------

  NO   OCC          E(Eh)            E(eV)
   0   2.0000     -14.394897      -391.7051
   1   2.0000     -14.394831      -391.7033
   2   2.0000     -14.393326      -391.6623
   3   2.0000     -14.393268      -391.6607
   4   2.0000     -10.276313      -279.6327
   5   2.0000     -10.276221      -279.6302
   6   2.0000     -10.275516      -279.6110
   7   2.0000     -10.275471      -279.6098
   8   2.0000     -10.271849      -279.5112
   9   2.0000     -10.271769      -279.5090
  10   2.0000     -10.264240      -279.3042
  11   2.0000     -10.264234      -279.3040
  12   2.0000     -10.261644      -279.2335
  13   2.0000     -10.261611      -279.2326
  14   2.0000     -10.260015      -279.1892
  15   2.0000     -10.259998      -279.1887
  16   2.0000     -10.257035      -279.1081
  17   2.0000     -10.257008      -279.1074
  18   2.0000     -10.248711      -278.8816
  19   2.0000     -10.248622      -278.8792
  20   2.0000     -10.248074      -278.8643
  21   2.0000     -10.247992      -278.8620
  22   2.0000     -10.246406      -278.8189
  23   2.0000     -10.246400      -278.8187
  24   2.0000     -10.233192      -278.4593
  25   2.0000     -10.233110      -278.4571
  26   2.0000     -10.232236      -278.4333
  27   2.0000     -10.232160      -278.4312
  28   2.0000     -10.232158      -278.4312
  29   2.0000     -10.232112      -278.4299
  30   2.0000     -10.230242      -278.3790
  31   2.0000     -10.230127      -278.3759
  32   2.0000     -10.228988      -278.3449
  33   2.0000     -10.228949      -278.3439
  34   2.0000      -0.993539       -27.0356
  35   2.0000      -0.993450       -27.0332
  36   2.0000      -0.970179       -26.3999
  37   2.0000      -0.970075       -26.3971
  38   2.0000      -0.912928       -24.8420
  39   2.0000      -0.878268       -23.8989
  40   2.0000      -0.877851       -23.8875
  41   2.0000      -0.865709       -23.5571
  42   2.0000      -0.841005       -22.8849
  43   2.0000      -0.822662       -22.3858
  44   2.0000      -0.813786       -22.1443
  45   2.0000      -0.790169       -21.5016
  46   2.0000      -0.785954       -21.3869
  47   2.0000      -0.774043       -21.0628
  48   2.0000      -0.773241       -21.0410
  49   2.0000      -0.767127       -20.8746
  50   2.0000      -0.755146       -20.5486
  51   2.0000      -0.709738       -19.3130
  52   2.0000      -0.685517       -18.6539
  53   2.0000      -0.677493       -18.4355
  54   2.0000      -0.665424       -18.1071
  55   2.0000      -0.652250       -17.7486
  56   2.0000      -0.639252       -17.3949
  57   2.0000      -0.634470       -17.2648
  58   2.0000      -0.627582       -17.0774
  59   2.0000      -0.625572       -17.0227
  60   2.0000      -0.615039       -16.7361
  61   2.0000      -0.591201       -16.0874
  62   2.0000      -0.590402       -16.0656
  63   2.0000      -0.564617       -15.3640
  64   2.0000      -0.553415       -15.0592
  65   2.0000      -0.550227       -14.9724
  66   2.0000      -0.537842       -14.6354
  67   2.0000      -0.521802       -14.1990
  68   2.0000      -0.517824       -14.0907
  69   2.0000      -0.510072       -13.8798
  70   2.0000      -0.504650       -13.7322
  71   2.0000      -0.493927       -13.4404
  72   2.0000      -0.487373       -13.2621
  73   2.0000      -0.479593       -13.0504
  74   2.0000      -0.475416       -12.9367
  75   2.0000      -0.474967       -12.9245
  76   2.0000      -0.466882       -12.7045
  77   2.0000      -0.466341       -12.6898
  78   2.0000      -0.457218       -12.4415
  79   2.0000      -0.453551       -12.3418
  80   2.0000      -0.453005       -12.3269
  81   2.0000      -0.448685       -12.2093
  82   2.0000      -0.444383       -12.0923
  83   2.0000      -0.438631       -11.9358
  84   2.0000      -0.436588       -11.8802
  85   2.0000      -0.435774       -11.8580
  86   2.0000      -0.428154       -11.6507
  87   2.0000      -0.424186       -11.5427
  88   2.0000      -0.422619       -11.5000
  89   2.0000      -0.409781       -11.1507
  90   2.0000      -0.404249       -11.0002
  91   2.0000      -0.395422       -10.7600
  92   2.0000      -0.391908       -10.6644
  93   2.0000      -0.381256       -10.3745
  94   2.0000      -0.376415       -10.2428
  95   2.0000      -0.376312       -10.2400
  96   2.0000      -0.369663       -10.0590
  97   2.0000      -0.367601       -10.0029
  98   2.0000      -0.365048        -9.9335
  99   2.0000      -0.356707        -9.7065
 100   2.0000      -0.353374        -9.6158
 101   2.0000      -0.329937        -8.9780
 102   2.0000      -0.315503        -8.5853
 103   2.0000      -0.306976        -8.3532
 104   2.0000      -0.304692        -8.2911
 105   2.0000      -0.297568        -8.0972
 106   2.0000      -0.287269        -7.8170
 107   2.0000      -0.284786        -7.7494
 108   2.0000      -0.282020        -7.6741
 109   2.0000      -0.278400        -7.5757
 110   2.0000      -0.270852        -7.3702
 111   2.0000      -0.270633        -7.3643
 112   2.0000      -0.257665        -7.0114
 113   2.0000      -0.242245        -6.5918
 114   2.0000      -0.234290        -6.3754
 115   0.0000      -0.088082        -2.3968
 116   0.0000      -0.072144        -1.9631
 117   0.0000      -0.038085        -1.0363
 118   0.0000      -0.035845        -0.9754
 119   0.0000      -0.029946        -0.8149

MULLIKEN ATOMIC CHARGES
-----------------------
   0 H :    0.101319
   1 C :   -0.097485
   2 N :   -0.167767
   3 C :    0.269922
   4 C :   -0.262174
   5 C :   -0.098535
   6 C :   -0.132056
   7 C :   -0.071389
   8 C :   -0.242819
   9 H :    0.112587
  10 H :    0.118002
  11 H :    0.118555
  12 H :    0.119188
  13 H :    0.128349
  14 C :    0.229102
  15 N :   -0.203058
  16 C :   -0.124453
  17 C :    0.125935
  18 C :   -0.169764
  19 C :   -0.193692
  20 H :    0.139671
  21 H :    0.139862
  22 C :    0.188113
  23 C :   -0.215727
  24 C :   -0.213106
  25 C :    0.188037
  26 C :   -0.216398
  27 C :   -0.213482
  28 H :    0.132367
  29 H :    0.137073
  30 C :    0.126157
  31 C :   -0.124831
  32 N :   -0.203110
  33 C :    0.227764
  34 C :   -0.193850
  35 C :   -0.169409
  36 H :    0.139437
  37 H :    0.139580
  38 C :   -0.095658
  39 N :   -0.167957
  40 C :    0.269532
  41 C :   -0.242094
  42 C :   -0.071409
  43 C :   -0.131944
  44 C :   -0.098731
  45 C :   -0.261559
  46 H :    0.128050
  47 H :    0.119219
  48 H :    0.118612
  49 H :    0.118017
  50 H :    0.112594
  51 H :    0.100777
  52 H :    0.132984
  53 H :    0.132101
  54 H :    0.136881
  55 H :    0.132671
Sum of atomic charges:   -0.0000000

LOEWDIN ATOMIC CHARGES
----------------------
   0 H :    0.140475
   1 C :   -0.164015
   2 N :    0.177938
   3 C :   -0.216607
   4 C :   -0.118673
   5 C :   -0.143922
   6 C :   -0.148251
   7 C :   -0.142994
   8 C :   -0.107477
   9 H :    0.151176
  10 H :    0.147742
  11 H :    0.146283
  12 H :    0.147777
  13 H :    0.150664
  14 C :   -0.224103
  15 N :    0.170411
  16 C :   -0.167205
  17 C :   -0.105905
  18 C :   -0.081597
  19 C :   -0.087192
  20 H :    0.159580
  21 H :    0.155993
  22 C :   -0.104576
  23 C :   -0.096053
  24 C :   -0.096577
  25 C :   -0.104576
  26 C :   -0.096051
  27 C :   -0.096602
  28 H :    0.154745
  29 H :    0.155493
  30 C :   -0.105937
  31 C :   -0.167382
  32 N :    0.170459
  33 C :   -0.224128
  34 C :   -0.087186
  35 C :   -0.081517
  36 H :    0.155934
  37 H :    0.159553
  38 C :   -0.164122
  39 N :    0.177764
  40 C :   -0.216542
  41 C :   -0.107322
  42 C :   -0.143009
  43 C :   -0.148080
  44 C :   -0.143891
  45 C :   -0.118526
  46 H :    0.150621
  47 H :    0.147780
  48 H :    0.146302
  49 H :    0.147756
  50 H :    0.151207
  51 H :    0.140393
  52 H :    0.146973
  53 H :    0.154663
  54 H :    0.155414
  55 H :    0.146922

  Mayer bond orders larger than 0.100000
B(  0-H ,  1-C ) :   0.9239 B(  1-C ,  2-N ) :   1.8829 B(  1-C , 14-C ) :   1.0525
B(  2-N ,  3-C ) :   1.0574 B(  2-N , 14-C ) :  -0.1123 B(  3-C ,  4-C ) :   1.3534
B(  3-C ,  8-C ) :   1.4002 B(  4-C ,  5-C ) :   1.4387 B(  4-C , 13-H ) :   0.9566
B(  5-C ,  6-C ) :   1.4202 B(  5-C , 12-H ) :   0.9573 B(  6-C ,  7-C ) :   1.4054
B(  6-C , 11-H ) :   0.9623 B(  7-C ,  8-C ) :   1.4392 B(  7-C , 10-H ) :   0.9646
B(  8-C ,  9-H ) :   0.9707 B( 14-C , 15-N ) :   1.3808 B( 14-C , 19-C ) :   1.3777
B( 15-N , 16-C ) :   1.5619 B( 16-C , 17-C ) :   1.3359 B( 16-C , 55-H ) :   0.9764
B( 17-C , 18-C ) :   1.3549 B( 17-C , 22-C ) :   0.8932 B( 18-C , 19-C ) :   1.4328
B( 18-C , 21-H ) :   0.9569 B( 19-C , 20-H ) :   0.9493 B( 22-C , 23-C ) :   1.3615
B( 22-C , 27-C ) :   1.3664 B( 23-C , 24-C ) :   1.4624 B( 23-C , 54-H ) :   0.9517
B( 24-C , 25-C ) :   1.3663 B( 24-C , 53-H ) :   0.9518 B( 25-C , 26-C ) :   1.3616
B( 25-C , 30-C ) :   0.8936 B( 26-C , 27-C ) :   1.4628 B( 26-C , 29-H ) :   0.9514
B( 27-C , 28-H ) :   0.9515 B( 30-C , 31-C ) :   1.3354 B( 30-C , 35-C ) :   1.3556
B( 31-C , 32-N ) :   1.5622 B( 31-C , 52-H ) :   0.9762 B( 32-N , 33-C ) :   1.3805
B( 33-C , 34-C ) :   1.3778 B( 33-C , 38-C ) :   1.0544 B( 33-C , 39-N ) :  -0.1117
B( 34-C , 35-C ) :   1.4327 B( 34-C , 37-H ) :   0.9493 B( 35-C , 36-H ) :   0.9570
B( 38-C , 39-N ) :   1.8823 B( 38-C , 51-H ) :   0.9227 B( 39-N , 40-C ) :   1.0581
B( 40-C , 41-C ) :   1.4006 B( 40-C , 45-C ) :   1.3531 B( 41-C , 42-C ) :   1.4388
B( 41-C , 50-H ) :   0.9706 B( 42-C , 43-C ) :   1.4058 B( 42-C , 49-H ) :   0.9646
B( 43-C , 44-C ) :   1.4198 B( 43-C , 48-H ) :   0.9623 B( 44-C , 45-C ) :   1.4390
B( 44-C , 47-H ) :   0.9573 B( 45-C , 46-H ) :   0.9565

Dispersion correction           -0.067559772
FINAL SINGLE POINT ENERGY     -1374.362890329532

DIPOLE MOMENT
-------------
                                X             Y             Z
Electronic contribution:      0.00167      -0.98402      -0.16280
Nuclear contribution   :      0.00626       1.20467       0.17144
                        -----------------------------------------
Total Dipole Moment    :      0.00793       0.22066       0.00864
                        -----------------------------------------
Magnitude (a.u.)       :      0.22097
Magnitude (Debye)      :      0.56166

Rotational constants in cm-1:     0.035131     0.000699     0.000698
Rotational constants in MHz :  1053.196442    20.960518    20.929379

                             ****ORCA TERMINATED NORMALLY****
TOTAL RUN TIME: 0 days 0 hours 6 minutes 38 seconds 56 msec
