                         Program Version 4.2.1 -  RELEASE  -
|  1> # closed shell KS, PBE0/def2-SVP/D4
|  2> ! DFT SP RKS PBE0 def2-TZVP D4 Grid6 NOFINALGRID SlowConv TightSCF printbasis
|  3>
|  4> %base "_lC"
|  5> %maxcore 4000
|  6> %scf
|  7>    MaxIter 2000
|  8> end
|  9>
| 10> %pal
| 11>    nprocs 48
| 12> end
| 13>
| 14> * xyzfile 0 1 longC_dopt.xyz
| 15>
| 16>
| 17>                          ****END OF INPUT****

CARTESIAN COORDINATES (ANGSTROEM)
---------------------------------
  H     -5.230590    1.537973    0.389160
  C     -4.922778    0.513920    0.108893
  N     -5.739320   -0.416972   -0.187693
  C     -7.116474   -0.218147   -0.105392
  C     -7.929430   -0.896996   -1.025647
  C     -9.310268   -0.738184   -0.998326
  C     -9.905187    0.074516   -0.032493
  C     -9.106270    0.727886    0.905726
  C     -7.722435    0.587675    0.872911
  H     -7.104549    1.077872    1.628722
  H     -9.566815    1.347490    1.679295
  H    -10.991492    0.186145   -0.001601
  H     -9.930168   -1.262285   -1.729867
  H     -7.446305   -1.539824   -1.764226
  C     -3.470014    0.303904    0.087190
  N     -2.719630    1.356572    0.427598
  C     -1.403473    1.221108    0.417958
  C     -0.734317    0.037628    0.060430
  C     -1.536819   -1.060042   -0.289103
  C     -2.915250   -0.932031   -0.271753
  H     -3.584409   -1.750601   -0.541501
  H     -1.076098   -2.001589   -0.597258
  C      0.734323   -0.037053    0.060552
  C      1.403309   -1.223814    0.407335
  N      2.719465   -1.359308    0.416406
  C      3.469995   -0.303497    0.086217
  C      2.915401    0.935795   -0.261213
  C      1.536976    1.063926   -0.278051
  H      1.076387    2.008335   -0.577515
  H      3.584672    1.756863   -0.522985
  C      4.922712   -0.514009    0.106014
  N      5.739526    0.419159   -0.182562
  C      7.116598    0.218588   -0.102774
  C      7.929484    0.903598   -1.018503
  C      9.310168    0.743055   -0.993608
  C      9.905025   -0.077635   -0.034520
  C      9.106211   -0.737246    0.899401
  C      7.722492   -0.595339    0.868826
  H      7.104695   -1.090669    1.621360
  H      9.566730   -1.363259    1.667812
  H     10.991231   -0.190722   -0.005515
  H      9.930006    1.271974   -1.721728
  H      7.446429    1.552518   -1.751783
  H      5.230259   -1.540625    0.377071
  H      0.823659   -2.102628    0.713011
  H     -0.823967    2.096992    0.732189

 Total Charge           Charge          ....    0
 Multiplicity           Mult            ....    1
 Number of Electrons    NEL             ....  190
 Basis Dimension        Dim             ....  976

ORBITAL ENERGIES
----------------

  NO   OCC          E(Eh)            E(eV)
   0   2.0000     -14.397965      -391.7885
   1   2.0000     -14.397962      -391.7885
   2   2.0000     -14.395411      -391.7191
   3   2.0000     -14.395405      -391.7189
   4   2.0000     -10.279049      -279.7071
   5   2.0000     -10.279048      -279.7071
   6   2.0000     -10.277913      -279.6762
   7   2.0000     -10.277912      -279.6762
   8   2.0000     -10.275988      -279.6238
   9   2.0000     -10.275984      -279.6238
  10   2.0000     -10.266460      -279.3646
  11   2.0000     -10.266116      -279.3552
  12   2.0000     -10.265881      -279.3488
  13   2.0000     -10.265876      -279.3487
  14   2.0000     -10.260872      -279.2125
  15   2.0000     -10.260868      -279.2124
  16   2.0000     -10.249392      -278.9001
  17   2.0000     -10.249386      -278.9000
  18   2.0000     -10.234859      -278.5047
  19   2.0000     -10.234851      -278.5044
  20   2.0000     -10.234040      -278.4824
  21   2.0000     -10.234031      -278.4821
  22   2.0000     -10.233731      -278.4740
  23   2.0000     -10.233724      -278.4738
  24   2.0000     -10.232184      -278.4319
  25   2.0000     -10.232170      -278.4315
  26   2.0000     -10.230786      -278.3939
  27   2.0000     -10.230779      -278.3936
  28   2.0000      -0.998039       -27.1580
  29   2.0000      -0.995153       -27.0795
  30   2.0000      -0.972620       -26.4663
  31   2.0000      -0.971483       -26.4354
  32   2.0000      -0.881285       -23.9810
  33   2.0000      -0.879616       -23.9356
  34   2.0000      -0.874247       -23.7895
  35   2.0000      -0.837130       -22.7795
  36   2.0000      -0.821502       -22.3542
  37   2.0000      -0.805198       -21.9106
  38   2.0000      -0.776632       -21.1332
  39   2.0000      -0.775290       -21.0967
  40   2.0000      -0.771784       -21.0013
  41   2.0000      -0.761799       -20.7296
  42   2.0000      -0.715977       -19.4827
  43   2.0000      -0.687086       -18.6965
  44   2.0000      -0.674830       -18.3630
  45   2.0000      -0.660089       -17.9619
  46   2.0000      -0.644286       -17.5319
  47   2.0000      -0.636505       -17.3202
  48   2.0000      -0.627126       -17.0650
  49   2.0000      -0.626339       -17.0435
  50   2.0000      -0.594895       -16.1879
  51   2.0000      -0.591732       -16.1018
  52   2.0000      -0.557841       -15.1796
  53   2.0000      -0.557662       -15.1748
  54   2.0000      -0.546681       -14.8759
  55   2.0000      -0.530981       -14.4487
  56   2.0000      -0.516274       -14.0485
  57   2.0000      -0.511037       -13.9060
  58   2.0000      -0.503007       -13.6875
  59   2.0000      -0.491983       -13.3875
  60   2.0000      -0.484889       -13.1945
  61   2.0000      -0.478930       -13.0323
  62   2.0000      -0.476272       -12.9600
  63   2.0000      -0.468181       -12.7399
  64   2.0000      -0.458789       -12.4843
  65   2.0000      -0.455547       -12.3961
  66   2.0000      -0.452210       -12.3053
  67   2.0000      -0.447118       -12.1667
  68   2.0000      -0.440772       -11.9940
  69   2.0000      -0.438158       -11.9229
  70   2.0000      -0.437959       -11.9175
  71   2.0000      -0.431291       -11.7360
  72   2.0000      -0.425719       -11.5844
  73   2.0000      -0.422830       -11.5058
  74   2.0000      -0.405370       -11.0307
  75   2.0000      -0.397281       -10.8106
  76   2.0000      -0.387965       -10.5571
  77   2.0000      -0.378074       -10.2879
  78   2.0000      -0.377980       -10.2854
  79   2.0000      -0.371576       -10.1111
  80   2.0000      -0.366987        -9.9862
  81   2.0000      -0.360741        -9.8163
  82   2.0000      -0.354720        -9.6524
  83   2.0000      -0.332623        -9.0511
  84   2.0000      -0.314729        -8.5642
  85   2.0000      -0.307270        -8.3612
  86   2.0000      -0.305616        -8.3162
  87   2.0000      -0.292435        -7.9576
  88   2.0000      -0.291818        -7.9408
  89   2.0000      -0.279092        -7.5945
  90   2.0000      -0.273045        -7.4299
  91   2.0000      -0.272324        -7.4103
  92   2.0000      -0.269272        -7.3273
  93   2.0000      -0.246750        -6.7144
  94   2.0000      -0.237083        -6.4514
  95   0.0000      -0.093644        -2.5482
  96   0.0000      -0.065270        -1.7761
  97   0.0000      -0.043329        -1.1790
  98   0.0000      -0.035171        -0.9570
  99   0.0000      -0.014949        -0.4068

MULLIKEN ATOMIC CHARGES
-----------------------
   0 H :    0.099364
   1 C :   -0.091050
   2 N :   -0.168887
   3 C :    0.270941
   4 C :   -0.240992
   5 C :   -0.071504
   6 C :   -0.130096
   7 C :   -0.102482
   8 C :   -0.256899
   9 H :    0.126992
  10 H :    0.119994
  11 H :    0.119384
  12 H :    0.118849
  13 H :    0.113113
  14 C :    0.229713
  15 N :   -0.203506
  16 C :   -0.125155
  17 C :    0.143149
  18 C :   -0.167462
  19 C :   -0.197656
  20 H :    0.140819
  21 H :    0.142985
  22 C :    0.143113
  23 C :   -0.125152
  24 N :   -0.203497
  25 C :    0.229650
  26 C :   -0.197678
  27 C :   -0.167408
  28 H :    0.142993
  29 H :    0.140822
  30 C :   -0.091092
  31 N :   -0.168822
  32 C :    0.270933
  33 C :   -0.241023
  34 C :   -0.071499
  35 C :   -0.130105
  36 C :   -0.102434
  37 C :   -0.256978
  38 H :    0.127033
  39 H :    0.119981
  40 H :    0.119378
  41 H :    0.118844
  42 H :    0.113111
  43 H :    0.099417
  44 H :    0.130406
  45 H :    0.130395
Sum of atomic charges:   -0.0000000

LOEWDIN ATOMIC CHARGES
----------------------
   0 H :    0.140243
   1 C :   -0.164501
   2 N :    0.178468
   3 C :   -0.216446
   4 C :   -0.105996
   5 C :   -0.142453
   6 C :   -0.146329
   7 C :   -0.143362
   8 C :   -0.117139
   9 H :    0.150516
  10 H :    0.148023
  11 H :    0.146620
  12 H :    0.148006
  13 H :    0.151447
  14 C :   -0.221639
  15 N :    0.171299
  16 C :   -0.166051
  17 C :   -0.109357
  18 C :   -0.079548
  19 C :   -0.085495
  20 H :    0.160145
  21 H :    0.156701
  22 C :   -0.109356
  23 C :   -0.166050
  24 N :    0.171310
  25 C :   -0.221640
  26 C :   -0.085494
  27 C :   -0.079544
  28 H :    0.156702
  29 H :    0.160147
  30 C :   -0.164505
  31 N :    0.178468
  32 C :   -0.216433
  33 C :   -0.106015
  34 C :   -0.142453
  35 C :   -0.146350
  36 C :   -0.143363
  37 C :   -0.117168
  38 H :    0.150523
  39 H :    0.148023
  40 H :    0.146618
  41 H :    0.148005
  42 H :    0.151447
  43 H :    0.140262
  44 H :    0.146859
  45 H :    0.146857

  Mayer bond orders larger than 0.100000
B(  0-H ,  1-C ) :   0.9200 B(  1-C ,  2-N ) :   1.8807 B(  1-C , 14-C ) :   1.0571
B(  2-N ,  3-C ) :   1.0615 B(  2-N , 14-C ) :  -0.1109 B(  3-C ,  4-C ) :   1.4008
B(  3-C ,  8-C ) :   1.3491 B(  4-C ,  5-C ) :   1.4381 B(  4-C , 13-H ) :   0.9704
B(  5-C ,  6-C ) :   1.4068 B(  5-C , 12-H ) :   0.9645 B(  6-C ,  7-C ) :   1.4187
B(  6-C , 11-H ) :   0.9621 B(  7-C ,  8-C ) :   1.4442 B(  7-C , 10-H ) :   0.9568
B(  8-C ,  9-H ) :   0.9551 B( 14-C , 15-N ) :   1.3751 B( 14-C , 19-C ) :   1.3762
B( 15-N , 16-C ) :   1.5658 B( 16-C , 17-C ) :   1.3293 B( 16-C , 45-H ) :   0.9787
B( 17-C , 18-C ) :   1.3413 B( 17-C , 22-C ) :   0.9155 B( 18-C , 19-C ) :   1.4375
B( 18-C , 21-H ) :   0.9563 B( 19-C , 20-H ) :   0.9493 B( 22-C , 23-C ) :   1.3293
B( 22-C , 27-C ) :   1.3413 B( 23-C , 24-N ) :   1.5657 B( 23-C , 44-H ) :   0.9787
B( 24-N , 25-C ) :   1.3751 B( 25-C , 26-C ) :   1.3762 B( 25-C , 30-C ) :   1.0571
B( 25-C , 31-N ) :  -0.1108 B( 26-C , 27-C ) :   1.4376 B( 26-C , 29-H ) :   0.9493
B( 27-C , 28-H ) :   0.9563 B( 30-C , 31-N ) :   1.8807 B( 30-C , 43-H ) :   0.9201
B( 31-N , 32-C ) :   1.0614 B( 32-C , 33-C ) :   1.4008 B( 32-C , 37-C ) :   1.3492
B( 33-C , 34-C ) :   1.4381 B( 33-C , 42-H ) :   0.9704 B( 34-C , 35-C ) :   1.4068
B( 34-C , 41-H ) :   0.9645 B( 35-C , 36-C ) :   1.4186 B( 35-C , 40-H ) :   0.9621
B( 36-C , 37-C ) :   1.4440 B( 36-C , 39-H ) :   0.9568 B( 37-C , 38-H ) :   0.9551

Dispersion correction           -0.053497368
FINAL SINGLE POINT ENERGY     -1143.487738965716

DIPOLE MOMENT
-------------
                                X             Y             Z
Electronic contribution:     -0.00045       0.00387       0.26129
Nuclear contribution   :     -0.00030      -0.00369      -0.37126
                        -----------------------------------------
Total Dipole Moment    :     -0.00075       0.00019      -0.10997
                        -----------------------------------------
Magnitude (a.u.)       :      0.10997
Magnitude (Debye)      :      0.27953

Rotational constants in cm-1:     0.045136     0.001207     0.001197
Rotational constants in MHz :  1353.141055    36.187842    35.881069

                             ****ORCA TERMINATED NORMALLY****
TOTAL RUN TIME: 0 days 0 hours 5 minutes 14 seconds 954 msec
