 Gaussian 16, Revision C.01,
 Gaussian 16:  ES64L-G16RevC.01  3-Jul-2019

 -----------------------------------------
 # SP HSEH1PBE/def2svp scrf=(solvent=dmso)
 -----------------------------------------

 -----
 m2_lb
 -----
 Symbolic Z-matrix:
 Charge =  4 Multiplicity = 1

                         Standard orientation:
 ---------------------------------------------------------------------
 Center     Atomic      Atomic             Coordinates (Angstroms)
 Number     Number       Type             X           Y           Z
 ---------------------------------------------------------------------
      1          6           0       -8.107982   -1.731987    2.321169
      2          6           0       -7.931476   -2.331865    3.540299
      3          6           0       -6.880739   -1.916832    4.396301
      4          6           0       -6.594231   -2.542217    5.632269
      5          6           0       -5.519822   -2.110831    6.378026
      6          6           0       -4.720269   -1.025061    5.952938
      7          6           0       -4.988560   -0.355697    4.775302
      8          6           0       -6.063468   -0.830727    3.960794
      9          6           0       -6.312315   -0.296683    2.682449
     10          6           0       -4.198281    0.826086    4.360078
     11          6           0       -2.821954    0.718205    4.126671
     12          6           0       -2.084258    1.820285    3.714472
     13          6           0       -2.711859    3.064040    3.525741
     14          6           0       -4.088002    3.181911    3.789771
     15          6           0       -4.820098    2.074327    4.196058
     16          6           0       -1.979062    4.166724    2.999598
     17          6           0       -1.364150    5.062087    2.448892
     18          6           0       -0.646887    5.980181    1.614433
     19          6           0       -0.662965    7.368447    1.821517
     20          6           0        0.029763    8.174211    0.922529
     21          6           0        0.712040    7.588719   -0.139998
     22          6           0        0.675354    6.190629   -0.260279
     23          6           0        1.385985    5.480881   -1.282291
     24          6           0        1.998781    4.730970   -2.020620
     25          6           0        2.730247    3.772804   -2.779848
     26          6           0        4.104211    3.950838   -3.020848
     27          6           0        4.836555    2.959993   -3.661035
     28          6           0        4.216815    1.773927   -4.086289
     29          6           0        2.842068    1.613253   -3.875151
     30          6           0        2.104155    2.597405   -3.230389
     31          6           0        5.008435    0.709953   -4.746089
     32          6           0        4.747599    0.314959   -6.043242
     33          6           0        5.549063   -0.653816   -6.689969
     34          6           0        6.617875   -1.240303   -6.049490
     35          6           0        6.896483   -0.900660   -4.704989
     36          6           0        7.941521   -1.494231   -3.953775
     37          6           0        8.110248   -1.175876   -2.631917
     38          6           0        6.317618    0.307201   -2.682019
     39          6           0        6.077001    0.065673   -4.047857
     40          6           0       -8.123099    2.313241    1.725343
     41          6           0       -7.954276    3.533438    2.325381
     42          6           0       -6.905056    4.393549    1.914689
     43          6           0       -6.626894    5.631212    2.540479
     44          6           0       -5.553797    6.381412    2.113574
     45          6           0       -4.747731    5.959324    1.031468
     46          6           0       -5.008237    4.780587    0.360916
     47          6           0       -6.081261    3.961181    0.832178
     48          6           0       -6.322187    2.681246    0.298112
     49          6           0       -4.211535    4.369133   -0.817812
     50          6           0       -2.833337    4.148266   -0.706173
     51          6           0       -2.089586    3.737214   -1.804655
     52          6           0       -2.712974    3.537726   -3.048843
     53          6           0       -4.090708    3.791249   -3.171207
     54          6           0       -4.828788    4.196035   -2.067147
     55          6           0       -1.975481    3.011305   -4.148286
     56          6           0       -1.359750    2.460292   -5.042889
     57          6           0       -0.641564    1.626519   -5.960870
     58          6           0       -0.655753    1.835662   -7.348882
     59          6           0        0.036844    0.936993   -8.155208
     60          6           0        0.717413   -0.126860   -7.570287
     61          6           0        0.678619   -0.249354   -6.172464
     62          6           0        1.386198   -1.273974   -5.463422
     63          6           0        1.995884   -2.015240   -4.713847
     64          6           0        2.727084   -2.777983   -3.758300
     65          6           0        2.100357   -3.238398   -2.587143
     66          6           0        2.838950   -3.885875   -1.605239
     67          6           0        4.215040   -4.089587   -1.763768
     68          6           0        4.835404   -3.654664   -2.946043
     69          6           0        4.102413   -3.012260   -3.934828
     70          6           0        5.008310   -4.750896   -0.702097
     71          6           0        4.748191   -6.048192   -0.307259
     72          6           0        5.551830   -6.695553    0.659393
     73          6           0        6.622794   -6.056005    1.243106
     74          6           0        6.901279   -4.711483    0.903168
     75          6           0        7.949295   -3.961114    1.492881
     76          6           0        8.117029   -2.639024    1.174959
     77          6           0        6.317562   -2.687254   -0.299690
     78          6           0        6.078656   -4.053521   -0.059819
     79          6           0       -8.127247    1.721400   -2.314164
     80          6           0       -7.955124    2.325169   -3.532029
     81          6           0       -6.902635    1.918257   -4.390013
     82          6           0       -6.621378    2.548325   -5.624759
     83          6           0       -5.545718    2.124537   -6.373131
     84          6           0       -4.740340    1.041331   -5.952454
     85          6           0       -5.003879    0.366739   -4.776662
     86          6           0       -6.079331    0.835012   -3.958742
     87          6           0       -6.323701    0.297075   -2.681070
     88          6           0       -4.208905   -0.813809   -4.367116
     89          6           0       -4.828121   -2.062865   -4.198763
     90          6           0       -4.092318   -3.169149   -3.795986
     91          6           0       -2.714835   -3.049336   -3.539654
     92          6           0       -2.089452   -1.805348   -3.734136
     93          6           0       -2.830946   -0.704574   -4.143269
     94          6           0       -1.980080   -4.151230   -3.014598
     95          6           0       -1.367554   -5.047900   -2.463309
     96          6           0       -0.655893   -5.968328   -1.626677
     97          6           0       -0.681719   -7.357041   -1.830231
     98          6           0        0.003909   -8.165441   -0.928199
     99          6           0        0.688919   -7.582000    0.133668
    100          6           0        0.661365   -6.183485    0.250891
    101          6           0        1.372731   -5.475939    1.274060
    102          6           0        1.984814   -4.727085    2.014055
    103          6           0        2.716605   -3.770609    2.775186
    104          6           0        2.088154   -2.601540    3.238671
    105          6           0        2.825898   -1.618461    3.885210
    106          6           0        4.203060   -1.773346    4.084750
    107          6           0        4.825421   -2.953200    3.645956
    108          6           0        4.093160   -3.943459    3.004903
    109          6           0        4.994129   -0.710985    4.747408
    110          6           0        4.729665   -0.316232    6.043972
    111          6           0        5.530535    0.650725    6.694150
    112          6           0        6.603441    1.234887    6.058260
    113          6           0        6.886566    0.894990    4.714753
    114          6           0        7.937381    1.484993    3.968592
    115          6           0        8.111001    1.166835    2.647309
    116          6           0        6.310681   -0.307294    2.688110
    117          6           0        6.066539   -0.068156    4.053667
    118          6           0       -8.131300   -2.316709   -1.723606
    119          6           0       -7.960426   -3.532732   -2.331425
    120          6           0       -6.907672   -4.392255   -1.928478
    121          6           0       -6.626483   -5.624834   -2.562898
    122          6           0       -5.551281   -6.375153   -2.141403
    123          6           0       -4.746383   -5.959031   -1.056019
    124          6           0       -5.009562   -4.785352   -0.377872
    125          6           0       -6.083965   -3.965039   -0.844092
    126          6           0       -6.325881   -2.688362   -0.302876
    127          6           0       -4.215626   -4.378592    0.804397
    128          6           0       -4.835184   -4.219729    2.054512
    129          6           0       -4.101563   -3.814937    3.161559
    130          6           0       -2.726341   -3.546864    3.041275
    131          6           0       -2.100244   -3.733621    1.796455
    132          6           0       -2.839466   -4.144716    0.694912
    133          6           0       -1.994583   -3.017604    4.143065
    134          6           0       -1.384589   -2.463366    5.039621
    135          6           0       -0.676818   -1.624467    5.960779
    136          6           0       -0.715109   -1.819772    7.350345
    137          6           0       -0.033700   -0.915252    8.159449
    138          6           0        0.659110    0.141517    7.575885
    139          6           0        0.643436    0.251036    6.176554
    140          6           0        1.360345    1.270348    5.469007
    141          6           0        1.974839    2.008237    4.720034
    142          6           0        2.709033    2.768033    3.764301
    143          6           0        2.084036    3.229017    2.592406
    144          6           0        2.824164    3.875408    1.610951
    145          6           0        4.200363    4.077676    1.770718
    146          6           0        4.819260    3.641100    2.953185
    147          6           0        4.084637    2.999778    3.941474
    148          6           0        4.994636    4.741359    0.711295
    149          6           0        4.732428    6.038683    0.317701
    150          6           0        5.537384    6.689737   -0.645210
    151          6           0        6.612334    6.054240   -1.226023
    152          6           0        6.893101    4.709845   -0.887555
    153          6           0        7.945459    3.963527   -1.474667
    154          6           0        8.116131    2.641370   -1.158329
    155          6           0        6.311074    2.681976    0.309879
    156          6           0        6.068886    4.047909    0.071339
    157          1           0       -8.900599   -2.036920    1.637462
    158          1           0       -8.598096   -3.141563    3.840684
    159          1           0       -7.219125   -3.369778    5.972990
    160          1           0       -5.285644   -2.603192    7.324153
    161          1           0       -3.894678   -0.687246    6.583197
    162          1           0       -5.673644    0.499189    2.295818
    163          1           0       -2.323113   -0.244228    4.242163
    164          1           0       -1.013959    1.710610    3.529809
    165          1           0       -4.578041    4.148505    3.664322
    166          1           0       -5.888468    2.179492    4.401791
    167          1           0       -1.205625    7.793911    2.666592
    168          1           0        0.038340    9.258356    1.050278
    169          1           0        1.262999    8.190381   -0.863975
    170          1           0        4.592475    4.869331   -2.691908
    171          1           0        5.903447    3.111208   -3.845075
    172          1           0        2.345464    0.696436   -4.193522
    173          1           0        1.035233    2.446766   -3.067824
    174          1           0        3.926915    0.784420   -6.590161
    175          1           0        5.321120   -0.926673   -7.722430
    176          1           0        7.244036   -1.974582   -6.559477
    177          1           0        8.610425   -2.219542   -4.419337
    178          1           0        8.898532   -1.624417   -2.026745
    179          1           0        5.677185    1.001214   -2.135162
    180          1           0       -8.914818    1.626695    2.026559
    181          1           0       -8.626048    3.832055    3.131490
    182          1           0       -7.257610    5.970188    3.364278
    183          1           0       -5.325640    7.328949    2.606066
    184          1           0       -3.923580    6.593154    0.697046
    185          1           0       -5.678463    2.296638   -0.494688
    186          1           0       -2.337891    4.272044    0.257005
    187          1           0       -1.018037    3.561868   -1.691463
    188          1           0       -4.577190    3.658632   -4.138608
    189          1           0       -5.898348    4.393346   -2.176416
    190          1           0       -1.196997    2.681995   -7.773663
    191          1           0        0.046440    1.065569   -9.239261
    192          1           0        1.268363   -0.850441   -8.172424
    193          1           0        1.030416   -3.081496   -2.437670
    194          1           0        2.341517   -4.211781   -0.691543
    195          1           0        5.903557   -3.832514   -3.095536
    196          1           0        4.591003   -2.675718   -4.850323
    197          1           0        3.925486   -6.594150   -0.774184
    198          1           0        5.323812   -7.727903    0.932659
    199          1           0        7.250764   -6.566681    1.975347
    200          1           0        8.621466   -4.427604    2.214575
    201          1           0        8.908375   -2.034971    1.619796
    202          1           0        5.673592   -2.139201   -0.989456
    203          1           0       -8.921649    2.019642   -1.629333
    204          1           0       -8.626254    3.131760   -3.830530
    205          1           0       -7.251688    3.372937   -5.962578
    206          1           0       -5.314938    2.620454   -7.318232
    207          1           0       -3.914390    0.709344   -6.585260
    208          1           0       -5.680215   -0.496062   -2.296739
    209          1           0       -5.897547   -2.170033   -4.397830
    210          1           0       -4.580410   -4.136219   -3.666855
    211          1           0       -1.018122   -1.694153   -3.556211
    212          1           0       -2.333870    0.258276   -4.263127
    213          1           0       -1.226362   -7.780738   -2.674928
    214          1           0        0.004668   -9.250026   -1.052600
    215          1           0        1.234651   -8.185799    0.859793
    216          1           0        1.017401   -2.454638    3.084866
    217          1           0        2.326803   -0.706593    4.213668
    218          1           0        5.894516   -3.100385    3.820346
    219          1           0        4.583429   -4.857301    2.666293
    220          1           0        3.906247   -0.784717    6.587491
    221          1           0        5.298797    0.924097    7.725653
    222          1           0        7.229436    1.967386    6.570990
    223          1           0        8.606805    2.207140    4.438257
    224          1           0        8.905316    1.611150    2.046692
    225          1           0        5.668705   -0.996655    2.137221
    226          1           0       -8.926044   -1.630959   -2.018790
    227          1           0       -8.632800   -3.828385   -3.138057
    228          1           0       -7.256446   -5.959671   -3.388963
    229          1           0       -5.320694   -7.318380   -2.641009
    230          1           0       -3.920670   -6.593066   -0.725819
    231          1           0       -5.680828   -2.306727    0.490273
    232          1           0       -5.903131   -4.427110    2.161587
    233          1           0       -4.589809   -3.692278    4.129379
    234          1           0       -1.030331   -3.547461    1.685245
    235          1           0       -2.342515   -4.257880   -0.268806
    236          1           0       -1.266251   -2.660087    7.774306
    237          1           0       -0.042751   -1.033801    9.244656
    238          1           0        1.201398    0.869643    8.180365
    239          1           0        1.013925    3.074072    2.442343
    240          1           0        2.327583    4.202385    0.697148
    241          1           0        5.887513    3.817432    3.103922
    242          1           0        4.572280    2.662894    4.857331
    243          1           0        3.907805    6.582576    0.783781
    244          1           0        5.306971    7.721797   -0.917599
    245          1           0        7.241761    6.567516   -1.955184
    246          1           0        8.618826    4.434008   -2.192687
    247          1           0        8.911225    2.040461   -1.600614
    248          1           0        5.666230    2.130897    0.996440
    249          7           0       -7.282855   -0.732834    1.894712
    250          7           0        0.008897    5.410332    0.597524
    251          7           0        7.282438   -0.292871   -2.002401
    252          7           0       -7.291085    1.889540    0.730694
    253          7           0        0.012207    0.608017   -5.391711
    254          7           0        7.284684   -2.008342    0.297218
    255          7           0       -7.295290    0.726519   -1.890880
    256          7           0        0.002264   -5.400592   -0.610190
    257          7           0        7.280629    0.289623    2.013106
    258          7           0       -7.297006   -1.896113   -0.729375
    259          7           0       -0.010922   -0.613060    5.393013
    260          7           0        7.282225    2.006766   -0.284771
    261         46           0       -7.376038   -0.003686    0.002000
    262         46           0        7.365073   -0.000941    0.005398
 ---------------------------------------------------------------------

 SCF Done:  E(RHSEH1PBE) =  -6900.14563636     A.U. after   20 cycles

 The electronic state is 1-A.
 Alpha  occ. eigenvalues --  -14.46960 -14.46958 -14.46956 -14.46952 -14.46952
 Alpha  occ. eigenvalues --  -14.46951 -14.46949 -14.46946 -14.40230 -14.40227
 Alpha  occ. eigenvalues --  -14.40225 -14.40225 -10.30954 -10.30954 -10.30952
 Alpha  occ. eigenvalues --  -10.30950 -10.30947 -10.30946 -10.30945 -10.30939
 Alpha  occ. eigenvalues --  -10.30278 -10.30278 -10.30276 -10.30275 -10.30274
 Alpha  occ. eigenvalues --  -10.30273 -10.30273 -10.30272 -10.29618 -10.29616
 Alpha  occ. eigenvalues --  -10.29616 -10.29615 -10.29614 -10.29611 -10.29609
 Alpha  occ. eigenvalues --  -10.29607 -10.27767 -10.27764 -10.27763 -10.27762
 Alpha  occ. eigenvalues --  -10.27762 -10.27761 -10.27756 -10.27755 -10.27496
 Alpha  occ. eigenvalues --  -10.27495 -10.27494 -10.27493 -10.27491 -10.27489
 Alpha  occ. eigenvalues --  -10.27485 -10.27484 -10.27165 -10.27161 -10.27161
 Alpha  occ. eigenvalues --  -10.27159 -10.27159 -10.27156 -10.27153 -10.27152
 Alpha  occ. eigenvalues --  -10.27107 -10.27106 -10.27105 -10.27104 -10.27103
 Alpha  occ. eigenvalues --  -10.27102 -10.27100 -10.27099 -10.26555 -10.26554
 Alpha  occ. eigenvalues --  -10.26553 -10.26552 -10.26551 -10.26549 -10.26547
 Alpha  occ. eigenvalues --  -10.26546 -10.26148 -10.26145 -10.26145 -10.26144
 Alpha  occ. eigenvalues --  -10.26105 -10.26105 -10.26104 -10.26103 -10.26102
 Alpha  occ. eigenvalues --  -10.26100 -10.26100 -10.26099 -10.25948 -10.25947
 Alpha  occ. eigenvalues --  -10.25946 -10.25946 -10.25942 -10.25942 -10.25938
 Alpha  occ. eigenvalues --  -10.25938 -10.25657 -10.25655 -10.25655 -10.25654
 Alpha  occ. eigenvalues --  -10.25654 -10.25653 -10.25652 -10.25652 -10.25646
 Alpha  occ. eigenvalues --  -10.25644 -10.25644 -10.25643 -10.25642 -10.25639
 Alpha  occ. eigenvalues --  -10.25638 -10.25637 -10.25549 -10.25547 -10.25547
 Alpha  occ. eigenvalues --  -10.25546 -10.25543 -10.25543 -10.25539 -10.25538
 Alpha  occ. eigenvalues --  -10.25266 -10.25265 -10.25265 -10.25263 -10.25260
 Alpha  occ. eigenvalues --  -10.25259 -10.25258 -10.25256 -10.25075 -10.25074
 Alpha  occ. eigenvalues --  -10.25074 -10.25073 -10.25070 -10.25070 -10.25069
 Alpha  occ. eigenvalues --  -10.25066 -10.24972 -10.24967 -10.24967 -10.24966
 Alpha  occ. eigenvalues --  -10.24965 -10.24965 -10.24962 -10.24962 -10.24961
 Alpha  occ. eigenvalues --  -10.24960 -10.24959 -10.24958 -10.24957 -10.24956
 Alpha  occ. eigenvalues --  -10.24955 -10.24954 -10.24642 -10.24640 -10.24640
 Alpha  occ. eigenvalues --  -10.24638 -10.24637 -10.24635 -10.24635 -10.24631
 Alpha  occ. eigenvalues --  -10.24470 -10.24467 -10.24466 -10.24465 -10.24465
 Alpha  occ. eigenvalues --  -10.24465 -10.24464 -10.24457  -3.55642  -3.55627
 Alpha  occ. eigenvalues --   -2.23466  -2.23462  -2.23451  -2.23448  -2.19241
 Alpha  occ. eigenvalues --   -2.19225  -1.01786  -1.01779  -1.01038  -1.01033
 Alpha  occ. eigenvalues --   -1.01030  -1.01030  -1.00802  -1.00796  -0.98480
 Alpha  occ. eigenvalues --   -0.98474  -0.98473  -0.98473  -0.91105  -0.91103
 Alpha  occ. eigenvalues --   -0.90983  -0.90982  -0.90981  -0.90980  -0.90926
 Alpha  occ. eigenvalues --   -0.90923  -0.88923  -0.88901  -0.88863  -0.88861
 Alpha  occ. eigenvalues --   -0.88847  -0.88846  -0.88832  -0.88829  -0.84260
 Alpha  occ. eigenvalues --   -0.84192  -0.84192  -0.84147  -0.83995  -0.83976
 Alpha  occ. eigenvalues --   -0.83962  -0.83962  -0.83204  -0.83167  -0.83166
 Alpha  occ. eigenvalues --   -0.83156  -0.82944  -0.82939  -0.82937  -0.82934
 Alpha  occ. eigenvalues --   -0.81397  -0.81257  -0.81256  -0.81223  -0.81187
 Alpha  occ. eigenvalues --   -0.81031  -0.81030  -0.81028  -0.80682  -0.80541
 Alpha  occ. eigenvalues --   -0.80541  -0.80500  -0.80333  -0.80243  -0.80243
 Alpha  occ. eigenvalues --   -0.80197  -0.77959  -0.77916  -0.77915  -0.77905
 Alpha  occ. eigenvalues --   -0.77242  -0.77207  -0.77206  -0.77194  -0.77116
 Alpha  occ. eigenvalues --   -0.77106  -0.77105  -0.77064  -0.77054  -0.76980
 Alpha  occ. eigenvalues --   -0.76979  -0.76923  -0.74851  -0.74841  -0.74833
 Alpha  occ. eigenvalues --   -0.74831  -0.73594  -0.73552  -0.73551  -0.73529
 Alpha  occ. eigenvalues --   -0.69226  -0.69206  -0.69139  -0.69086  -0.69046
 Alpha  occ. eigenvalues --   -0.69046  -0.69012  -0.69011  -0.67990  -0.67925
 Alpha  occ. eigenvalues --   -0.67894  -0.67893  -0.67859  -0.67857  -0.67839
 Alpha  occ. eigenvalues --   -0.67829  -0.67052  -0.67033  -0.66987  -0.66981
 Alpha  occ. eigenvalues --   -0.66924  -0.66924  -0.66873  -0.66872  -0.65387
 Alpha  occ. eigenvalues --   -0.65383  -0.65381  -0.65368  -0.65254  -0.65190
 Alpha  occ. eigenvalues --   -0.65188  -0.65135  -0.63117  -0.63047  -0.63043
 Alpha  occ. eigenvalues --   -0.63016  -0.63005  -0.62955  -0.62953  -0.62944
 Alpha  occ. eigenvalues --   -0.61807  -0.61619  -0.61618  -0.61595  -0.61511
 Alpha  occ. eigenvalues --   -0.61442  -0.61442  -0.61431  -0.58699  -0.58518
 Alpha  occ. eigenvalues --   -0.58515  -0.58343  -0.56996  -0.56974  -0.56717
 Alpha  occ. eigenvalues --   -0.56612  -0.56585  -0.56582  -0.56506  -0.56506
 Alpha  occ. eigenvalues --   -0.56167  -0.56103  -0.55880  -0.55878  -0.55849
 Alpha  occ. eigenvalues --   -0.55849  -0.55843  -0.55777  -0.55699  -0.55538
 Alpha  occ. eigenvalues --   -0.55501  -0.55500  -0.55234  -0.55006  -0.54792
 Alpha  occ. eigenvalues --   -0.54768  -0.54768  -0.54678  -0.54448  -0.54441
 Alpha  occ. eigenvalues --   -0.53926  -0.53925  -0.53900  -0.53899  -0.52674
 Alpha  occ. eigenvalues --   -0.52648  -0.52645  -0.52622  -0.50580  -0.50456
 Alpha  occ. eigenvalues --   -0.50455  -0.50450  -0.50446  -0.50283  -0.50205
 Alpha  occ. eigenvalues --   -0.50204  -0.50117  -0.49999  -0.49843  -0.49842
 Alpha  occ. eigenvalues --   -0.49738  -0.49592  -0.49283  -0.49144  -0.49142
 Alpha  occ. eigenvalues --   -0.49129  -0.49100  -0.49098  -0.48931  -0.48911
 Alpha  occ. eigenvalues --   -0.48735  -0.48693  -0.48619  -0.48619  -0.48580
 Alpha  occ. eigenvalues --   -0.48579  -0.48475  -0.48351  -0.48280  -0.48278
 Alpha  occ. eigenvalues --   -0.48223  -0.48075  -0.47931  -0.47912  -0.47772
 Alpha  occ. eigenvalues --   -0.47770  -0.47673  -0.47670  -0.47510  -0.47503
 Alpha  occ. eigenvalues --   -0.46459  -0.46453  -0.46439  -0.46438  -0.46398
 Alpha  occ. eigenvalues --   -0.46397  -0.46320  -0.46255  -0.45938  -0.45937
 Alpha  occ. eigenvalues --   -0.45858  -0.45855  -0.45652  -0.45640  -0.45621
 Alpha  occ. eigenvalues --   -0.45430  -0.45425  -0.45263  -0.45197  -0.45194
 Alpha  occ. eigenvalues --   -0.45074  -0.45047  -0.44816  -0.44742  -0.44738
 Alpha  occ. eigenvalues --   -0.44564  -0.44356  -0.44251  -0.44200  -0.44198
 Alpha  occ. eigenvalues --   -0.44111  -0.44105  -0.43531  -0.43396  -0.43393
 Alpha  occ. eigenvalues --   -0.43338  -0.43329  -0.43319  -0.42708  -0.42708
 Alpha  occ. eigenvalues --   -0.42679  -0.42678  -0.42578  -0.42562  -0.42557
 Alpha  occ. eigenvalues --   -0.42555  -0.42052  -0.42048  -0.41934  -0.41908
 Alpha  occ. eigenvalues --   -0.40906  -0.40844  -0.40840  -0.40789  -0.40754
 Alpha  occ. eigenvalues --   -0.40739  -0.40736  -0.40639  -0.40634  -0.40632
 Alpha  occ. eigenvalues --   -0.40591  -0.40587  -0.40489  -0.40447  -0.40310
 Alpha  occ. eigenvalues --   -0.40268  -0.40144  -0.40143  -0.40088  -0.40022
 Alpha  occ. eigenvalues --   -0.39954  -0.39954  -0.39892  -0.39887  -0.39886
 Alpha  occ. eigenvalues --   -0.39857  -0.39274  -0.39271  -0.39241  -0.39238
 Alpha  occ. eigenvalues --   -0.38867  -0.38853  -0.38373  -0.38133  -0.37798
 Alpha  occ. eigenvalues --   -0.37794  -0.37199  -0.37198  -0.37141  -0.37046
 Alpha  occ. eigenvalues --   -0.37024  -0.36767  -0.36765  -0.36652  -0.36414
 Alpha  occ. eigenvalues --   -0.36412  -0.36360  -0.36359  -0.36261  -0.36175
 Alpha  occ. eigenvalues --   -0.36166  -0.36071  -0.35399  -0.35373  -0.35369
 Alpha  occ. eigenvalues --   -0.35297  -0.34816  -0.34815  -0.34753  -0.34555
 Alpha  occ. eigenvalues --   -0.34552  -0.34073  -0.33767  -0.33763  -0.33503
 Alpha  occ. eigenvalues --   -0.33452  -0.33446  -0.33356  -0.33354  -0.33032
 Alpha  occ. eigenvalues --   -0.32856  -0.32758  -0.32755  -0.32215  -0.32149
 Alpha  occ. eigenvalues --   -0.32144  -0.31956  -0.31952  -0.31871  -0.31830
 Alpha  occ. eigenvalues --   -0.31718  -0.31713  -0.31638  -0.31532  -0.31528
 Alpha  occ. eigenvalues --   -0.31492  -0.30092  -0.29983  -0.29648  -0.29641
 Alpha  occ. eigenvalues --   -0.29638  -0.29484  -0.29479  -0.29474  -0.29063
 Alpha  occ. eigenvalues --   -0.29038  -0.29035  -0.29005  -0.28993  -0.28894
 Alpha  occ. eigenvalues --   -0.28891  -0.28828  -0.27978  -0.27807  -0.27770
 Alpha  occ. eigenvalues --   -0.27765  -0.27764  -0.27748  -0.27699  -0.27696
 Alpha  occ. eigenvalues --   -0.27674  -0.27672  -0.27610  -0.27606  -0.27542
 Alpha  occ. eigenvalues --   -0.27315  -0.26696  -0.26467  -0.26463  -0.26241
 Alpha  occ. eigenvalues --   -0.26225  -0.25855  -0.25853  -0.25573  -0.24496
 Alpha  occ. eigenvalues --   -0.24493  -0.24473  -0.24471  -0.23757  -0.23728
 Alpha  occ. eigenvalues --   -0.23725  -0.23697
 Alpha virt. eigenvalues --   -0.11141  -0.11129  -0.10919  -0.10919  -0.10876
 Alpha virt. eigenvalues --   -0.10876  -0.10840  -0.10777  -0.09444  -0.09403
 Alpha virt. eigenvalues --   -0.09213  -0.09039  -0.09036  -0.08930  -0.08790

 Mulliken charges:
               1
     1  C    0.122132
     2  C   -0.025223
     3  C    0.025090
     4  C   -0.012501
     5  C    0.005163
     6  C   -0.015516
     7  C    0.048734
     8  C   -0.005523
     9  C    0.139982
    10  C   -0.053984
    11  C    0.016733
    12  C   -0.001348
    13  C   -0.066251
    14  C    0.016639
    15  C   -0.032424
    16  C   -0.004304
    17  C    0.043197
    18  C   -0.075618
    19  C    0.027112
    20  C    0.034483
    21  C    0.026817
    22  C   -0.076658
    23  C    0.042738
    24  C   -0.002990
    25  C   -0.066813
    26  C    0.015839
    27  C   -0.030987
    28  C   -0.056896
    29  C    0.018053
    30  C   -0.000871
    31  C    0.047335
    32  C   -0.014963
    33  C    0.004890
    34  C   -0.012379
    35  C    0.025818
    36  C   -0.025227
    37  C    0.121848
    38  C    0.140829
    39  C   -0.005794
    40  C    0.122589
    41  C   -0.025157
    42  C    0.025649
    43  C   -0.012314
    44  C    0.005184
    45  C   -0.016708
    46  C    0.049365
    47  C   -0.006190
    48  C    0.139510
    49  C   -0.052437
    50  C    0.016847
    51  C   -0.000713
    52  C   -0.066709
    53  C    0.016744
    54  C   -0.033507
    55  C   -0.004003
    56  C    0.042984
    57  C   -0.075611
    58  C    0.027057
    59  C    0.034458
    60  C    0.026817
    61  C   -0.076795
    62  C    0.042443
    63  C   -0.002774
    64  C   -0.066564
    65  C   -0.000790
    66  C    0.017804
    67  C   -0.054908
    68  C   -0.032881
    69  C    0.016454
    70  C    0.048574
    71  C   -0.015835
    72  C    0.004954
    73  C   -0.012367
    74  C    0.026081
    75  C   -0.025039
    76  C    0.122141
    77  C    0.139552
    78  C   -0.006210
    79  C    0.122482
    80  C   -0.025213
    81  C    0.025194
    82  C   -0.012238
    83  C    0.005144
    84  C   -0.016804
    85  C    0.049671
    86  C   -0.006378
    87  C    0.139609
    88  C   -0.052307
    89  C   -0.033516
    90  C    0.016771
    91  C   -0.066714
    92  C   -0.000690
    93  C    0.016551
    94  C   -0.003289
    95  C    0.042617
    96  C   -0.076311
    97  C    0.027048
    98  C    0.034410
    99  C    0.026953
   100  C   -0.076262
   101  C    0.043208
   102  C   -0.003930
   103  C   -0.066362
   104  C   -0.000901
   105  C    0.017012
   106  C   -0.053492
   107  C   -0.033300
   108  C    0.016549
   109  C    0.048800
   110  C   -0.015947
   111  C    0.004993
   112  C   -0.012515
   113  C    0.025897
   114  C   -0.025133
   115  C    0.122214
   116  C    0.139219
   117  C   -0.006006
   118  C    0.122759
   119  C   -0.025195
   120  C    0.025526
   121  C   -0.012299
   122  C    0.005118
   123  C   -0.016422
   124  C    0.049284
   125  C   -0.006750
   126  C    0.140006
   127  C   -0.053988
   128  C   -0.033228
   129  C    0.016469
   130  C   -0.066741
   131  C   -0.000757
   132  C    0.017490
   133  C   -0.002174
   134  C    0.042140
   135  C   -0.076702
   136  C    0.026717
   137  C    0.034572
   138  C    0.027095
   139  C   -0.075800
   140  C    0.043439
   141  C   -0.004224
   142  C   -0.065993
   143  C   -0.001374
   144  C    0.017089
   145  C   -0.054422
   146  C   -0.032657
   147  C    0.016463
   148  C    0.048687
   149  C   -0.015468
   150  C    0.004861
   151  C   -0.012592
   152  C    0.026527
   153  C   -0.025161
   154  C    0.122337
   155  C    0.139172
   156  C   -0.005849
   157  H    0.110254
   158  H    0.059714
   159  H    0.046397
   160  H    0.059024
   161  H    0.043165
   162  H    0.114734
   163  H    0.015083
   164  H    0.031419
   165  H    0.031191
   166  H    0.044733
   167  H    0.049127
   168  H    0.061743
   169  H    0.049238
   170  H    0.031904
   171  H    0.044541
   172  H    0.015340
   173  H    0.031666
   174  H    0.043192
   175  H    0.059114
   176  H    0.046375
   177  H    0.059812
   178  H    0.110554
   179  H    0.114401
   180  H    0.110423
   181  H    0.059749
   182  H    0.046368
   183  H    0.059164
   184  H    0.043357
   185  H    0.114793
   186  H    0.014212
   187  H    0.031418
   188  H    0.030801
   189  H    0.044758
   190  H    0.049141
   191  H    0.061753
   192  H    0.049218
   193  H    0.031589
   194  H    0.014921
   195  H    0.044802
   196  H    0.031437
   197  H    0.043260
   198  H    0.059190
   199  H    0.046395
   200  H    0.059850
   201  H    0.110730
   202  H    0.115034
   203  H    0.110456
   204  H    0.059744
   205  H    0.046413
   206  H    0.059199
   207  H    0.043404
   208  H    0.114987
   209  H    0.044817
   210  H    0.030837
   211  H    0.031469
   212  H    0.014563
   213  H    0.049184
   214  H    0.061754
   215  H    0.049181
   216  H    0.031392
   217  H    0.014934
   218  H    0.044829
   219  H    0.031171
   220  H    0.043376
   221  H    0.059164
   222  H    0.046398
   223  H    0.059792
   224  H    0.110748
   225  H    0.114886
   226  H    0.110449
   227  H    0.059745
   228  H    0.046389
   229  H    0.059195
   230  H    0.043191
   231  H    0.115169
   232  H    0.044913
   233  H    0.031561
   234  H    0.031555
   235  H    0.014611
   236  H    0.049218
   237  H    0.061776
   238  H    0.049177
   239  H    0.031347
   240  H    0.015216
   241  H    0.044801
   242  H    0.031195
   243  H    0.043216
   244  H    0.059059
   245  H    0.046333
   246  H    0.059766
   247  H    0.110520
   248  H    0.114882
   249  N   -0.324897
   250  N   -0.182629
   251  N   -0.324500
   252  N   -0.324868
   253  N   -0.182561
   254  N   -0.324759
   255  N   -0.325018
   256  N   -0.182376
   257  N   -0.324712
   258  N   -0.324815
   259  N   -0.182939
   260  N   -0.324678
   261  Pd   0.444573
   262  Pd   0.443262
 Sum of Mulliken charges =   4.00000

 Dipole moment (field-independent basis, Debye):
    X=             -0.0128    Y=              0.0161    Z=              0.0547  Tot=              0.0585
 Quadrupole moment (field-independent basis, Debye-Ang):
   XX=             -7.1375   YY=           -621.2545   ZZ=           -621.6603
   XY=              0.1842   XZ=             -0.1633   YZ=              0.1866

 Normal termination of Gaussian 16 at Fri Nov 17 12:33:45 2023.
