 Gaussian 16, Revision C.01,
 Gaussian 16:  ES64L-G16RevC.01  3-Jul-2019

 ----------------------------------------------------------------------
 #P PBE1PBE/Def2SVP SP SCF=(YQC,MaxCycle=900) int=(Grid=Superfinegrid)
 EmpiricalDispersion=GD3BJ SCRF=(PCM,Solvent=DiMethylSulfoxide)
 ----------------------------------------------------------------------

 --------
 _s_5d1_d
 --------
 Symbolic Z-matrix:
 Charge =  4 Multiplicity = 1

                         Standard orientation:
 ---------------------------------------------------------------------
 Center     Atomic      Atomic             Coordinates (Angstroms)
 Number     Number       Type             X           Y           Z
 ---------------------------------------------------------------------
      1         46           0       -4.528334   -0.008000   -0.014877
      2         46           0        4.527949   -0.002481   -0.018324
      3          6           0        0.290520   -4.374083   -4.477699
      4          6           0        1.475351   -4.461130   -4.252710
      5          6           0        2.846113   -4.437185   -3.923958
      6          6           0        3.745679   -5.354059   -4.435055
      7          6           0        5.103497   -5.291344   -4.097175
      8          6           0        5.582406   -4.319607   -3.255352
      9          6           0        4.696943   -3.363042   -2.715711
     10          6           0        5.121438   -2.335533   -1.847953
     11          7           0        4.294472   -1.445985   -1.350717
     12          6           0        2.970063   -1.489242   -1.662733
     13          6           0        2.459883   -2.443120   -2.493785
     14          6           0        3.314740   -3.418293   -3.047935
     15          1           0        3.397562   -6.128298   -5.101914
     16          1           0        5.777654   -6.024130   -4.513446
     17          1           0        6.630111   -4.278535   -3.003237
     18          1           0        6.164881   -2.258940   -1.564569
     19          1           0        2.334005   -0.711758   -1.224757
     20          1           0        1.411163   -2.467260   -2.743457
     21          6           0       -1.080535   -4.222193   -4.779739
     22          6           0       -1.556401   -4.552524   -6.050711
     23          6           0       -2.887386   -4.340900   -6.357547
     24          6           0       -3.750676   -3.814995   -5.412229
     25          6           0       -3.292369   -3.496673   -4.131403
     26          6           0       -1.951314   -3.699107   -3.821961
     27          1           0       -0.881869   -4.962262   -6.786780
     28          1           0       -3.256183   -4.585631   -7.342184
     29          1           0       -4.778935   -3.631187   -5.682298
     30          1           0       -1.580187   -3.493904   -2.830081
     31          6           0       -4.237522   -2.958926   -3.139448
     32          6           0       -5.555029   -3.423294   -3.090830
     33          6           0       -6.447183   -2.871467   -2.186627
     34          6           0       -6.006122   -1.875779   -1.333524
     35          7           0       -4.737275   -1.452113   -1.356624
     36          6           0       -3.873981   -1.964669   -2.229768
     37          1           0       -5.873131   -4.216733   -3.748658
     38          1           0       -7.469061   -3.212349   -2.145088
     39          1           0       -6.680633   -1.410161   -0.609822
     40          1           0       -2.872516   -1.549927   -2.214169
     41          6           0       -0.298527    4.568148   -4.272790
     42          6           0       -1.484993    4.352102   -4.360374
     43          6           0       -2.856947    4.028341   -4.339472
     44          6           0       -3.761993    4.583420   -5.224881
     45          6           0       -5.120787    4.249025   -5.165073
     46          6           0       -5.595344    3.367517   -4.226988
     47          6           0       -4.704489    2.782503   -3.302681
     48          6           0       -5.124905    1.875362   -2.308004
     49          7           0       -4.292872    1.336920   -1.447752
     50          6           0       -2.966680    1.641563   -1.491818
     51          6           0       -2.460387    2.508991   -2.414728
     52          6           0       -3.321099    3.110070   -3.356252
     53          1           0       -3.417349    5.282313   -5.971920
     54          1           0       -5.799231    4.700081   -5.872915
     55          1           0       -6.643934    3.118828   -4.187571
     56          1           0       -6.169348    1.595617   -2.233143
     57          1           0       -2.325164    1.165034   -0.741840
     58          1           0       -1.410240    2.752806   -2.438910
     59          6           0        1.075290    4.856910   -4.120420
     60          6           0        1.558492    6.133110   -4.418592
     61          6           0        2.893229    6.424270   -4.208269
     62          6           0        3.753140    5.458295   -3.715284
     63          6           0        3.287208    4.172711   -3.428972
     64          6           0        1.942528    3.878936   -3.629900
     65          1           0        0.886690    6.885229   -4.803066
     66          1           0        3.267671    7.412459   -4.428423
     67          1           0        4.784863    5.715147   -3.532227
     68          1           0        1.565677    2.884385   -3.449146
     69          6           0        4.228509    3.159703   -2.924890
     70          6           0        5.541288    3.111242   -3.402632
     71          6           0        6.430710    2.186681   -2.880987
     72          6           0        5.992137    1.315128   -1.900137
     73          7           0        4.727778    1.339015   -1.463721
     74          6           0        3.866722    2.230167   -1.948691
     75          1           0        5.857577    3.785353   -4.183144
     76          1           0        7.448876    2.144288   -3.232636
     77          1           0        6.664588    0.575339   -1.457805
     78          1           0        2.868563    2.212461   -1.525829
     79          6           0        0.298776    4.327455    4.483008
     80          6           0        1.483134    4.420239    4.258043
     81          6           0        2.853267    4.401041    3.926448
     82          6           0        3.754029    5.311646    4.446633
     83          6           0        5.111192    5.252485    4.105496
     84          6           0        5.588348    4.290447    3.251727
     85          6           0        4.701779    3.340363    2.702504
     86          6           0        5.124536    2.322003    1.823146
     87          7           0        4.296203    1.438805    1.317175
     88          6           0        2.972114    1.479980    1.630673
     89          6           0        2.463710    2.424629    2.473078
     90          6           0        3.320087    3.392560    3.037510
     91          1           0        3.407291    6.077968    5.123358
     92          1           0        5.786265    5.980228    4.529107
     93          1           0        6.635641    4.251890    2.997389
     94          1           0        6.167495    2.247375    1.537963
     95          1           0        2.334626    0.708633    1.183621
     96          1           0        1.415216    2.446842    2.724032
     97          6           0       -1.071635    4.168269    4.784248
     98          6           0       -1.546978    4.479605    6.060194
     99          6           0       -2.877159    4.260473    6.365524
    100          6           0       -3.740129    3.745887    5.413656
    101          6           0       -3.282328    3.446654    4.128049
    102          6           0       -1.942114    3.656256    3.820180
    103          1           0       -0.872632    4.880737    6.801212
    104          1           0       -3.245552    4.490373    7.353785
    105          1           0       -4.767741    3.555990    5.681943
    106          1           0       -1.571642    3.465581    2.825158
    107          6           0       -4.227553    2.920962    3.129894
    108          6           0       -5.545335    3.385231    3.088501
    109          6           0       -6.438434    2.844234    2.178704
    110          6           0       -5.998140    1.858383    1.313768
    111          7           0       -4.729103    1.434937    1.330223
    112          6           0       -3.864669    1.938046    2.207802
    113          1           0       -5.862976    4.170440    3.756425
    114          1           0       -7.460490    3.185237    2.142216
    115          1           0       -6.673399    1.400798    0.585688
    116          1           0       -2.862843    1.524541    2.184849
    117          6           0       -0.289856   -4.500894    4.319211
    118          6           0       -1.475656   -4.281526    4.406847
    119          6           0       -2.847369   -3.956475    4.383852
    120          6           0       -3.748045   -4.482279    5.291448
    121          6           0       -5.106619   -4.147372    5.229354
    122          6           0       -5.585300   -3.294028    4.267608
    123          6           0       -4.698848   -2.739191    3.320606
    124          6           0       -5.123135   -1.859614    2.303133
    125          7           0       -4.295235   -1.348584    1.422368
    126          6           0       -2.969932   -1.657389    1.465637
    127          6           0       -2.459924   -2.499123    2.409995
    128          6           0       -3.315883   -3.068379    3.375442
    129          1           0       -3.400186   -5.158348    6.057646
    130          1           0       -5.781523   -4.575146    5.954728
    131          1           0       -6.633558   -3.044323    4.227044
    132          1           0       -6.167142   -1.578591    2.226982
    133          1           0       -2.332555   -1.207222    0.696197
    134          1           0       -1.410453   -2.745916    2.433827
    135          6           0        1.082546   -4.796647    4.167018
    136          6           0        1.562504   -6.068524    4.487753
    137          6           0        2.894944   -6.368903    4.276198
    138          6           0        3.755863   -5.416033    3.759905
    139          6           0        3.293445   -4.134308    3.451275
    140          6           0        1.950844   -3.831469    3.653434
    141          1           0        0.889836   -6.810408    4.890219
    142          1           0        3.266932   -7.354048    4.513644
    143          1           0        4.785432   -5.680698    3.576094
    144          1           0        1.576670   -2.839317    3.455550
    145          6           0        4.236288   -3.134924    2.923344
    146          6           0        5.552553   -3.085166    3.391162
    147          6           0        6.443195   -2.174398    2.847776
    148          6           0        6.002106   -1.316524    1.856167
    149          7           0        4.734434   -1.340844    1.429402
    150          6           0        3.872303   -2.219606    1.934524
    151          1           0        5.870757   -3.747287    4.180908
    152          1           0        7.464013   -2.131636    3.191498
    153          1           0        6.675231   -0.587901    1.396304
    154          1           0        2.871649   -2.203621    1.517727
 ---------------------------------------------------------------------

 SCF Done:  E(RPBE1PBE) =  -4073.31408799     a.u. after   20 cycles
 SCF Done:  E(RPBE1PBE) =  -4073.31424233     A.U. after   10 cycles

 The electronic state is 1-A.
 Alpha  occ. eigenvalues --  -14.48879 -14.48878 -14.48876 -14.48875 -14.48716
 Alpha  occ. eigenvalues --  -14.48715 -14.48713 -14.48712 -10.32675 -10.32673
 Alpha  occ. eigenvalues --  -10.32670 -10.32665 -10.32162 -10.32161 -10.32161
 Alpha  occ. eigenvalues --  -10.32154 -10.31852 -10.31849 -10.31847 -10.31842
 Alpha  occ. eigenvalues --  -10.31358 -10.31356 -10.31354 -10.31351 -10.29512
 Alpha  occ. eigenvalues --  -10.29510 -10.29510 -10.29505 -10.29444 -10.29443
 Alpha  occ. eigenvalues --  -10.29442 -10.29437 -10.29431 -10.29431 -10.29429
 Alpha  occ. eigenvalues --  -10.29427 -10.29020 -10.29017 -10.29017 -10.29012
 Alpha  occ. eigenvalues --  -10.28889 -10.28887 -10.28887 -10.28880 -10.28494
 Alpha  occ. eigenvalues --  -10.28494 -10.28494 -10.28490 -10.28025 -10.28024
 Alpha  occ. eigenvalues --  -10.28023 -10.28018 -10.27929 -10.27926 -10.27925
 Alpha  occ. eigenvalues --  -10.27920 -10.27785 -10.27783 -10.27782 -10.27781
 Alpha  occ. eigenvalues --  -10.27668 -10.27666 -10.27665 -10.27662 -10.27474
 Alpha  occ. eigenvalues --  -10.27472 -10.27472 -10.27467 -10.26904 -10.26902
 Alpha  occ. eigenvalues --  -10.26901 -10.26899 -10.26864 -10.26864 -10.26863
 Alpha  occ. eigenvalues --  -10.26861 -10.26384 -10.26383 -10.26383 -10.26381
 Alpha  occ. eigenvalues --  -10.26352 -10.26351 -10.26351 -10.26348 -10.26313
 Alpha  occ. eigenvalues --  -10.26313 -10.26312 -10.26309 -10.26058 -10.26058
 Alpha  occ. eigenvalues --  -10.26057 -10.26056 -10.25869 -10.25869 -10.25868
 Alpha  occ. eigenvalues --  -10.25866  -3.57863  -3.57860  -2.25780  -2.25776
 Alpha  occ. eigenvalues --   -2.25736  -2.25722  -2.21716  -2.21715  -1.04270
 Alpha  occ. eigenvalues --   -1.04259  -1.03608  -1.03603  -1.03453  -1.03447
 Alpha  occ. eigenvalues --   -1.03443  -1.03433  -0.92964  -0.92952  -0.92902
 Alpha  occ. eigenvalues --   -0.92898  -0.92211  -0.92194  -0.92184  -0.92183
 Alpha  occ. eigenvalues --   -0.87869  -0.87851  -0.87720  -0.87717  -0.85689
 Alpha  occ. eigenvalues --   -0.85682  -0.85680  -0.85678  -0.84372  -0.84343
 Alpha  occ. eigenvalues --   -0.84315  -0.84313  -0.83917  -0.83878  -0.83788
 Alpha  occ. eigenvalues --   -0.83786  -0.82360  -0.82315  -0.82313  -0.82302
 Alpha  occ. eigenvalues --   -0.80709  -0.80689  -0.80686  -0.80657  -0.79023
 Alpha  occ. eigenvalues --   -0.79012  -0.79007  -0.79005  -0.76208  -0.76192
 Alpha  occ. eigenvalues --   -0.76191  -0.76182  -0.71703  -0.71693  -0.71531
 Alpha  occ. eigenvalues --   -0.71526  -0.70794  -0.70793  -0.70774  -0.70736
 Alpha  occ. eigenvalues --   -0.69847  -0.69787  -0.69598  -0.69596  -0.69177
 Alpha  occ. eigenvalues --   -0.69173  -0.69029  -0.69026  -0.67919  -0.67892
 Alpha  occ. eigenvalues --   -0.67830  -0.67830  -0.65248  -0.65233  -0.65196
 Alpha  occ. eigenvalues --   -0.65195  -0.64526  -0.64503  -0.64424  -0.64422
 Alpha  occ. eigenvalues --   -0.61282  -0.60840  -0.60387  -0.60386  -0.60267
 Alpha  occ. eigenvalues --   -0.59705  -0.59462  -0.59461  -0.58768  -0.58698
 Alpha  occ. eigenvalues --   -0.58257  -0.58251  -0.57171  -0.57127  -0.56864
 Alpha  occ. eigenvalues --   -0.56802  -0.56750  -0.56747  -0.56280  -0.56277
 Alpha  occ. eigenvalues --   -0.55766  -0.55764  -0.55750  -0.55748  -0.52968
 Alpha  occ. eigenvalues --   -0.52947  -0.52524  -0.52523  -0.52373  -0.52209
 Alpha  occ. eigenvalues --   -0.51885  -0.51783  -0.51693  -0.51656  -0.51655
 Alpha  occ. eigenvalues --   -0.51604  -0.51419  -0.51412  -0.50613  -0.50576
 Alpha  occ. eigenvalues --   -0.50549  -0.50547  -0.50449  -0.50389  -0.50069
 Alpha  occ. eigenvalues --   -0.50067  -0.50064  -0.49909  -0.49669  -0.49555
 Alpha  occ. eigenvalues --   -0.49216  -0.49204  -0.48946  -0.48915  -0.48909
 Alpha  occ. eigenvalues --   -0.48827  -0.48742  -0.48737  -0.48288  -0.48188
 Alpha  occ. eigenvalues --   -0.48166  -0.48161  -0.47834  -0.47829  -0.47200
 Alpha  occ. eigenvalues --   -0.47126  -0.46812  -0.46812  -0.46507  -0.46505
 Alpha  occ. eigenvalues --   -0.46428  -0.46426  -0.46161  -0.46150  -0.44645
 Alpha  occ. eigenvalues --   -0.44637  -0.43983  -0.43905  -0.43868  -0.43500
 Alpha  occ. eigenvalues --   -0.43496  -0.43439  -0.43241  -0.43008  -0.42912
 Alpha  occ. eigenvalues --   -0.42910  -0.42732  -0.42396  -0.42317  -0.42310
 Alpha  occ. eigenvalues --   -0.42087  -0.42084  -0.41687  -0.41620  -0.40462
 Alpha  occ. eigenvalues --   -0.40445  -0.39816  -0.39814  -0.39725  -0.39688
 Alpha  occ. eigenvalues --   -0.39478  -0.39475  -0.39450  -0.39449  -0.39405
 Alpha  occ. eigenvalues --   -0.39367  -0.39024  -0.39008  -0.38593  -0.37983
 Alpha  occ. eigenvalues --   -0.37556  -0.37551  -0.37067  -0.36779  -0.36776
 Alpha  occ. eigenvalues --   -0.36568  -0.36481  -0.36475  -0.35915  -0.35899
 Alpha  occ. eigenvalues --   -0.35024  -0.34659  -0.34590  -0.34584  -0.34206
 Alpha  occ. eigenvalues --   -0.34191  -0.33794  -0.33592  -0.33586  -0.33153
 Alpha  occ. eigenvalues --   -0.32761  -0.32751  -0.32699  -0.32484  -0.32154
 Alpha  occ. eigenvalues --   -0.32148  -0.31712  -0.31681  -0.30989  -0.30983
 Alpha  occ. eigenvalues --   -0.30817  -0.30794  -0.29226  -0.29169  -0.29061
 Alpha  occ. eigenvalues --   -0.29044  -0.29034  -0.28922  -0.28233  -0.28227
 Alpha  occ. eigenvalues --   -0.28220  -0.28093  -0.25209  -0.25201  -0.25191
 Alpha  occ. eigenvalues --   -0.25149
 Alpha virt. eigenvalues --   -0.10069  -0.10066  -0.09877  -0.09835  -0.08173
 Alpha virt. eigenvalues --   -0.08165  -0.07876  -0.07782  -0.07247  -0.07173
 Alpha virt. eigenvalues --   -0.07124  -0.07116  -0.06665  -0.06527  -0.06512

 Mulliken charges:
               1
     1  Pd   0.487636
     2  Pd   0.485358
     3  C    0.003614
     4  C   -0.054738
     5  C   -0.021380
     6  C    0.022775
     7  C   -0.002072
     8  C    0.021888
     9  C   -0.070491
    10  C    0.181315
    11  N   -0.330283
    12  C    0.151122
    13  C   -0.007288
    14  C    0.064889
    15  H    0.044248
    16  H    0.055177
    17  H    0.044629
    18  H    0.085402
    19  H    0.109889
    20  H    0.046535
    21  C   -0.076146
    22  C    0.022372
    23  C   -0.011467
    24  C   -0.021867
    25  C    0.031647
    26  C   -0.008444
    27  H    0.036910
    28  H    0.045378
    29  H    0.040564
    30  H    0.032935
    31  C   -0.039803
    32  C    0.061770
    33  C   -0.027331
    34  C    0.149530
    35  N   -0.322761
    36  C    0.159557
    37  H    0.064446
    38  H    0.067583
    39  H    0.123232
    40  H    0.083802
    41  C    0.004019
    42  C   -0.055146
    43  C   -0.021002
    44  C    0.022589
    45  C   -0.002046
    46  C    0.021791
    47  C   -0.070763
    48  C    0.181803
    49  N   -0.330191
    50  C    0.151579
    51  C   -0.007668
    52  C    0.064652
    53  H    0.044197
    54  H    0.055154
    55  H    0.044634
    56  H    0.084799
    57  H    0.109412
    58  H    0.046385
    59  C   -0.075928
    60  C    0.022267
    61  C   -0.011389
    62  C   -0.021638
    63  C    0.031280
    64  C   -0.008714
    65  H    0.036953
    66  H    0.045357
    67  H    0.040503
    68  H    0.033187
    69  C   -0.039850
    70  C    0.062134
    71  C   -0.027295
    72  C    0.149896
    73  N   -0.323191
    74  C    0.159213
    75  H    0.064449
    76  H    0.067625
    77  H    0.122960
    78  H    0.084414
    79  C    0.003690
    80  C   -0.054683
    81  C   -0.021288
    82  C    0.022784
    83  C   -0.002025
    84  C    0.021892
    85  C   -0.070416
    86  C    0.181551
    87  N   -0.330465
    88  C    0.150355
    89  C   -0.007027
    90  C    0.064730
    91  H    0.044274
    92  H    0.055198
    93  H    0.044646
    94  H    0.085375
    95  H    0.109850
    96  H    0.046462
    97  C   -0.076144
    98  C    0.022350
    99  C   -0.011389
   100  C   -0.021845
   101  C    0.031357
   102  C   -0.008309
   103  H    0.036960
   104  H    0.045366
   105  H    0.040597
   106  H    0.032980
   107  C   -0.039582
   108  C    0.061772
   109  C   -0.027048
   110  C    0.149028
   111  N   -0.323253
   112  C    0.159575
   113  H    0.064498
   114  H    0.067675
   115  H    0.123035
   116  H    0.084200
   117  C    0.003710
   118  C   -0.054783
   119  C   -0.021294
   120  C    0.022832
   121  C   -0.002047
   122  C    0.021907
   123  C   -0.070554
   124  C    0.181751
   125  N   -0.330267
   126  C    0.151065
   127  C   -0.007351
   128  C    0.064746
   129  H    0.044189
   130  H    0.055152
   131  H    0.044606
   132  H    0.085169
   133  H    0.109206
   134  H    0.046508
   135  C   -0.076066
   136  C    0.022310
   137  C   -0.011407
   138  C   -0.021824
   139  C    0.031491
   140  C   -0.008378
   141  H    0.036969
   142  H    0.045366
   143  H    0.040534
   144  H    0.032946
   145  C   -0.039398
   146  C    0.061895
   147  C   -0.027028
   148  C    0.149177
   149  N   -0.323349
   150  C    0.159083
   151  H    0.064438
   152  H    0.067591
   153  H    0.123446
   154  H    0.084377
 Sum of Mulliken charges =   4.00000

 Dipole moment (field-independent basis, Debye):
    X=             -0.0101    Y=             -0.0194    Z=             -0.0487  Tot=              0.0534
 Quadrupole moment (field-independent basis, Debye-Ang):
   XX=             -6.7450   YY=           -364.7539   ZZ=           -369.5231
   XY=             -0.1337   XZ=             -0.3171   YZ=             -0.0843

 Normal termination of Gaussian 16 at Fri Feb 26 14:10:45 2021.
