 Gaussian 16, Revision C.01,
 Gaussian 16:  ES64L-G16RevC.01  3-Jul-2019

 ------------------------------------------------------------------
 # SP PBE1PBE/def2svp empiricaldispersion=GD3BJ scrf=(solvent=dmso)
 ------------------------------------------------------------------

 -----------
 trans_l1_la
 -----------
 Symbolic Z-matrix:
 Charge =  4 Multiplicity = 1

                         Standard orientation:
 ---------------------------------------------------------------------
 Center     Atomic      Atomic             Coordinates (Angstroms)
 Number     Number       Type             X           Y           Z
 ---------------------------------------------------------------------
      1         46           0        6.897300   -0.081592    0.049302
      2         46           0       -8.158300    0.089691    0.104702
      3          6           0        4.490802   -1.674095   -0.237898
      4          7           0        5.418802   -1.340394    0.676202
      5          6           0        5.390802   -1.937994    1.876602
      6          6           0        4.441503   -2.891595    2.201502
      7          6           0        3.453204   -3.238496    1.270002
      8          6           0        2.385805   -4.194397    1.611102
      9          6           0        2.688706   -5.385997    2.301902
     10          6           0        1.694007   -6.270498    2.706202
     11          6           0        0.384907   -5.907999    2.424302
     12          8           0       -0.726293   -6.598001    2.798402
     13          6           0       -1.797593   -5.881002    2.368202
     14          6           0       -3.127793   -6.213403    2.577602
     15          6           0       -4.076394   -5.317404    2.101102
     16          6           0       -3.713595   -4.138304    1.413902
     17          6           0       -4.757896   -3.194805    0.985402
     18          6           0       -4.667797   -2.443905   -0.196198
     19          6           0       -5.671298   -1.546406   -0.529698
     20          7           0       -6.739198   -1.358907    0.258702
     21          6           0       -6.844498   -2.066507    1.399002
     22          6           0       -5.893997   -2.989106    1.782602
     23          6           0       -2.363696   -3.844702    1.188302
     24          6           0       -1.398595   -4.717001    1.685302
     25          6           0        0.048705   -4.733700    1.725802
     26          6           0        1.059304   -3.876899    1.297802
     27          6           0        3.497103   -2.599296    0.024402
     28          1           0        4.556401   -1.185695   -1.211198
     29          1           0        6.144902   -1.635993    2.603602
     30          1           0        4.454904   -3.333395    3.198702
     31          1           0        3.732306   -5.628996    2.512702
     32          1           0        1.927608   -7.197198    3.231002
     33          1           0       -3.411292   -7.130604    3.094502
     34          1           0       -5.133894   -5.550605    2.239102
     35          1           0       -3.828397   -2.571104   -0.880698
     36          1           0       -5.626899   -0.964106   -1.451498
     37          1           0       -7.721898   -1.876908    2.020902
     38          1           0       -6.026296   -3.516506    2.727302
     39          1           0       -2.069997   -2.926902    0.675002
     40          1           0        0.819003   -2.947199    0.778502
     41          1           0        2.774103   -2.836497   -0.756198
     42          6           0        5.503198    1.828906   -1.817098
     43          7           0        5.501399    1.253306   -0.605998
     44          6           0        4.575098    1.632605    0.292102
     45          6           0        3.603997    2.571804   -0.002698
     46          6           0        3.581197    3.176704   -1.266298
     47          6           0        2.520496    4.123103   -1.652598
     48          6           0        2.826994    5.280903   -2.398098
     49          6           0        1.833793    6.140902   -2.855398
     50          6           0        0.522394    5.789601   -2.567698
     51          8           0       -0.587607    6.455400   -2.986198
     52          6           0       -1.660306    5.759598   -2.526198
     53          6           0       -2.989806    6.078897   -2.758498
     54          6           0       -3.938906    5.208296   -2.238498
     55          6           0       -3.578004    4.066796   -1.488998
     56          6           0       -4.626203    3.154395   -1.007698
     57          6           0       -5.775703    2.931394   -1.780798
     58          6           0       -6.743802    2.057493   -1.334298
     59          7           0       -6.641701    1.415093   -0.155598
     60          6           0       -5.554302    1.606994    0.603402
     61          6           0       -4.532903    2.457795    0.206702
     62          6           0       -2.229004    3.785898   -1.244798
     63          6           0       -1.263305    4.632699   -1.782198
     64          6           0        0.183595    4.651700   -1.813298
     65          6           0        1.192196    3.819401   -1.335098
     66          6           0        4.577497    2.794005   -2.174898
     67          1           0        6.259099    1.496107   -2.528498
     68          1           0        4.621999    1.164805    1.276802
     69          1           0        2.876597    2.840203    0.763402
     70          1           0        3.871694    5.516204   -2.611698
     71          1           0        2.070292    7.040702   -3.423898
     72          1           0       -3.272407    6.967697   -3.323198
     73          1           0       -4.995706    5.434695   -2.390898
     74          1           0       -5.908204    3.409894   -2.750998
     75          1           0       -7.636602    1.857092   -1.930798
     76          1           0       -5.511501    1.071494    1.553302
     77          1           0       -3.677803    2.594896    0.869502
     78          1           0       -1.936103    2.896798   -0.682798
     79          1           0        0.948097    2.915201   -0.774198
     80          1           0        4.611497    3.211305   -3.182098
     81          6           0        9.719303   -2.925489    1.745202
     82          6           0        8.908403   -2.319490    0.814402
     83          7           0        8.282501   -1.145091    1.090502
     84          6           0        8.449001   -0.570191    2.267302
     85          6           0        9.215001   -1.131690    3.301302
     86          6           0        9.270001   -0.500690    4.585302
     87          6           0        8.432499    0.725709    4.697902
     88          6           0        7.051100    0.593308    4.902302
     89          6           0        6.176598    1.613807    4.544302
     90          6           0        6.669197    2.799208    3.967902
     91          6           0        5.802596    3.758507    3.367502
     92          6           0        5.130695    4.553706    2.731502
     93          6           0        4.466494    5.521005    1.921402
     94          6           0        3.065294    5.616804    1.864802
     95          6           0        2.493993    6.592803    1.047402
     96          6           0        1.142992    7.015701    0.719702
     97          6           0       -0.144607    6.592700    1.051102
     98          6           0       -1.241208    7.270099    0.491302
     99          6           0       -2.583207    6.862397    0.743802
    100          6           0       -3.756707    6.558496    0.874802
    101          6           0       -5.133707    6.211595    0.979902
    102          6           0       -6.105707    6.909693    0.236302
    103          6           0       -7.452507    6.586692    0.347902
    104          6           0       -7.874506    5.546592    1.189102
    105          6           0       -9.308506    5.250190    1.410902
    106          6           0      -10.177507    6.241889    1.827602
    107          6           0      -11.501206    5.942488    2.221402
    108          6           0      -11.962905    4.645187    2.244102
    109          6           0      -11.121804    3.601888    1.793702
    110          6           0      -11.487202    2.232688    1.803202
    111          6           0      -10.637201    1.288288    1.293502
    112          7           0       -9.458402    1.617690    0.684302
    113          6           0       -9.067403    2.881090    0.722402
    114          6           0       -9.816004    3.915189    1.318202
    115          6           0       -6.901605    4.837493    1.913902
    116          6           0       -5.556805    5.167194    1.821002
    117          6           0       -1.031509    8.368399   -0.379698
    118          6           0        0.242791    8.796600   -0.720898
    119          6           0        1.305491    8.098402   -0.166198
    120          8           0        2.617891    8.355503   -0.408498
    121          6           0        3.332592    7.453504    0.311902
    122          6           0        4.717492    7.373205    0.336602
    123          6           0        5.272593    6.395706    1.149902
    124          6           0        8.064197    2.981209    3.890602
    125          6           0        8.931298    1.955710    4.249802
    126          6           0       10.037801   -1.090389    5.562002
    127          6           0       10.745503   -2.291388    5.292602
    128          6           0       10.679103   -2.918988    4.068402
    129          6           0        9.894403   -2.352589    3.033002
    130          1           0       10.215704   -3.863989    1.492602
    131          1           0        8.728403   -2.748390   -0.172698
    132          1           0        7.931800    0.377209    2.422002
    133          1           0        6.649801   -0.357393    5.261902
    134          1           0        5.099199    1.469906    4.645402
    135          1           0        2.443895    4.943303    2.457802
    136          1           0       -0.306806    5.743500    1.716702
    137          1           0       -5.791608    7.715894   -0.429198
    138          1           0       -8.191108    7.145391   -0.231398
    139          1           0       -9.816608    7.269689    1.907502
    140          1           0      -12.149507    6.755587    2.555202
    141          1           0      -12.966605    4.410686    2.603502
    142          1           0      -12.441402    1.919587    2.230202
    143          1           0      -10.881100    0.228588    1.350902
    144          1           0       -8.119703    3.137191    0.257302
    145          1           0       -7.208504    4.038192    2.593002
    146          1           0       -4.820305    4.621395    2.412702
    147          1           0       -1.901810    8.873398   -0.801998
    148          1           0        0.406790    9.630501   -1.404198
    149          1           0        5.335491    8.051306   -0.253098
    150          1           0        6.357593    6.294007    1.207502
    151          1           0        8.460996    3.911209    3.479102
    152          1           0       10.005498    2.077811    4.092902
    153          1           0       10.099401   -0.640189    6.554602
    154          1           0       11.349303   -2.732187    6.088902
    155          1           0       11.218204   -3.851087    3.888202
    156          6           0        9.930797    2.563311   -1.618498
    157          6           0        9.084598    2.007010   -0.687498
    158          7           0        8.360099    0.894309   -0.977098
    159          6           0        8.468800    0.329909   -2.165798
    160          6           0        9.264499    0.846810   -3.199998
    161          6           0        9.251600    0.237210   -4.495398
    162          6           0        8.318101   -0.916991   -4.620798
    163          6           0        6.951401   -0.674892   -4.822698
    164          6           0        5.999702   -1.632793   -4.487998
    165          6           0        6.397403   -2.865293   -3.937898
    166          6           0        5.460004   -3.777394   -3.369898
    167          6           0        4.736905   -4.554295   -2.767998
    168          6           0        4.027006   -5.524795   -2.000398
    169          6           0        2.623106   -5.589497   -1.973598
    170          6           0        2.013407   -6.587798   -1.211398
    171          6           0        0.647008   -7.000799   -0.935398
    172          6           0       -0.625893   -6.540301   -1.275398
    173          6           0       -1.745792   -7.223802   -0.772598
    174          6           0       -3.075592   -6.773403   -1.016398
    175          6           0       -4.242493   -6.436404   -1.122298
    176          6           0       -5.610893   -6.047006   -1.173998
    177          6           0       -6.576592   -6.738207   -0.415998
    178          6           0       -7.913593   -6.361209   -0.455598
    179          6           0       -8.329894   -5.274909   -1.238398
    180          6           0       -9.756194   -4.892211   -1.351498
    181          6           0      -10.711093   -5.809112   -1.749798
    182          6           0      -12.041994   -5.414813   -2.016598
    183          6           0      -12.428995   -4.096313   -1.925298
    184          6           0      -11.495196   -3.128212   -1.489498
    185          6           0      -11.779698   -1.743813   -1.385898
    186          6           0      -10.836199   -0.878812   -0.899598
    187          7           0       -9.628098   -1.305010   -0.423298
    188          6           0       -9.318197   -2.583110   -0.568298
    189          6           0      -10.175096   -3.538911   -1.147698
    190          6           0       -7.363995   -4.582108   -1.988398
    191          6           0       -6.029794   -4.962306   -1.964998
    192          6           0       -1.575391   -8.367202    0.047602
    193          6           0       -0.316790   -8.832900    0.397002
    194          6           0        0.769809   -8.127099   -0.098498
    195          8           0        2.071309   -8.418998    0.162202
    196          6           0        2.818308   -7.497897   -0.497998
    197          6           0        4.204708   -7.445195   -0.488098
    198          6           0        4.797307   -6.447195   -1.247598
    199          6           0        7.774604   -3.153591   -3.860098
    200          6           0        8.719003   -2.190190   -4.195498
    201          6           0       10.048599    0.784711   -5.473298
    202          6           0       10.852098    1.921412   -5.193298
    203          6           0       10.853497    2.528212   -3.956898
    204          6           0       10.041498    2.005111   -2.919798
    205          1           0       10.505896    3.452512   -1.354798
    206          1           0        8.957398    2.427010    0.311502
    207          1           0        7.879201   -0.571691   -2.331198
    208          1           0        6.625000    0.309607   -5.166998
    209          1           0        4.937002   -1.404594   -4.589398
    210          1           0        2.029006   -4.877998   -2.549798
    211          1           0       -0.758994   -5.656901   -1.901698
    212          1           0       -6.265091   -7.578107    0.207602
    213          1           0       -8.647192   -6.909709    0.139702
    214          1           0      -10.419792   -6.849211   -1.911298
    215          1           0      -12.761293   -6.170314   -2.340498
    216          1           0      -13.444296   -3.787815   -2.182198
    217          1           0      -12.747398   -1.354714   -1.706598
    218          1           0      -11.025500    0.192788   -0.872498
    219          1           0       -8.348297   -2.916109   -0.211698
    220          1           0       -7.669996   -3.748408   -2.624998
    221          1           0       -5.298195   -4.422306   -2.568098
    222          1           0       -2.463690   -8.876003    0.425202
    223          1           0       -0.182089   -9.701200    1.042702
    224          1           0        4.795209   -8.160695    0.085302
    225          1           0        5.885207   -6.367493   -1.279498
    226          1           0        8.097805   -4.120291   -3.469298
    227          1           0        9.780203   -2.398489   -4.040698
    228          1           0       10.060200    0.350911   -6.475098
    229          1           0       11.476598    2.329213   -5.991198
    230          1           0       11.466796    3.411513   -3.768598
 ---------------------------------------------------------------------

 SCF Done:  E(RPBE1PBE) =  -6214.08700106     A.U. after   18 cycles

 The electronic state is 1-A.
 Alpha  occ. eigenvalues --  -19.30001 -19.29969 -19.29794 -19.29783 -14.48777
 Alpha  occ. eigenvalues --  -14.48734 -14.48306 -14.48298 -14.48297 -14.48292
 Alpha  occ. eigenvalues --  -14.48236 -14.48167 -10.32103 -10.32059 -10.32032
 Alpha  occ. eigenvalues --  -10.32032 -10.32016 -10.32011 -10.32007 -10.32003
 Alpha  occ. eigenvalues --  -10.32000 -10.31997 -10.31970 -10.31870 -10.31794
 Alpha  occ. eigenvalues --  -10.31788 -10.31726 -10.31708 -10.31688 -10.31681
 Alpha  occ. eigenvalues --  -10.31663 -10.31654 -10.31111 -10.31103 -10.30754
 Alpha  occ. eigenvalues --  -10.30694 -10.30330 -10.30286 -10.30024 -10.29996
 Alpha  occ. eigenvalues --  -10.29174 -10.29170 -10.28886 -10.28852 -10.28667
 Alpha  occ. eigenvalues --  -10.28650 -10.28631 -10.28629 -10.28602 -10.28553
 Alpha  occ. eigenvalues --  -10.28549 -10.28541 -10.28460 -10.28430 -10.28321
 Alpha  occ. eigenvalues --  -10.28306 -10.28303 -10.28303 -10.28282 -10.28256
 Alpha  occ. eigenvalues --  -10.28186 -10.28147 -10.28066 -10.28064 -10.28062
 Alpha  occ. eigenvalues --  -10.28050 -10.27966 -10.27947 -10.27917 -10.27895
 Alpha  occ. eigenvalues --  -10.27693 -10.27650 -10.27528 -10.27502 -10.27462
 Alpha  occ. eigenvalues --  -10.27451 -10.27446 -10.27440 -10.27424 -10.27404
 Alpha  occ. eigenvalues --  -10.27286 -10.27280 -10.27151 -10.27143 -10.27108
 Alpha  occ. eigenvalues --  -10.27096 -10.27088 -10.27075 -10.27069 -10.27061
 Alpha  occ. eigenvalues --  -10.27041 -10.27017 -10.26962 -10.26958 -10.26948
 Alpha  occ. eigenvalues --  -10.26941 -10.26931 -10.26929 -10.26898 -10.26894
 Alpha  occ. eigenvalues --  -10.26864 -10.26843 -10.26831 -10.26818 -10.26805
 Alpha  occ. eigenvalues --  -10.26803 -10.26803 -10.26783 -10.26761 -10.26758
 Alpha  occ. eigenvalues --  -10.26681 -10.26669 -10.26645 -10.26636 -10.26630
 Alpha  occ. eigenvalues --  -10.26615 -10.26581 -10.26573 -10.26560 -10.26518
 Alpha  occ. eigenvalues --  -10.26468 -10.26443 -10.26442 -10.26424 -10.26423
 Alpha  occ. eigenvalues --  -10.26416 -10.26373 -10.26367 -10.26300 -10.26295
 Alpha  occ. eigenvalues --  -10.26285 -10.26285 -10.26270 -10.26264 -10.26237
 Alpha  occ. eigenvalues --  -10.26237 -10.26146 -10.26141 -10.26133 -10.26129
 Alpha  occ. eigenvalues --  -10.25989 -10.25967 -10.25706 -10.25685 -10.25572
 Alpha  occ. eigenvalues --  -10.25562 -10.25285 -10.25283  -3.57169  -3.56976
 Alpha  occ. eigenvalues --   -2.25006  -2.24984  -2.24823  -2.24767  -2.20811
 Alpha  occ. eigenvalues --   -2.20714  -1.16190  -1.16166  -1.16056  -1.16036
 Alpha  occ. eigenvalues --   -1.03554  -1.03333  -1.02960  -1.02800  -1.02645
 Alpha  occ. eigenvalues --   -1.02433  -1.02410  -1.02172  -0.92679  -0.92652
 Alpha  occ. eigenvalues --   -0.92405  -0.92357  -0.91881  -0.91851  -0.91431
 Alpha  occ. eigenvalues --   -0.91398  -0.91042  -0.91039  -0.90557  -0.90551
 Alpha  occ. eigenvalues --   -0.90408  -0.90397  -0.90187  -0.90175  -0.87688
 Alpha  occ. eigenvalues --   -0.87581  -0.87272  -0.87173  -0.85520  -0.85515
 Alpha  occ. eigenvalues --   -0.85301  -0.85256  -0.83800  -0.83793  -0.83108
 Alpha  occ. eigenvalues --   -0.83096  -0.82966  -0.82895  -0.82734  -0.82649
 Alpha  occ. eigenvalues --   -0.82615  -0.82602  -0.82499  -0.82370  -0.82344
 Alpha  occ. eigenvalues --   -0.82287  -0.81849  -0.81700  -0.81431  -0.81335
 Alpha  occ. eigenvalues --   -0.80432  -0.80391  -0.80134  -0.80099  -0.78788
 Alpha  occ. eigenvalues --   -0.78785  -0.78656  -0.78641  -0.78526  -0.78511
 Alpha  occ. eigenvalues --   -0.78286  -0.78238  -0.78081  -0.77998  -0.76992
 Alpha  occ. eigenvalues --   -0.76965  -0.76922  -0.76901  -0.75030  -0.75023
 Alpha  occ. eigenvalues --   -0.74531  -0.74521  -0.71052  -0.70866  -0.70852
 Alpha  occ. eigenvalues --   -0.70788  -0.70619  -0.70553  -0.70449  -0.70169
 Alpha  occ. eigenvalues --   -0.69937  -0.69766  -0.69475  -0.69391  -0.69354
 Alpha  occ. eigenvalues --   -0.69325  -0.69135  -0.69037  -0.68540  -0.68474
 Alpha  occ. eigenvalues --   -0.68410  -0.68217  -0.67352  -0.67343  -0.67230
 Alpha  occ. eigenvalues --   -0.67150  -0.66510  -0.66500  -0.64682  -0.64673
 Alpha  occ. eigenvalues --   -0.64460  -0.64433  -0.64354  -0.64345  -0.63949
 Alpha  occ. eigenvalues --   -0.63920  -0.63112  -0.63080  -0.62949  -0.62847
 Alpha  occ. eigenvalues --   -0.62793  -0.62675  -0.62411  -0.62378  -0.62108
 Alpha  occ. eigenvalues --   -0.62105  -0.59935  -0.59351  -0.59209  -0.58666
 Alpha  occ. eigenvalues --   -0.58660  -0.58406  -0.58110  -0.58084  -0.57997
 Alpha  occ. eigenvalues --   -0.57881  -0.57818  -0.57627  -0.57616  -0.57351
 Alpha  occ. eigenvalues --   -0.57231  -0.57124  -0.57074  -0.56766  -0.56644
 Alpha  occ. eigenvalues --   -0.56525  -0.56462  -0.56454  -0.56125  -0.56043
 Alpha  occ. eigenvalues --   -0.55740  -0.55721  -0.55604  -0.55501  -0.55052
 Alpha  occ. eigenvalues --   -0.54871  -0.54581  -0.54567  -0.54050  -0.53823
 Alpha  occ. eigenvalues --   -0.53021  -0.53007  -0.52958  -0.52907  -0.51727
 Alpha  occ. eigenvalues --   -0.51669  -0.51639  -0.51595  -0.51480  -0.51383
 Alpha  occ. eigenvalues --   -0.51328  -0.51266  -0.51169  -0.51074  -0.50860
 Alpha  occ. eigenvalues --   -0.50713  -0.50695  -0.50514  -0.50405  -0.50366
 Alpha  occ. eigenvalues --   -0.50321  -0.50271  -0.50242  -0.50136  -0.49916
 Alpha  occ. eigenvalues --   -0.49855  -0.49744  -0.49487  -0.49243  -0.49229
 Alpha  occ. eigenvalues --   -0.49177  -0.48784  -0.48707  -0.48615  -0.48575
 Alpha  occ. eigenvalues --   -0.48515  -0.48423  -0.48403  -0.48087  -0.48022
 Alpha  occ. eigenvalues --   -0.47990  -0.47881  -0.47861  -0.47829  -0.47773
 Alpha  occ. eigenvalues --   -0.47762  -0.47661  -0.47607  -0.47399  -0.47311
 Alpha  occ. eigenvalues --   -0.47201  -0.47191  -0.47105  -0.47097  -0.47025
 Alpha  occ. eigenvalues --   -0.46873  -0.46825  -0.46744  -0.46732  -0.46381
 Alpha  occ. eigenvalues --   -0.46379  -0.46283  -0.46279  -0.46221  -0.45837
 Alpha  occ. eigenvalues --   -0.45797  -0.45532  -0.45527  -0.45402  -0.45369
 Alpha  occ. eigenvalues --   -0.45284  -0.45239  -0.44789  -0.44771  -0.44587
 Alpha  occ. eigenvalues --   -0.44500  -0.44220  -0.44123  -0.43699  -0.43581
 Alpha  occ. eigenvalues --   -0.43353  -0.43208  -0.42841  -0.42807  -0.42771
 Alpha  occ. eigenvalues --   -0.42668  -0.42442  -0.42413  -0.42315  -0.42188
 Alpha  occ. eigenvalues --   -0.42158  -0.42058  -0.41987  -0.41977  -0.41869
 Alpha  occ. eigenvalues --   -0.41790  -0.41664  -0.41611  -0.41491  -0.41460
 Alpha  occ. eigenvalues --   -0.41393  -0.41357  -0.41270  -0.41165  -0.41004
 Alpha  occ. eigenvalues --   -0.40941  -0.40913  -0.40684  -0.40615  -0.40557
 Alpha  occ. eigenvalues --   -0.40388  -0.40374  -0.39953  -0.39880  -0.39813
 Alpha  occ. eigenvalues --   -0.39656  -0.39629  -0.39487  -0.38712  -0.38708
 Alpha  occ. eigenvalues --   -0.38524  -0.38503  -0.38344  -0.38255  -0.38090
 Alpha  occ. eigenvalues --   -0.38025  -0.37867  -0.37792  -0.37653  -0.37534
 Alpha  occ. eigenvalues --   -0.37522  -0.37326  -0.37186  -0.37169  -0.37160
 Alpha  occ. eigenvalues --   -0.36899  -0.36865  -0.36632  -0.36499  -0.36353
 Alpha  occ. eigenvalues --   -0.35792  -0.35373  -0.35337  -0.35146  -0.34977
 Alpha  occ. eigenvalues --   -0.34903  -0.34809  -0.34407  -0.34370  -0.34291
 Alpha  occ. eigenvalues --   -0.33994  -0.33641  -0.32895  -0.32784  -0.32691
 Alpha  occ. eigenvalues --   -0.32556  -0.32337  -0.32242  -0.32170  -0.32048
 Alpha  occ. eigenvalues --   -0.31975  -0.31832  -0.31664  -0.31458  -0.31224
 Alpha  occ. eigenvalues --   -0.30974  -0.30892  -0.30868  -0.30542  -0.30427
 Alpha  occ. eigenvalues --   -0.30324  -0.30216  -0.30001  -0.29976  -0.29270
 Alpha  occ. eigenvalues --   -0.29247  -0.29184  -0.29137  -0.29062  -0.29024
 Alpha  occ. eigenvalues --   -0.28981  -0.28742  -0.28722  -0.28537  -0.27331
 Alpha  occ. eigenvalues --   -0.27195  -0.27188  -0.27085  -0.26672  -0.26604
 Alpha  occ. eigenvalues --   -0.25848  -0.25804  -0.25658  -0.25542  -0.24002
 Alpha  occ. eigenvalues --   -0.23982  -0.23318  -0.23251
 Alpha virt. eigenvalues --   -0.10271  -0.09608  -0.09536  -0.09485  -0.09239
 Alpha virt. eigenvalues --   -0.08746  -0.08639  -0.08404  -0.08083  -0.07958
 Alpha virt. eigenvalues --   -0.07213  -0.07188  -0.06648  -0.06584  -0.06353

 Mulliken charges:
               1
     1  Pd   0.476398
     2  Pd   0.562605
     3  C    0.148909
     4  N   -0.338870
     5  C    0.142958
     6  C   -0.031783
     7  C    0.042540
     8  C    0.010683
     9  C   -0.023529
    10  C   -0.068900
    11  C    0.201922
    12  O   -0.269156
    13  C    0.216933
    14  C   -0.074521
    15  C   -0.029362
    16  C    0.033360
    17  C    0.057245
    18  C   -0.040466
    19  C    0.143437
    20  N   -0.362395
    21  C    0.118266
    22  C   -0.030011
    23  C   -0.053921
    24  C    0.029456
    25  C    0.033791
    26  C   -0.048080
    27  C   -0.030505
    28  H    0.111483
    29  H    0.104188
    30  H    0.062437
    31  H    0.048682
    32  H    0.043294
    33  H    0.042752
    34  H    0.050606
    35  H    0.067253
    36  H    0.105689
    37  H    0.121580
    38  H    0.066231
    39  H    0.034664
    40  H    0.035597
    41  H    0.059169
    42  C    0.142412
    43  N   -0.337047
    44  C    0.148351
    45  C   -0.033151
    46  C    0.043782
    47  C    0.015413
    48  C   -0.026759
    49  C   -0.060477
    50  C    0.196247
    51  O   -0.268510
    52  C    0.213825
    53  C   -0.073643
    54  C   -0.027847
    55  C    0.031956
    56  C    0.058246
    57  C   -0.028987
    58  C    0.115400
    59  N   -0.365235
    60  C    0.142507
    61  C   -0.040388
    62  C   -0.053406
    63  C    0.031771
    64  C    0.035159
    65  C   -0.050214
    66  C   -0.031427
    67  H    0.102515
    68  H    0.112626
    69  H    0.059918
    70  H    0.048850
    71  H    0.043244
    72  H    0.042802
    73  H    0.051350
    74  H    0.066677
    75  H    0.123966
    76  H    0.106961
    77  H    0.068345
    78  H    0.034618
    79  H    0.035911
    80  H    0.062293
    81  C   -0.039139
    82  C    0.143006
    83  N   -0.332823
    84  C    0.143768
    85  C   -0.015519
    86  C    0.031256
    87  C   -0.131868
    88  C    0.001075
    89  C    0.005925
    90  C   -0.077835
    91  C   -0.028793
    92  C   -0.001662
    93  C   -0.082614
    94  C   -0.037587
    95  C    0.037517
    96  C    0.035513
    97  C   -0.015464
    98  C   -0.094087
    99  C    0.005433
   100  C   -0.017308
   101  C   -0.087974
   102  C    0.005093
   103  C   -0.015668
   104  C   -0.057484
   105  C    0.047284
   106  C   -0.017669
   107  C    0.003211
   108  C   -0.006661
   109  C    0.041313
   110  C   -0.027666
   111  C    0.097962
   112  N   -0.320338
   113  C    0.144156
   114  C   -0.042633
   115  C   -0.037355
   116  C    0.019243
   117  C    0.005258
   118  C   -0.070191
   119  C    0.195683
   120  O   -0.267664
   121  C    0.200520
   122  C   -0.074224
   123  C   -0.003270
   124  C    0.000716
   125  C    0.012109
   126  C   -0.026694
   127  C    0.001570
   128  C   -0.004767
   129  C    0.050749
   130  H    0.061085
   131  H    0.091542
   132  H    0.128217
   133  H    0.050207
   134  H    0.042804
   135  H    0.038056
   136  H    0.029123
   137  H    0.037836
   138  H    0.040273
   139  H    0.046887
   140  H    0.060267
   141  H    0.046457
   142  H    0.059799
   143  H    0.109085
   144  H    0.104141
   145  H    0.051340
   146  H    0.037105
   147  H    0.043001
   148  H    0.042444
   149  H    0.044767
   150  H    0.044827
   151  H    0.044311
   152  H    0.046747
   153  H    0.044749
   154  H    0.061741
   155  H    0.047227
   156  C   -0.039940
   157  C    0.143179
   158  N   -0.331325
   159  C    0.140056
   160  C   -0.015772
   161  C    0.031527
   162  C   -0.131739
   163  C    0.000709
   164  C    0.007114
   165  C   -0.077593
   166  C   -0.023987
   167  C   -0.004901
   168  C   -0.086762
   169  C   -0.031762
   170  C    0.036786
   171  C    0.033996
   172  C   -0.016550
   173  C   -0.088857
   174  C    0.003492
   175  C   -0.017064
   176  C   -0.089252
   177  C    0.005305
   178  C   -0.013021
   179  C   -0.059900
   180  C    0.046445
   181  C   -0.018242
   182  C    0.002690
   183  C   -0.006781
   184  C    0.041455
   185  C   -0.030215
   186  C    0.100516
   187  N   -0.320571
   188  C    0.140158
   189  C   -0.039407
   190  C   -0.039352
   191  C    0.019871
   192  C    0.000334
   193  C   -0.066943
   194  C    0.192580
   195  O   -0.266251
   196  C    0.202786
   197  C   -0.073736
   198  C   -0.003037
   199  C   -0.000442
   200  C    0.011165
   201  C   -0.026711
   202  C    0.001681
   203  C   -0.004778
   204  C    0.051511
   205  H    0.061185
   206  H    0.089654
   207  H    0.129161
   208  H    0.050497
   209  H    0.042539
   210  H    0.036900
   211  H    0.029371
   212  H    0.038548
   213  H    0.040165
   214  H    0.046224
   215  H    0.060193
   216  H    0.046233
   217  H    0.059084
   218  H    0.107190
   219  H    0.109414
   220  H    0.051561
   221  H    0.037490
   222  H    0.043536
   223  H    0.042187
   224  H    0.044470
   225  H    0.044872
   226  H    0.044260
   227  H    0.046821
   228  H    0.044824
   229  H    0.061788
   230  H    0.047240
 Sum of Mulliken charges =   4.00000

 Dipole moment (field-independent basis, Debye):
    X=             -8.3196    Y=              0.0612    Z=              0.9128  Tot=              8.3697
 Quadrupole moment (field-independent basis, Debye-Ang):
   XX=            423.0471   YY=           -607.4115   ZZ=           -754.3715
   XY=            -13.7929   XZ=             -5.8934   YZ=            -76.1615

 Normal termination of Gaussian 16 at Sat Jun  3 02:00:50 2023.
