 Gaussian 16, Revision C.01,
 Gaussian 16:  ES64L-G16RevC.01  3-Jul-2019

 ----------------------------------------------------------------------
 #P PBE1PBE/Def2SVP SP SCF=(YQC,MaxCycle=900) int=(Grid=Superfinegrid)
 EmpiricalDispersion=GD3BJ SCRF=(PCM,Solvent=DiMethylSulfoxide)
 ----------------------------------------------------------------------

 --------
 _s_4c1_c
 --------
 Symbolic Z-matrix:
 Charge =  4 Multiplicity = 1

                         Standard orientation:
 ---------------------------------------------------------------------
 Center     Atomic      Atomic             Coordinates (Angstroms)
 Number     Number       Type             X           Y           Z
 ---------------------------------------------------------------------
      1         46           0        6.125268    0.570430   -0.611559
      2         46           0       -6.126085   -0.570343   -0.611761
      3          6           0       -2.607752    3.226881    2.391703
      4          6           0       -3.406978    3.696609    1.613716
      5          6           0       -4.381835    4.316495    0.803846
      6          6           0       -4.471473    5.694376    0.759209
      7          6           0       -5.501720    6.328491    0.055580
      8          6           0       -6.470774    5.603270   -0.591264
      9          6           0       -6.424052    4.197697   -0.570217
     10          6           0       -7.408094    3.382876   -1.175010
     11          6           0       -7.300926    2.023150   -1.114100
     12          7           0       -6.246199    1.413125   -0.518160
     13          6           0       -5.313477    2.139809    0.067158
     14          6           0       -5.355047    3.541204    0.105508
     15          1           0       -3.746846    6.286675    1.295785
     16          1           0       -5.542207    7.407378    0.043497
     17          1           0       -7.278834    6.096283   -1.108539
     18          1           0       -8.244648    3.844917   -1.674491
     19          1           0       -8.051214    1.366631   -1.546925
     20          1           0       -4.480934    1.615338    0.531601
     21          6           0       -1.798926    2.714165    3.432339
     22          6           0       -2.417702    2.571550    4.688602
     23          6           0       -1.709866    2.147543    5.789362
     24          6           0       -0.363749    1.856640    5.620106
     25          7           0        0.550354    1.430302    6.548018
     26          6           0        1.765115    1.280304    5.945674
     27          6           0        2.975990    0.873187    6.487985
     28          6           0        4.068196    0.811079    5.654088
     29          6           0        3.986767    1.154260    4.292181
     30          6           0        2.762848    1.543542    3.749277
     31          6           0        1.647669    1.600714    4.569621
     32          6           0        0.270418    1.972396    4.359039
     33          6           0       -0.453372    2.407278    3.256557
     34          1           0       -3.463532    2.818751    4.784782
     35          1           0       -2.184514    2.058444    6.753520
     36          1           0        0.380941    1.365744    7.537990
     37          1           0        3.063461    0.618460    7.532807
     38          1           0        5.005734    0.465389    6.059373
     39          1           0        2.678757    1.842309    2.717650
     40          1           0        0.013459    2.521688    2.291854
     41          6           0        5.204544    1.100286    3.477927
     42          6           0        6.470761    1.332133    4.034484
     43          6           0        7.605379    1.223134    3.251424
     44          6           0        7.470567    0.910657    1.908909
     45          7           0        6.266963    0.729967    1.363493
     46          6           0        5.167246    0.813356    2.112463
     47          1           0        6.563356    1.612769    5.071393
     48          1           0        8.583535    1.387703    3.673134
     49          1           0        8.329680    0.800223    1.252091
     50          1           0        4.224805    0.633521    1.599221
     51          6           0       -2.567073    2.906848   -3.668384
     52          6           0       -3.071724    2.035983   -4.339156
     53          6           0       -3.767124    1.104794   -5.136753
     54          6           0       -3.558421    1.032746   -6.500206
     55          6           0       -4.350456    0.204583   -7.304690
     56          6           0       -5.378900   -0.531690   -6.770670
     57          6           0       -5.616600   -0.501339   -5.384562
     58          6           0       -6.671873   -1.202902   -4.759803
     59          6           0       -6.821807   -1.144579   -3.404056
     60          7           0       -5.952567   -0.472207   -2.607414
     61          6           0       -4.972283    0.219575   -3.158768
     62          6           0       -4.775802    0.285325   -4.546316
     63          1           0       -2.790874    1.641353   -6.953040
     64          1           0       -4.161681    0.172429   -8.367008
     65          1           0       -6.014153   -1.133452   -7.401417
     66          1           0       -7.358199   -1.776344   -5.362092
     67          1           0       -7.645251   -1.643577   -2.904548
     68          1           0       -4.293730    0.750490   -2.493920
     69          6           0       -2.012816    3.951182   -2.896726
     70          6           0       -2.844001    5.025281   -2.530613
     71          6           0       -2.360188    6.088378   -1.799914
     72          6           0       -1.024806    6.063221   -1.419970
     73          7           0       -0.306066    6.970215   -0.685720
     74          6           0        0.980806    6.530626   -0.560058
     75          6           0        2.062737    7.108733    0.091937
     76          6           0        3.269472    6.445729    0.053917
     77          6           0        3.423625    5.218607   -0.615684
     78          6           0        2.333383    4.634688   -1.256341
     79          6           0        1.113406    5.287246   -1.228048
     80          6           0       -0.179838    4.983962   -1.778455
     81          6           0       -0.672711    3.924747   -2.523200
     82          1           0       -3.876398    5.016668   -2.845473
     83          1           0       -2.999498    6.917228   -1.539725
     84          1           0       -0.655074    7.848953   -0.340238
     85          1           0        1.965832    8.049623    0.610627
     86          1           0        4.111252    6.871948    0.576398
     87          1           0        2.436585    3.714273   -1.807615
     88          1           0       -0.040514    3.101419   -2.813396
     89          6           0        4.734859    4.567623   -0.644321
     90          6           0        5.924859    5.305313   -0.678187
     91          6           0        7.143052    4.649956   -0.689721
     92          6           0        7.162318    3.265602   -0.681825
     93          7           0        6.030247    2.557164   -0.668955
     94          6           0        4.852337    3.176640   -0.642979
     95          1           0        5.891749    6.382606   -0.712541
     96          1           0        8.067324    5.204026   -0.711583
     97          1           0        8.094537    2.704998   -0.685641
     98          1           0        3.977149    2.531544   -0.610907
     99          6           0        2.567693   -2.910003   -3.665971
    100          6           0        3.072881   -2.040223   -4.337687
    101          6           0        3.769125   -1.110253   -5.136165
    102          6           0        3.562233   -1.041005   -6.499958
    103          6           0        4.355035   -0.214098   -7.305075
    104          6           0        5.382510    0.523518   -6.771111
    105          6           0        5.618583    0.495631   -5.384663
    106          6           0        6.673054    1.198508   -4.759983
    107          6           0        6.821759    1.142379   -3.403974
    108          7           0        5.951701    0.471136   -2.607166
    109          6           0        4.971947   -0.221482   -3.158321
    110          6           0        4.776965   -0.289529   -4.545938
    111          1           0        2.795477   -1.650672   -6.952677
    112          1           0        4.167687   -0.184159   -8.367704
    113          1           0        6.018345    1.124348   -7.402104
    114          1           0        7.359874    1.771097   -5.362480
    115          1           0        7.644578    1.642243   -2.904519
    116          1           0        4.292807   -0.751314   -2.493287
    117          6           0        2.013125   -3.953424   -2.893224
    118          6           0        2.844155   -5.027215   -2.525883
    119          6           0        2.360241   -6.089517   -1.794140
    120          6           0        1.024703   -6.063896   -1.414488
    121          7           0        0.305810   -6.970132   -0.679496
    122          6           0       -0.980980   -6.530338   -0.554560
    123          6           0       -2.063123   -7.107756    0.097727
    124          6           0       -3.269889   -6.444791    0.058826
    125          6           0       -3.423845   -5.218201   -0.611900
    126          6           0       -2.333397   -4.634879   -1.252714
    127          6           0       -1.113481   -5.287441   -1.223704
    128          6           0        0.179921   -4.984859   -1.774085
    129          6           0        0.672982   -3.926348   -2.519760
    130          1           0        3.876628   -5.019058   -2.840714
    131          1           0        2.999351   -6.918097   -1.533008
    132          1           0        0.654691   -7.848636   -0.333317
    133          1           0       -1.966450   -8.048224    0.617205
    134          1           0       -4.111849   -6.870612    0.581452
    135          1           0       -2.436368   -3.714963   -1.804703
    136          1           0        0.040956   -3.103323   -2.810877
    137          6           0       -4.735115   -4.567406   -0.641490
    138          6           0       -5.924998   -5.305183   -0.675133
    139          6           0       -7.143195   -4.650082   -0.687619
    140          6           0       -7.162738   -3.265747   -0.680771
    141          7           0       -6.030693   -2.557131   -0.668064
    142          6           0       -4.852748   -3.176383   -0.641266
    143          1           0       -5.891675   -6.382599   -0.708647
    144          1           0       -8.067487   -5.204299   -0.709251
    145          1           0       -8.094946   -2.705185   -0.685315
    146          1           0       -3.977723   -2.531114   -0.609436
    147          6           0        2.607596   -3.224906    2.394441
    148          6           0        3.407039   -3.695499    1.617263
    149          6           0        4.382140   -4.315791    0.807884
    150          6           0        4.472481   -5.693715    0.764872
    151          6           0        5.502823   -6.328183    0.061747
    152          6           0        6.471521   -5.603135   -0.585943
    153          6           0        6.424233   -4.197545   -0.566308
    154          6           0        7.407918   -3.382912   -1.171904
    155          6           0        7.300230   -2.023189   -1.112311
    156          7           0        6.245270   -1.412999   -0.517032
    157          6           0        5.312700   -2.139453    0.068953
    158          6           0        5.354874   -3.540895    0.108770
    159          1           0        3.748239   -6.285758    1.302199
    160          1           0        5.543898   -7.407039    0.050857
    161          1           0        7.279796   -6.096256   -1.102785
    162          1           0        8.244566   -3.845150   -1.670984
    163          1           0        8.050404   -1.366783   -1.545655
    164          1           0        4.479974   -1.614857    0.532809
    165          6           0        1.798486   -2.711445    3.434591
    166          6           0        2.417217   -2.567894    4.690885
    167          6           0        1.709170   -2.143088    5.791179
    168          6           0        0.363027   -1.852388    5.621511
    169          7           0       -0.551260   -1.425417    6.548928
    170          6           0       -1.765814   -1.275891    5.946371
    171          6           0       -2.976878   -0.868387    6.488193
    172          6           0       -4.069015   -0.806985    5.654177
    173          6           0       -3.987356   -1.151071    4.292450
    174          6           0       -2.763322   -1.540620    3.749883
    175          6           0       -1.648230   -1.597282    4.570531
    176          6           0       -0.270936   -1.969040    4.360525
    177          6           0        0.453036   -2.404707    3.258414
    178          1           0        3.463049   -2.814811    4.787371
    179          1           0        2.183703   -2.053198    6.755377
    180          1           0       -0.381974   -1.360308    7.539009
    181          1           0       -3.064504   -0.613002    7.532789
    182          1           0       -5.006537   -0.461193    6.058968
    183          1           0       -2.679116   -1.840130    2.718580
    184          1           0       -0.013626   -2.519851    2.293769
    185          6           0       -5.205121   -1.098050    3.478023
    186          6           0       -6.471186   -1.329999    4.034677
    187          6           0       -7.605793   -1.221825    3.251532
    188          6           0       -7.471163   -0.909887    1.908905
    189          7           0       -6.267528   -0.729012    1.363417
    190          6           0       -5.167807   -0.811795    2.112433
    191          1           0       -6.563745   -1.610161    5.071800
    192          1           0       -8.583991   -1.386559    3.673321
    193          1           0       -8.330228   -0.800023    1.251961
    194          1           0       -4.225309   -0.631947    1.599148
 ---------------------------------------------------------------------

 SCF Done:  E(RPBE1PBE) =  -5212.29371317     a.u. after   28 cycles
 SCF Done:  E(RPBE1PBE) =  -5212.29387188     A.U. after    9 cycles

 The electronic state is 1-A.
 Alpha  occ. eigenvalues --  -14.48467 -14.48467 -14.48456 -14.48455 -14.48359
 Alpha  occ. eigenvalues --  -14.48358 -14.48244 -14.48243 -14.45465 -14.45464
 Alpha  occ. eigenvalues --  -14.45269 -14.45264 -10.32273 -10.32271 -10.32158
 Alpha  occ. eigenvalues --  -10.32158 -10.31539 -10.31538 -10.31491 -10.31490
 Alpha  occ. eigenvalues --  -10.31366 -10.31366 -10.31237 -10.31237 -10.30834
 Alpha  occ. eigenvalues --  -10.30834 -10.30813 -10.30812 -10.29578 -10.29578
 Alpha  occ. eigenvalues --  -10.29556 -10.29555 -10.29449 -10.29448 -10.29382
 Alpha  occ. eigenvalues --  -10.29382 -10.29231 -10.29229 -10.29192 -10.29190
 Alpha  occ. eigenvalues --  -10.29016 -10.29016 -10.28958 -10.28958 -10.28927
 Alpha  occ. eigenvalues --  -10.28926 -10.28904 -10.28904 -10.28884 -10.28884
 Alpha  occ. eigenvalues --  -10.28821 -10.28821 -10.28394 -10.28393 -10.28338
 Alpha  occ. eigenvalues --  -10.28337 -10.27738 -10.27737 -10.27720 -10.27720
 Alpha  occ. eigenvalues --  -10.27672 -10.27672 -10.27664 -10.27664 -10.27197
 Alpha  occ. eigenvalues --  -10.27197 -10.27130 -10.27129 -10.27092 -10.27091
 Alpha  occ. eigenvalues --  -10.27075 -10.27075 -10.27020 -10.27019 -10.27002
 Alpha  occ. eigenvalues --  -10.27002 -10.26792 -10.26791 -10.26726 -10.26726
 Alpha  occ. eigenvalues --  -10.26471 -10.26470 -10.26428 -10.26427 -10.26159
 Alpha  occ. eigenvalues --  -10.26159 -10.26103 -10.26101 -10.26046 -10.26044
 Alpha  occ. eigenvalues --  -10.26038 -10.26036 -10.26029 -10.26029 -10.26017
 Alpha  occ. eigenvalues --  -10.26016 -10.25792 -10.25792 -10.25720 -10.25720
 Alpha  occ. eigenvalues --  -10.25692 -10.25689 -10.25683 -10.25682 -10.25673
 Alpha  occ. eigenvalues --  -10.25672 -10.25642 -10.25641 -10.25611 -10.25610
 Alpha  occ. eigenvalues --  -10.25497 -10.25495 -10.25448 -10.25448 -10.25445
 Alpha  occ. eigenvalues --  -10.25445 -10.25380 -10.25380 -10.25351 -10.25350
 Alpha  occ. eigenvalues --  -10.25273 -10.25272 -10.25256 -10.25255  -3.57100
 Alpha  occ. eigenvalues --   -3.57099  -2.25057  -2.25056  -2.24924  -2.24923
 Alpha  occ. eigenvalues --   -2.20792  -2.20791  -1.03820  -1.03820  -1.03248
 Alpha  occ. eigenvalues --   -1.03178  -1.03176  -1.03087  -1.03087  -1.03051
 Alpha  occ. eigenvalues --   -1.03048  -1.02845  -1.02816  -1.02815  -0.92570
 Alpha  occ. eigenvalues --   -0.92569  -0.92504  -0.92504  -0.90641  -0.90638
 Alpha  occ. eigenvalues --   -0.90553  -0.90468  -0.90053  -0.90050  -0.89925
 Alpha  occ. eigenvalues --   -0.89870  -0.86659  -0.86655  -0.86504  -0.86492
 Alpha  occ. eigenvalues --   -0.85814  -0.85813  -0.85787  -0.85787  -0.83653
 Alpha  occ. eigenvalues --   -0.83650  -0.83483  -0.83482  -0.83089  -0.83083
 Alpha  occ. eigenvalues --   -0.83016  -0.83011  -0.82701  -0.82651  -0.82646
 Alpha  occ. eigenvalues --   -0.82604  -0.81409  -0.81373  -0.81341  -0.81306
 Alpha  occ. eigenvalues --   -0.80150  -0.80112  -0.80036  -0.80031  -0.77965
 Alpha  occ. eigenvalues --   -0.77938  -0.77855  -0.77829  -0.76389  -0.76383
 Alpha  occ. eigenvalues --   -0.76321  -0.76310  -0.75340  -0.75335  -0.75223
 Alpha  occ. eigenvalues --   -0.75217  -0.71171  -0.71110  -0.71084  -0.71015
 Alpha  occ. eigenvalues --   -0.70976  -0.70872  -0.70811  -0.70663  -0.69585
 Alpha  occ. eigenvalues --   -0.69452  -0.69447  -0.69372  -0.69059  -0.68886
 Alpha  occ. eigenvalues --   -0.68756  -0.68756  -0.68450  -0.68407  -0.68288
 Alpha  occ. eigenvalues --   -0.68250  -0.66919  -0.66911  -0.66861  -0.66717
 Alpha  occ. eigenvalues --   -0.64890  -0.64850  -0.64797  -0.64694  -0.63881
 Alpha  occ. eigenvalues --   -0.63871  -0.63777  -0.63660  -0.61767  -0.61734
 Alpha  occ. eigenvalues --   -0.61700  -0.61488  -0.60567  -0.59971  -0.59903
 Alpha  occ. eigenvalues --   -0.59803  -0.59685  -0.59127  -0.59046  -0.58949
 Alpha  occ. eigenvalues --   -0.57956  -0.57925  -0.57857  -0.57817  -0.57809
 Alpha  occ. eigenvalues --   -0.57784  -0.57734  -0.57645  -0.56813  -0.56660
 Alpha  occ. eigenvalues --   -0.56544  -0.56455  -0.56092  -0.56069  -0.56008
 Alpha  occ. eigenvalues --   -0.55851  -0.55685  -0.55653  -0.55590  -0.55589
 Alpha  occ. eigenvalues --   -0.54891  -0.54887  -0.54724  -0.54720  -0.52741
 Alpha  occ. eigenvalues --   -0.52654  -0.52641  -0.52453  -0.51706  -0.51638
 Alpha  occ. eigenvalues --   -0.51508  -0.51294  -0.51185  -0.51133  -0.50869
 Alpha  occ. eigenvalues --   -0.50845  -0.50645  -0.50612  -0.50313  -0.50304
 Alpha  occ. eigenvalues --   -0.50214  -0.50108  -0.49861  -0.49848  -0.49782
 Alpha  occ. eigenvalues --   -0.49776  -0.49293  -0.49156  -0.49102  -0.48992
 Alpha  occ. eigenvalues --   -0.48986  -0.48858  -0.48821  -0.48777  -0.48678
 Alpha  occ. eigenvalues --   -0.48236  -0.48210  -0.48036  -0.48016  -0.47890
 Alpha  occ. eigenvalues --   -0.47861  -0.47558  -0.47552  -0.47431  -0.47425
 Alpha  occ. eigenvalues --   -0.47381  -0.47375  -0.47279  -0.47183  -0.47181
 Alpha  occ. eigenvalues --   -0.47120  -0.46881  -0.46810  -0.46807  -0.46730
 Alpha  occ. eigenvalues --   -0.46706  -0.46611  -0.46159  -0.46081  -0.46034
 Alpha  occ. eigenvalues --   -0.45501  -0.45459  -0.45403  -0.45347  -0.44531
 Alpha  occ. eigenvalues --   -0.44515  -0.44469  -0.44462  -0.43965  -0.43953
 Alpha  occ. eigenvalues --   -0.43780  -0.43699  -0.43226  -0.43201  -0.43034
 Alpha  occ. eigenvalues --   -0.43004  -0.42927  -0.42860  -0.42210  -0.42095
 Alpha  occ. eigenvalues --   -0.42043  -0.41987  -0.41894  -0.41835  -0.41463
 Alpha  occ. eigenvalues --   -0.41029  -0.40991  -0.40639  -0.40470  -0.40457
 Alpha  occ. eigenvalues --   -0.40410  -0.40372  -0.40309  -0.40280  -0.40117
 Alpha  occ. eigenvalues --   -0.39991  -0.39632  -0.39396  -0.39388  -0.39329
 Alpha  occ. eigenvalues --   -0.39287  -0.39279  -0.39045  -0.38543  -0.38139
 Alpha  occ. eigenvalues --   -0.38137  -0.38010  -0.37959  -0.37826  -0.37667
 Alpha  occ. eigenvalues --   -0.37589  -0.37478  -0.37333  -0.37172  -0.36715
 Alpha  occ. eigenvalues --   -0.36681  -0.36539  -0.36527  -0.36199  -0.36081
 Alpha  occ. eigenvalues --   -0.35933  -0.35827  -0.34458  -0.34294  -0.34034
 Alpha  occ. eigenvalues --   -0.33921  -0.33872  -0.33864  -0.33715  -0.33636
 Alpha  occ. eigenvalues --   -0.33588  -0.33470  -0.33232  -0.33022  -0.32598
 Alpha  occ. eigenvalues --   -0.32554  -0.32318  -0.32258  -0.31661  -0.31647
 Alpha  occ. eigenvalues --   -0.31437  -0.31342  -0.31275  -0.31237  -0.31142
 Alpha  occ. eigenvalues --   -0.30943  -0.30923  -0.30508  -0.30491  -0.30169
 Alpha  occ. eigenvalues --   -0.28747  -0.28719  -0.28151  -0.27947  -0.27931
 Alpha  occ. eigenvalues --   -0.27319  -0.26137  -0.26123  -0.26008  -0.25988
 Alpha  occ. eigenvalues --   -0.25123  -0.24848  -0.24814  -0.24381  -0.23863
 Alpha  occ. eigenvalues --   -0.23261  -0.23235  -0.22456
 Alpha virt. eigenvalues --   -0.09866  -0.09862  -0.09768  -0.09757  -0.07736
 Alpha virt. eigenvalues --   -0.07736  -0.07156  -0.07143  -0.06734  -0.06728
 Alpha virt. eigenvalues --   -0.06289  -0.06262  -0.06121  -0.06061  -0.06003

 Mulliken charges:
               1
     1  Pd   0.492113
     2  Pd   0.492129
     3  C    0.009188
     4  C   -0.082961
     5  C   -0.007845
     6  C    0.009827
     7  C    0.009092
     8  C    0.004883
     9  C    0.032876
    10  C   -0.016955
    11  C    0.143583
    12  N   -0.322955
    13  C    0.173344
    14  C   -0.011883
    15  H    0.038434
    16  H    0.056147
    17  H    0.039697
    18  H    0.052172
    19  H    0.107078
    20  H    0.075144
    21  C   -0.084559
    22  C   -0.006837
    23  C   -0.015544
    24  C    0.105454
    25  N   -0.126672
    26  C    0.121715
    27  C   -0.046409
    28  C   -0.047568
    29  C    0.045017
    30  C   -0.072861
    31  C    0.015646
    32  C    0.032574
    33  C   -0.038463
    34  H    0.028468
    35  H    0.021058
    36  H    0.163645
    37  H    0.021812
    38  H    0.031369
    39  H    0.016554
    40  H    0.014927
    41  C   -0.025224
    42  C    0.048291
    43  C   -0.031253
    44  C    0.144080
    45  N   -0.309548
    46  C    0.129041
    47  H    0.059464
    48  H    0.063989
    49  H    0.104150
    50  H    0.087132
    51  C    0.026636
    52  C   -0.098511
    53  C   -0.013067
    54  C    0.007041
    55  C    0.012787
    56  C    0.005833
    57  C    0.034713
    58  C   -0.021386
    59  C    0.148254
    60  N   -0.324364
    61  C    0.175603
    62  C   -0.017685
    63  H    0.039382
    64  H    0.054897
    65  H    0.040144
    66  H    0.052675
    67  H    0.087106
    68  H    0.090055
    69  C   -0.087613
    70  C   -0.001382
    71  C   -0.031066
    72  C    0.115352
    73  N   -0.121476
    74  C    0.122145
    75  C   -0.050361
    76  C   -0.040812
    77  C    0.033097
    78  C   -0.068438
    79  C    0.007727
    80  C    0.023630
    81  C   -0.037925
    82  H    0.029850
    83  H    0.020879
    84  H    0.165945
    85  H    0.023341
    86  H    0.033534
    87  H    0.021823
    88  H    0.018672
    89  C   -0.029222
    90  C    0.056166
    91  C   -0.029761
    92  C    0.130147
    93  N   -0.313396
    94  C    0.144102
    95  H    0.059074
    96  H    0.064867
    97  H    0.101784
    98  H    0.088748
    99  C    0.026611
   100  C   -0.098533
   101  C   -0.012997
   102  C    0.007006
   103  C    0.012783
   104  C    0.005887
   105  C    0.034695
   106  C   -0.021385
   107  C    0.148332
   108  N   -0.324359
   109  C    0.175623
   110  C   -0.017646
   111  H    0.039380
   112  H    0.054896
   113  H    0.040128
   114  H    0.052661
   115  H    0.087074
   116  H    0.090012
   117  C   -0.087627
   118  C   -0.001395
   119  C   -0.030969
   120  C    0.115243
   121  N   -0.121349
   122  C    0.122084
   123  C   -0.050374
   124  C   -0.040859
   125  C    0.033087
   126  C   -0.068390
   127  C    0.007748
   128  C    0.023591
   129  C   -0.037830
   130  H    0.029884
   131  H    0.020821
   132  H    0.165950
   133  H    0.023330
   134  H    0.033569
   135  H    0.021751
   136  H    0.018628
   137  C   -0.029227
   138  C    0.056110
   139  C   -0.029786
   140  C    0.130148
   141  N   -0.313411
   142  C    0.144135
   143  H    0.059123
   144  H    0.064912
   145  H    0.101775
   146  H    0.088725
   147  C    0.009006
   148  C   -0.082819
   149  C   -0.007849
   150  C    0.009807
   151  C    0.009154
   152  C    0.004864
   153  C    0.032864
   154  C   -0.016922
   155  C    0.143550
   156  N   -0.322982
   157  C    0.173437
   158  C   -0.011928
   159  H    0.038431
   160  H    0.056133
   161  H    0.039702
   162  H    0.052150
   163  H    0.107119
   164  H    0.075138
   165  C   -0.084537
   166  C   -0.006803
   167  C   -0.015548
   168  C    0.105416
   169  N   -0.126615
   170  C    0.121611
   171  C   -0.046329
   172  C   -0.047432
   173  C    0.044916
   174  C   -0.072716
   175  C    0.015548
   176  C    0.032511
   177  C   -0.038402
   178  H    0.028454
   179  H    0.021092
   180  H    0.163730
   181  H    0.021776
   182  H    0.031273
   183  H    0.016502
   184  H    0.014892
   185  C   -0.025248
   186  C    0.048244
   187  C   -0.031309
   188  C    0.144123
   189  N   -0.309587
   190  C    0.129035
   191  H    0.059513
   192  H    0.064039
   193  H    0.104147
   194  H    0.087182
 Sum of Mulliken charges =   4.00000

 Dipole moment (field-independent basis, Debye):
    X=              0.0047    Y=             -0.0014    Z=              0.6888  Tot=              0.6888
 Quadrupole moment (field-independent basis, Debye-Ang):
   XX=             23.1324   YY=           -422.2933   ZZ=           -422.0791
   XY=             41.1132   XZ=             -0.0211   YZ=              0.0143

 Normal termination of Gaussian 16 at Fri Feb 26 13:08:18 2021.
