 Gaussian 16, Revision C.01,
 Gaussian 16:  ES64L-G16RevC.01  3-Jul-2019

 ----------------------------------------------------------------------
 #P PBE1PBE/Def2SVP SP SCF=(YQC,MaxCycle=900) int=(Grid=Superfinegrid)
 EmpiricalDispersion=GD3BJ SCRF=(PCM,Solvent=DiMethylSulfoxide)
 ----------------------------------------------------------------------

 --------
 _s_5a1_a
 --------
 Symbolic Z-matrix:
 Charge =  4 Multiplicity = 1

                         Standard orientation:
 ---------------------------------------------------------------------
 Center     Atomic      Atomic             Coordinates (Angstroms)
 Number     Number       Type             X           Y           Z
 ---------------------------------------------------------------------
      1         46           0        5.204496   -0.003450   -0.010936
      2         46           0       -5.621966   -0.002034   -0.009941
      3          6           0        1.866258   -4.899858   -4.721148
      4          6           0        3.053567   -4.787907   -4.517414
      5          6           0        4.386223   -4.518821   -4.148483
      6          6           0        5.462547   -5.254868   -4.606133
      7          6           0        6.764675   -4.957491   -4.183334
      8          6           0        7.011908   -3.937138   -3.300495
      9          6           0        5.941123   -3.157074   -2.813361
     10          6           0        6.118677   -2.102458   -1.893885
     11          7           0        5.116898   -1.376944   -1.446180
     12          6           0        3.854820   -1.620811   -1.884094
     13          6           0        3.574625   -2.623122   -2.764646
     14          6           0        4.616247   -3.439230   -3.247997
     15          1           0        5.298008   -6.071460   -5.292796
     16          1           0        7.581915   -5.553057   -4.560646
     17          1           0        8.017624   -3.724353   -2.974655
     18          1           0        7.109992   -1.861915   -1.521473
     19          1           0        3.070612   -0.968487   -1.501982
     20          1           0        2.567388   -2.803435   -3.103236
     21          6           0        0.474349   -4.969304   -4.937480
     22          6           0       -0.042563   -5.538032   -6.125517
     23          6           0       -1.388994   -5.551833   -6.346358
     24          6           0       -2.287330   -5.009889   -5.400948
     25          6           0       -3.681348   -5.000737   -5.611776
     26          6           0       -4.528671   -4.490723   -4.671591
     27          6           0       -4.029589   -3.951227   -3.461932
     28          6           0       -2.671903   -3.927572   -3.242376
     29          6           0       -1.775353   -4.455014   -4.196516
     30          6           0       -0.383421   -4.445182   -3.990592
     31          1           0        0.641281   -5.951859   -6.851524
     32          1           0       -1.787574   -5.980548   -7.254502
     33          1           0       -4.069875   -5.409216   -6.533085
     34          1           0       -5.590880   -4.477541   -4.861378
     35          1           0       -2.269914   -3.543854   -2.317349
     36          1           0        0.012150   -4.029117   -3.076538
     37          6           0       -4.995056   -3.455920   -2.469037
     38          6           0       -6.183986   -4.157279   -2.243116
     39          6           0       -7.118026   -3.657543   -1.352733
     40          6           0       -6.852689   -2.464482   -0.705652
     41          7           0       -5.704811   -1.802685   -0.896148
     42          6           0       -4.793169   -2.279542   -1.746111
     43          1           0       -6.365687   -5.089234   -2.754932
     44          1           0       -8.041923   -4.181521   -1.168740
     45          1           0       -7.573245   -2.026792   -0.017364
     46          1           0       -3.890901   -1.687426   -1.864170
     47          6           0        1.860036   -4.774826    4.825900
     48          6           0        3.047483   -4.570689    4.715975
     49          6           0        4.380373   -4.199120    4.452183
     50          6           0        5.456757   -4.672867    5.177936
     51          6           0        6.759366   -4.247092    4.886993
     52          6           0        7.007156   -3.345767    3.882965
     53          6           0        5.936400   -2.841766    3.113865
     54          6           0        6.114799   -1.904646    2.075070
     55          7           0        5.113222   -1.441940    1.358889
     56          6           0        3.849997   -1.879551    1.597868
     57          6           0        3.569161   -2.777018    2.584885
     58          6           0        4.610836   -3.278382    3.389818
     59          1           0        5.291870   -5.374565    5.981549
     60          1           0        7.576655   -4.637276    5.474185
     61          1           0        8.013333   -3.018161    3.675057
     62          1           0        7.106677   -1.530781    1.839188
     63          1           0        3.065636   -1.482942    0.954294
     64          1           0        2.561125   -3.115608    2.761175
     65          6           0        0.467734   -4.988595    4.894760
     66          6           0       -0.052022   -6.181133    5.451395
     67          6           0       -1.399281   -6.397119    5.466518
     68          6           0       -2.295629   -5.442322    4.938101
     69          6           0       -3.690597   -5.647077    4.931980
     70          6           0       -4.535882   -4.697597    4.435750
     71          6           0       -4.033536   -3.484487    3.907338
     72          6           0       -2.674996   -3.270526    3.880646
     73          6           0       -1.780678   -4.234004    4.394627
     74          6           0       -0.388072   -4.033082    4.382928
     75          1           0        0.630240   -6.914071    5.855354
     76          1           0       -1.800023   -7.308492    5.886379
     77          1           0       -4.081586   -6.571108    5.331853
     78          1           0       -5.598922   -4.882467    4.424975
     79          1           0       -2.270599   -2.343109    3.505556
     80          1           0        0.009726   -3.115909    3.975852
     81          6           0       -4.996156   -2.482030    3.425916
     82          6           0       -6.181006   -2.256344    4.134061
     83          6           0       -7.111718   -1.355671    3.646834
     84          6           0       -6.847904   -0.699177    2.458540
     85          7           0       -5.704401   -0.890521    1.789724
     86          6           0       -4.795175   -1.749482    2.255369
     87          1           0       -6.361825   -2.776463    5.061659
     88          1           0       -8.032151   -1.171003    4.176687
     89          1           0       -7.565882   -0.002513    2.030592
     90          1           0       -3.895797   -1.866793    1.658818
     91          6           0        1.864272    4.865367    4.730369
     92          6           0        3.051482    4.753458    4.526316
     93          6           0        4.384190    4.485781    4.156311
     94          6           0        5.461162    5.215497    4.622660
     95          6           0        6.763406    4.920127    4.198860
     96          6           0        7.010113    3.907705    3.306612
     97          6           0        5.938692    3.134442    2.810335
     98          6           0        6.115935    2.087692    1.881888
     99          7           0        5.113698    1.368060    1.425901
    100          6           0        3.851042    1.610876    1.863074
    101          6           0        3.571305    2.605683    2.752262
    102          6           0        4.613632    3.414910    3.245329
    103          1           0        5.296969    6.025533    5.317166
    104          1           0        7.581160    5.510390    4.583192
    105          1           0        8.015970    3.696292    2.980340
    106          1           0        7.107574    1.848292    1.509350
    107          1           0        3.066325    0.963845    1.473115
    108          1           0        2.563649    2.784953    3.090390
    109          6           0        0.472199    4.935292    4.945376
    110          6           0       -0.045923    5.498365    6.135566
    111          6           0       -1.392811    5.513318    6.353965
    112          6           0       -2.290306    4.978225    5.404039
    113          6           0       -3.684842    4.970946    5.611761
    114          6           0       -4.531232    4.467543    4.667196
    115          6           0       -4.030579    3.932913    3.456013
    116          6           0       -2.672496    3.907540    3.239222
    117          6           0       -1.777033    4.428442    4.197768
    118          6           0       -0.384744    4.417328    3.994313
    119          1           0        0.637324    5.907155    6.864983
    120          1           0       -1.792289    5.937966    7.263634
    121          1           0       -4.074461    5.375543    6.534343
    122          1           0       -5.593849    4.455788    4.854515
    123          1           0       -2.269409    3.527690    2.313133
    124          1           0        0.011833    4.005417    3.078782
    125          6           0       -4.994659    3.443895    2.458676
    126          6           0       -6.181402    4.148471    2.232043
    127          6           0       -7.113711    3.654332    1.336592
    128          6           0       -6.848884    2.463242    0.685672
    129          7           0       -5.703170    1.798113    0.877467
    130          6           0       -4.793034    2.269879    1.731841
    131          1           0       -6.362795    5.078604    2.747249
    132          1           0       -8.035806    4.181128    1.151688
    133          1           0       -7.567957    2.029713   -0.006833
    134          1           0       -3.892380    1.675454    1.850227
    135          6           0        1.866166    4.815247   -4.804146
    136          6           0        3.053700    4.609696   -4.697309
    137          6           0        4.386306    4.234399   -4.437005
    138          6           0        5.464050    4.718503   -5.153972
    139          6           0        6.766166    4.289151   -4.866044
    140          6           0        7.012185    3.374627   -3.873637
    141          6           0        5.940048    2.859759   -3.113670
    142          6           0        6.116883    1.910055   -2.085907
    143          7           0        5.113973    1.437405   -1.378178
    144          6           0        3.850785    1.875706   -1.616010
    145          6           0        3.571486    2.785361   -2.592185
    146          6           0        4.614885    3.298905   -3.387191
    147          1           0        5.300602    5.431185   -5.948035
    148          1           0        7.584549    4.687587   -5.446110
    149          1           0        8.018135    3.044999   -3.667677
    150          1           0        7.108674    1.534765   -1.852032
    151          1           0        3.064810    1.469365   -0.980534
    152          1           0        2.563548    3.124727   -2.767268
    153          6           0        0.473723    5.028903   -4.869088
    154          6           0       -0.047879    6.227558   -5.410663
    155          6           0       -1.395412    6.442181   -5.421949
    156          6           0       -2.290246    5.479950   -4.904535
    157          6           0       -3.685542    5.682665   -4.895601
    158          6           0       -4.529237    4.725884   -4.410843
    159          6           0       -4.024894    3.507382   -3.896937
    160          6           0       -2.666134    3.295164   -3.872856
    161          6           0       -1.773362    4.265809   -4.375889
    162          6           0       -0.380587    4.066402   -4.367886
    163          1           0        0.633263    6.966165   -5.806151
    164          1           0       -1.797510    7.358120   -5.830407
    165          1           0       -4.077852    6.610804   -5.284191
    166          1           0       -5.592654    4.908635   -4.398004
    167          1           0       -2.260415    2.363916   -3.508724
    168          1           0        0.018543    3.144799   -3.972383
    169          6           0       -4.986106    2.497624   -3.427858
    170          6           0       -6.168575    2.276167   -4.141268
    171          6           0       -7.098020    1.368082   -3.665645
    172          6           0       -6.836005    0.701122   -2.482692
    173          7           0       -5.695022    0.889239   -1.808631
    174          6           0       -4.786386    1.754462   -2.263874
    175          1           0       -6.348443    2.805248   -5.063960
    176          1           0       -8.016466    1.185949   -4.199774
    177          1           0       -7.553394   -0.001518   -2.063578
    178          1           0       -3.888578    1.868052   -1.664173
 ---------------------------------------------------------------------

 SCF Done:  E(RPBE1PBE) =  -4686.81616987     a.u. after   25 cycles
 SCF Done:  E(RPBE1PBE) =  -4686.81620442     A.U. after    8 cycles

 The electronic state is 1-A.
 Alpha  occ. eigenvalues --  -14.48857 -14.48854 -14.48851 -14.48846 -14.48611
 Alpha  occ. eigenvalues --  -14.48604 -14.48601 -14.48596 -10.32536 -10.32535
 Alpha  occ. eigenvalues --  -10.32533 -10.32532 -10.32075 -10.32074 -10.32071
 Alpha  occ. eigenvalues --  -10.32069 -10.31794 -10.31791 -10.31790 -10.31787
 Alpha  occ. eigenvalues --  -10.31211 -10.31210 -10.31209 -10.31206 -10.29403
 Alpha  occ. eigenvalues --  -10.29402 -10.29401 -10.29401 -10.29334 -10.29334
 Alpha  occ. eigenvalues --  -10.29333 -10.29332 -10.29328 -10.29327 -10.29324
 Alpha  occ. eigenvalues --  -10.29323 -10.28920 -10.28920 -10.28920 -10.28919
 Alpha  occ. eigenvalues --  -10.28852 -10.28849 -10.28849 -10.28849 -10.28188
 Alpha  occ. eigenvalues --  -10.28188 -10.28186 -10.28186 -10.28016 -10.28012
 Alpha  occ. eigenvalues --  -10.28012 -10.28010 -10.27808 -10.27807 -10.27807
 Alpha  occ. eigenvalues --  -10.27805 -10.27568 -10.27567 -10.27567 -10.27566
 Alpha  occ. eigenvalues --  -10.27493 -10.27493 -10.27492 -10.27491 -10.27374
 Alpha  occ. eigenvalues --  -10.27373 -10.27373 -10.27372 -10.26830 -10.26830
 Alpha  occ. eigenvalues --  -10.26828 -10.26828 -10.26810 -10.26810 -10.26810
 Alpha  occ. eigenvalues --  -10.26810 -10.26657 -10.26656 -10.26656 -10.26655
 Alpha  occ. eigenvalues --  -10.26415 -10.26415 -10.26414 -10.26413 -10.26345
 Alpha  occ. eigenvalues --  -10.26344 -10.26344 -10.26342 -10.26268 -10.26267
 Alpha  occ. eigenvalues --  -10.26265 -10.26265 -10.26000 -10.26000 -10.26000
 Alpha  occ. eigenvalues --  -10.25998 -10.25928 -10.25928 -10.25927 -10.25926
 Alpha  occ. eigenvalues --  -10.25904 -10.25903 -10.25902 -10.25902 -10.25693
 Alpha  occ. eigenvalues --  -10.25693 -10.25692 -10.25691 -10.25691 -10.25690
 Alpha  occ. eigenvalues --  -10.25690 -10.25689  -3.57456  -3.57422  -2.25350
 Alpha  occ. eigenvalues --   -2.25334  -2.25310  -2.25300  -2.21218  -2.21088
 Alpha  occ. eigenvalues --   -1.04144  -1.04021  -1.03407  -1.03396  -1.03289
 Alpha  occ. eigenvalues --   -1.03274  -1.03251  -1.03197  -0.93005  -0.92975
 Alpha  occ. eigenvalues --   -0.92975  -0.92974  -0.92849  -0.92764  -0.92761
 Alpha  occ. eigenvalues --   -0.92760  -0.89643  -0.89537  -0.89536  -0.89536
 Alpha  occ. eigenvalues --   -0.86722  -0.86568  -0.86555  -0.86554  -0.85582
 Alpha  occ. eigenvalues --   -0.85523  -0.85521  -0.85475  -0.84173  -0.84063
 Alpha  occ. eigenvalues --   -0.84060  -0.84058  -0.83746  -0.83585  -0.83565
 Alpha  occ. eigenvalues --   -0.83563  -0.81889  -0.81835  -0.81834  -0.81788
 Alpha  occ. eigenvalues --   -0.81421  -0.81355  -0.81353  -0.81261  -0.79948
 Alpha  occ. eigenvalues --   -0.79889  -0.79888  -0.79824  -0.77179  -0.77137
 Alpha  occ. eigenvalues --   -0.77137  -0.77102  -0.75513  -0.75500  -0.75499
 Alpha  occ. eigenvalues --   -0.75481  -0.71736  -0.71389  -0.71386  -0.71253
 Alpha  occ. eigenvalues --   -0.71005  -0.70932  -0.70928  -0.70838  -0.69580
 Alpha  occ. eigenvalues --   -0.69435  -0.69292  -0.69290  -0.69263  -0.68958
 Alpha  occ. eigenvalues --   -0.68955  -0.68940  -0.68267  -0.68215  -0.68181
 Alpha  occ. eigenvalues --   -0.68180  -0.66040  -0.66016  -0.66014  -0.65984
 Alpha  occ. eigenvalues --   -0.65049  -0.64932  -0.64853  -0.64851  -0.63840
 Alpha  occ. eigenvalues --   -0.63837  -0.63837  -0.63836  -0.60822  -0.60458
 Alpha  occ. eigenvalues --   -0.60291  -0.60158  -0.60155  -0.59534  -0.59222
 Alpha  occ. eigenvalues --   -0.59221  -0.58891  -0.58142  -0.58139  -0.58098
 Alpha  occ. eigenvalues --   -0.57381  -0.57352  -0.57352  -0.57294  -0.57101
 Alpha  occ. eigenvalues --   -0.56785  -0.56200  -0.56198  -0.55837  -0.55829
 Alpha  occ. eigenvalues --   -0.55815  -0.55813  -0.55332  -0.55291  -0.55283
 Alpha  occ. eigenvalues --   -0.55282  -0.53947  -0.53871  -0.53869  -0.53780
 Alpha  occ. eigenvalues --   -0.52688  -0.52517  -0.51849  -0.51847  -0.51681
 Alpha  occ. eigenvalues --   -0.51594  -0.51499  -0.51364  -0.51362  -0.51344
 Alpha  occ. eigenvalues --   -0.50877  -0.50852  -0.50322  -0.50321  -0.50074
 Alpha  occ. eigenvalues --   -0.49783  -0.49597  -0.49391  -0.49299  -0.49295
 Alpha  occ. eigenvalues --   -0.49247  -0.49032  -0.49018  -0.48939  -0.48868
 Alpha  occ. eigenvalues --   -0.48788  -0.48779  -0.48593  -0.48568  -0.48563
 Alpha  occ. eigenvalues --   -0.48124  -0.48120  -0.48097  -0.48089  -0.47983
 Alpha  occ. eigenvalues --   -0.47955  -0.47323  -0.47256  -0.47097  -0.47094
 Alpha  occ. eigenvalues --   -0.46953  -0.46707  -0.46540  -0.46534  -0.46227
 Alpha  occ. eigenvalues --   -0.45570  -0.45407  -0.45405  -0.45388  -0.45385
 Alpha  occ. eigenvalues --   -0.45353  -0.45303  -0.45300  -0.45258  -0.44648
 Alpha  occ. eigenvalues --   -0.44642  -0.44499  -0.44259  -0.44257  -0.44170
 Alpha  occ. eigenvalues --   -0.43984  -0.43859  -0.43749  -0.43147  -0.43134
 Alpha  occ. eigenvalues --   -0.43050  -0.43034  -0.42768  -0.42760  -0.41951
 Alpha  occ. eigenvalues --   -0.41916  -0.41915  -0.41665  -0.41512  -0.41305
 Alpha  occ. eigenvalues --   -0.41305  -0.40831  -0.40670  -0.40317  -0.40200
 Alpha  occ. eigenvalues --   -0.39899  -0.39712  -0.39709  -0.39510  -0.39443
 Alpha  occ. eigenvalues --   -0.39440  -0.39410  -0.39244  -0.38662  -0.38303
 Alpha  occ. eigenvalues --   -0.38303  -0.38294  -0.38292  -0.37425  -0.37424
 Alpha  occ. eigenvalues --   -0.36945  -0.36936  -0.36883  -0.36882  -0.36715
 Alpha  occ. eigenvalues --   -0.36500  -0.36488  -0.36325  -0.36289  -0.36065
 Alpha  occ. eigenvalues --   -0.36062  -0.35692  -0.35679  -0.34953  -0.34239
 Alpha  occ. eigenvalues --   -0.34234  -0.34100  -0.33873  -0.33871  -0.33593
 Alpha  occ. eigenvalues --   -0.32904  -0.32882  -0.32674  -0.32667  -0.32487
 Alpha  occ. eigenvalues --   -0.32320  -0.32069  -0.31930  -0.31893  -0.31891
 Alpha  occ. eigenvalues --   -0.31627  -0.31319  -0.31304  -0.31300  -0.31231
 Alpha  occ. eigenvalues --   -0.30952  -0.30945  -0.30787  -0.30673  -0.29113
 Alpha  occ. eigenvalues --   -0.29066  -0.28481  -0.28420  -0.28407  -0.28248
 Alpha  occ. eigenvalues --   -0.26072  -0.26053  -0.26050  -0.26016  -0.24287
 Alpha  occ. eigenvalues --   -0.24257  -0.24251  -0.24202
 Alpha virt. eigenvalues --   -0.10154  -0.10105  -0.10087  -0.09668  -0.08717
 Alpha virt. eigenvalues --   -0.08286  -0.08273  -0.08022  -0.07590  -0.07449
 Alpha virt. eigenvalues --   -0.07432  -0.07146  -0.07052  -0.06724  -0.06712

 Mulliken charges:
               1
     1  Pd   0.518376
     2  Pd   0.480921
     3  C    0.004122
     4  C   -0.057829
     5  C   -0.014256
     6  C    0.020777
     7  C   -0.002676
     8  C    0.020726
     9  C   -0.064295
    10  C    0.186132
    11  N   -0.317885
    12  C    0.142959
    13  C   -0.007540
    14  C    0.059452
    15  H    0.043512
    16  H    0.054603
    17  H    0.043798
    18  H    0.087003
    19  H    0.089019
    20  H    0.043335
    21  C   -0.061942
    22  C    0.025821
    23  C   -0.010570
    24  C    0.006166
    25  C   -0.014219
    26  C   -0.013521
    27  C    0.028594
    28  C   -0.031736
    29  C    0.031580
    30  C   -0.028176
    31  H    0.032468
    32  H    0.029684
    33  H    0.028218
    34  H    0.035917
    35  H    0.023078
    36  H    0.025777
    37  C   -0.044300
    38  C    0.065554
    39  C   -0.027204
    40  C    0.134723
    41  N   -0.323957
    42  C    0.167811
    43  H    0.064921
    44  H    0.067448
    45  H    0.115895
    46  H    0.091138
    47  C    0.004232
    48  C   -0.057980
    49  C   -0.014151
    50  C    0.020753
    51  C   -0.002684
    52  C    0.020645
    53  C   -0.064134
    54  C    0.185907
    55  N   -0.318571
    56  C    0.143006
    57  C   -0.007479
    58  C    0.059545
    59  H    0.043500
    60  H    0.054618
    61  H    0.043822
    62  H    0.087003
    63  H    0.089753
    64  H    0.043225
    65  C   -0.061769
    66  C    0.025849
    67  C   -0.010596
    68  C    0.006234
    69  C   -0.014209
    70  C   -0.013358
    71  C    0.028412
    72  C   -0.031773
    73  C    0.031763
    74  C   -0.028541
    75  H    0.032437
    76  H    0.029706
    77  H    0.028223
    78  H    0.035858
    79  H    0.023062
    80  H    0.025877
    81  C   -0.044264
    82  C    0.065755
    83  C   -0.027429
    84  C    0.135040
    85  N   -0.323389
    86  C    0.167781
    87  H    0.064863
    88  H    0.067477
    89  H    0.115087
    90  H    0.091040
    91  C    0.004067
    92  C   -0.057807
    93  C   -0.014237
    94  C    0.020766
    95  C   -0.002642
    96  C    0.020653
    97  C   -0.064081
    98  C    0.185870
    99  N   -0.318291
   100  C    0.143116
   101  C   -0.007634
   102  C    0.059582
   103  H    0.043531
   104  H    0.054592
   105  H    0.043811
   106  H    0.087112
   107  H    0.089272
   108  H    0.043284
   109  C   -0.061790
   110  C    0.025814
   111  C   -0.010608
   112  C    0.006226
   113  C   -0.014204
   114  C   -0.013350
   115  C    0.028462
   116  C   -0.031784
   117  C    0.031722
   118  C   -0.028428
   119  H    0.032474
   120  H    0.029687
   121  H    0.028228
   122  H    0.035871
   123  H    0.023063
   124  H    0.025847
   125  C   -0.044201
   126  C    0.065691
   127  C   -0.027077
   128  C    0.134431
   129  N   -0.324002
   130  C    0.167673
   131  H    0.064872
   132  H    0.067452
   133  H    0.116135
   134  H    0.091126
   135  C    0.004187
   136  C   -0.057970
   137  C   -0.014097
   138  C    0.020799
   139  C   -0.002666
   140  C    0.020638
   141  C   -0.064382
   142  C    0.186099
   143  N   -0.318371
   144  C    0.143132
   145  C   -0.007456
   146  C    0.059468
   147  H    0.043443
   148  H    0.054605
   149  H    0.043827
   150  H    0.086977
   151  H    0.089639
   152  H    0.042970
   153  C   -0.061568
   154  C    0.025848
   155  C   -0.010594
   156  C    0.006174
   157  C   -0.014091
   158  C   -0.013181
   159  C    0.027975
   160  C   -0.031558
   161  C    0.031839
   162  C   -0.028817
   163  H    0.032447
   164  H    0.029708
   165  H    0.028161
   166  H    0.035865
   167  H    0.023063
   168  H    0.025909
   169  C   -0.044633
   170  C    0.066083
   171  C   -0.027465
   172  C    0.135138
   173  N   -0.323319
   174  C    0.167933
   175  H    0.064797
   176  H    0.067450
   177  H    0.115067
   178  H    0.091062
 Sum of Mulliken charges =   4.00000

 Dipole moment (field-independent basis, Debye):
    X=             -8.5710    Y=             -0.0015    Z=             -0.0564  Tot=              8.5711
 Quadrupole moment (field-independent basis, Debye-Ang):
   XX=             93.2112   YY=           -447.1339   ZZ=           -452.4037
   XY=             -0.0862   XZ=              0.2933   YZ=             -0.0136

 Normal termination of Gaussian 16 at Fri Feb 26 15:04:47 2021.
