 Gaussian 16, Revision C.01,
 Gaussian 16:  ES64L-G16RevC.01  3-Jul-2019

 ----------------------------------------------------------------------
 #P PBE1PBE/Def2SVP SP SCF=(YQC,MaxCycle=900) int=(Grid=Superfinegrid)
 EmpiricalDispersion=GD3BJ SCRF=(PCM,Solvent=DiMethylSulfoxide)
 ----------------------------------------------------------------------

 --------
 _s_3d1_b
 --------
 Symbolic Z-matrix:
 Charge =  4 Multiplicity = 1

                         Standard orientation:
 ---------------------------------------------------------------------
 Center     Atomic      Atomic             Coordinates (Angstroms)
 Number     Number       Type             X           Y           Z
 ---------------------------------------------------------------------
      1         46           0       -4.959862   -0.244470    0.618454
      2         46           0        4.599251    0.225603   -0.602292
      3          6           0       -0.031082    2.004808   -4.509680
      4          6           0        1.131120    2.004172   -4.178649
      5          6           0        2.486034    1.979095   -3.791842
      6          6           0        3.482182    2.609648   -4.549979
      7          6           0        4.796131    2.541641   -4.121758
      8          6           0        5.096838    1.848426   -2.959170
      9          7           0        4.145432    1.244205   -2.243247
     10          6           0        2.871812    1.301564   -2.632740
     11          1           0        3.218611    3.139516   -5.452136
     12          1           0        5.582722    3.019754   -4.682786
     13          1           0        6.113459    1.774524   -2.582621
     14          1           0        2.142345    0.786553   -2.008012
     15          6           0       -1.391723    1.942874   -4.879591
     16          6           0       -1.756555    1.956004   -6.227900
     17          6           0       -3.090297    1.837337   -6.572232
     18          6           0       -4.061434    1.705375   -5.594136
     19          6           0       -3.711335    1.704329   -4.241689
     20          6           0       -2.370014    1.828739   -3.891752
     21          1           0       -0.999925    2.049439   -6.991375
     22          1           0       -3.377800    1.840325   -7.612532
     23          1           0       -5.091062    1.577369   -5.889265
     24          1           0       -2.069789    1.873008   -2.857060
     25          6           0       -4.749454    1.542259   -3.211555
     26          6           0       -6.041913    2.051003   -3.378666
     27          6           0       -7.000723    1.826125   -2.404968
     28          6           0       -6.654298    1.114752   -1.268805
     29          7           0       -5.413789    0.654462   -1.092266
     30          6           0       -4.486980    0.850087   -2.030310
     31          1           0       -6.289667    2.626100   -4.256928
     32          1           0       -8.004042    2.201831   -2.524317
     33          1           0       -7.373908    0.904451   -0.480756
     34          1           0       -3.508891    0.416561   -1.834299
     35          6           0       -1.076540    4.462272    2.029661
     36          6           0       -2.176077    3.965526    2.096205
     37          6           0       -3.445872    3.356334    2.143991
     38          6           0       -4.528202    3.938261    2.818045
     39          6           0       -5.745738    3.281066    2.824418
     40          6           0       -5.867289    2.066888    2.165376
     41          7           0       -4.835736    1.519806    1.518819
     42          6           0       -3.653411    2.134627    1.500288
     43          1           0       -4.403893    4.882838    3.324344
     44          1           0       -6.595306    3.702920    3.336669
     45          1           0       -6.801716    1.513510    2.150982
     46          1           0       -2.848900    1.644066    0.951967
     47          6           0        0.206377    5.035409    1.897209
     48          6           0        0.357599    6.424049    1.886411
     49          6           0        1.614456    6.969401    1.701268
     50          6           0        2.718022    6.151316    1.528995
     51          6           0        2.582653    4.760817    1.552197
     52          6           0        1.318949    4.208547    1.739920
     53          1           0       -0.503390    7.061871    2.013001
     54          1           0        1.736619    8.041539    1.684208
     55          1           0        3.682262    6.600614    1.350583
     56          1           0        1.184978    3.140268    1.800699
     57          6           0        3.763999    3.907427    1.347708
     58          6           0        5.031144    4.288366    1.802052
     59          6           0        6.128527    3.489293    1.528754
     60          6           0        5.947166    2.314854    0.819206
     61          7           0        4.733861    1.930414    0.413893
     62          6           0        3.670895    2.696734    0.662441
     63          1           0        5.153099    5.196130    2.371704
     64          1           0        7.113159    3.774381    1.862265
     65          1           0        6.780626    1.661875    0.569841
     66          1           0        2.720768    2.334771    0.278038
     67          6           0       -0.369979   -1.926699    4.605461
     68          6           0       -1.543122   -1.888473    4.317978
     69          6           0       -2.901337   -1.800156    3.954738
     70          6           0       -3.931478   -2.234393    4.799741
     71          6           0       -5.243935   -2.096370    4.382908
     72          6           0       -5.509263   -1.528825    3.145836
     73          7           0       -4.523500   -1.117030    2.343961
     74          6           0       -3.253117   -1.245786    2.721931
     75          1           0       -3.696364   -2.667889    5.759345
     76          1           0       -6.056910   -2.422188    5.011372
     77          1           0       -6.524295   -1.397696    2.778643
     78          1           0       -2.491418   -0.892209    2.029391
     79          6           0        1.002854   -1.921775    4.931112
     80          6           0        1.410069   -1.962860    6.266834
     81          6           0        2.758161   -1.910268    6.569124
     82          6           0        3.702579   -1.821452    5.560489
     83          6           0        3.308771   -1.791157    4.220474
     84          6           0        1.952941   -1.842200    3.912193
     85          1           0        0.674493   -2.028232    7.053435
     86          1           0        3.078046   -1.934452    7.599601
     87          1           0        4.746896   -1.750417    5.821170
     88          1           0        1.619327   -1.856067    2.886884
     89          6           0        4.324216   -1.689567    3.159832
     90          6           0        5.567423   -2.320295    3.277923
     91          6           0        6.513988   -2.166631    2.279190
     92          6           0        6.204226   -1.397125    1.171079
     93          7           0        5.010813   -0.812352    1.044582
     94          6           0        4.093214   -0.944852    2.004400
     95          1           0        5.783430   -2.934571    4.137882
     96          1           0        7.479197   -2.640140    2.357890
     97          1           0        6.915612   -1.243402    0.363569
     98          1           0        3.155830   -0.415529    1.844918
     99          6           0       -1.220502   -4.623030   -1.706883
    100          6           0       -2.353497   -4.264067   -1.487678
    101          6           0       -3.640422   -3.786949   -1.169802
    102          6           0       -4.799942   -4.552740   -1.353006
    103          6           0       -6.021439   -4.016553   -0.985017
    104          6           0       -6.071320   -2.742841   -0.436656
    105          7           0       -4.964928   -2.017553   -0.265395
    106          6           0       -3.778892   -2.509490   -0.623248
    107          1           0       -4.732369   -5.544188   -1.773180
    108          1           0       -6.930258   -4.581484   -1.115465
    109          1           0       -7.006952   -2.286454   -0.128178
    110          1           0       -2.906402   -1.873849   -0.465022
    111          6           0        0.109013   -5.046961   -1.914927
    112          6           0        0.410038   -6.410125   -1.968683
    113          6           0        1.723536   -6.811818   -2.125088
    114          6           0        2.736465   -5.874501   -2.234978
    115          6           0        2.446959   -4.508267   -2.194907
    116          6           0        1.127278   -4.099513   -2.032214
    117          1           0       -0.379589   -7.140277   -1.881495
    118          1           0        1.962510   -7.863745   -2.159412
    119          1           0        3.757531   -6.210049   -2.327760
    120          1           0        0.870725   -3.052001   -2.031343
    121          6           0        3.539331   -3.529152   -2.316616
    122          6           0        4.625984   -3.764054   -3.165209
    123          6           0        5.662721   -2.848181   -3.224642
    124          6           0        5.595318   -1.707206   -2.445134
    125          7           0        4.546738   -1.467142   -1.651966
    126          6           0        3.545597   -2.345099   -1.580572
    127          1           0        4.650440   -4.649741   -3.780387
    128          1           0        6.510837   -3.016962   -3.868200
    129          1           0        6.389767   -0.962854   -2.451787
    130          1           0        2.741002   -2.095555   -0.894407
 ---------------------------------------------------------------------

 SCF Done:  E(RPBE1PBE) =  -3459.87254006     a.u. after   22 cycles
 SCF Done:  E(RPBE1PBE) =  -3459.87256047     A.U. after    9 cycles

 The electronic state is 1-A.
 Alpha  occ. eigenvalues --  -14.49270 -14.49244 -14.49237 -14.49231 -14.48919
 Alpha  occ. eigenvalues --  -14.48915 -14.48912 -14.48894 -10.32763 -10.32735
 Alpha  occ. eigenvalues --  -10.32730 -10.32724 -10.32229 -10.32212 -10.32207
 Alpha  occ. eigenvalues --  -10.32170 -10.32165 -10.32151 -10.32149 -10.32148
 Alpha  occ. eigenvalues --  -10.31898 -10.31868 -10.31855 -10.31838 -10.31040
 Alpha  occ. eigenvalues --  -10.31038 -10.31020 -10.31002 -10.29549 -10.29548
 Alpha  occ. eigenvalues --  -10.29547 -10.29520 -10.29513 -10.29506 -10.29505
 Alpha  occ. eigenvalues --  -10.29501 -10.29000 -10.28993 -10.28992 -10.28989
 Alpha  occ. eigenvalues --  -10.28702 -10.28700 -10.28698 -10.28694 -10.28440
 Alpha  occ. eigenvalues --  -10.28434 -10.28433 -10.28407 -10.28124 -10.28122
 Alpha  occ. eigenvalues --  -10.28113 -10.28095 -10.27966 -10.27958 -10.27951
 Alpha  occ. eigenvalues --  -10.27939 -10.27084 -10.27081 -10.27079 -10.27068
 Alpha  occ. eigenvalues --  -10.27068 -10.27058 -10.27056 -10.27056 -10.26615
 Alpha  occ. eigenvalues --  -10.26612 -10.26607 -10.26603 -10.26597 -10.26591
 Alpha  occ. eigenvalues --  -10.26590 -10.26588 -10.26537 -10.26530 -10.26530
 Alpha  occ. eigenvalues --  -10.26522 -10.26036 -10.26030 -10.26028 -10.26026
 Alpha  occ. eigenvalues --   -3.57780  -3.57605  -2.25711  -2.25681  -2.25532
 Alpha  occ. eigenvalues --   -2.25492  -2.21487  -2.21297  -1.04695  -1.04478
 Alpha  occ. eigenvalues --   -1.04003  -1.03960  -1.03804  -1.03670  -1.03578
 Alpha  occ. eigenvalues --   -1.03515  -0.92423  -0.92406  -0.92400  -0.92396
 Alpha  occ. eigenvalues --   -0.89092  -0.88935  -0.88894  -0.88855  -0.87936
 Alpha  occ. eigenvalues --   -0.87777  -0.87746  -0.87733  -0.84882  -0.84751
 Alpha  occ. eigenvalues --   -0.84746  -0.84686  -0.84331  -0.84246  -0.84233
 Alpha  occ. eigenvalues --   -0.84150  -0.82389  -0.82351  -0.82337  -0.82291
 Alpha  occ. eigenvalues --   -0.79168  -0.79123  -0.79111  -0.79075  -0.77608
 Alpha  occ. eigenvalues --   -0.77544  -0.77537  -0.77468  -0.71932  -0.71819
 Alpha  occ. eigenvalues --   -0.71808  -0.71609  -0.70827  -0.70774  -0.70745
 Alpha  occ. eigenvalues --   -0.70581  -0.69943  -0.69799  -0.69701  -0.69573
 Alpha  occ. eigenvalues --   -0.69563  -0.69554  -0.69351  -0.69343  -0.66202
 Alpha  occ. eigenvalues --   -0.66103  -0.66011  -0.65987  -0.64796  -0.64724
 Alpha  occ. eigenvalues --   -0.64689  -0.64657  -0.62398  -0.61747  -0.61411
 Alpha  occ. eigenvalues --   -0.61079  -0.60826  -0.60310  -0.59875  -0.59844
 Alpha  occ. eigenvalues --   -0.57446  -0.57020  -0.57011  -0.56902  -0.56546
 Alpha  occ. eigenvalues --   -0.56497  -0.56463  -0.56337  -0.55920  -0.55884
 Alpha  occ. eigenvalues --   -0.55880  -0.55815  -0.55056  -0.54845  -0.54830
 Alpha  occ. eigenvalues --   -0.54643  -0.52596  -0.52534  -0.52392  -0.52215
 Alpha  occ. eigenvalues --   -0.52115  -0.51730  -0.51471  -0.51156  -0.50979
 Alpha  occ. eigenvalues --   -0.50786  -0.50749  -0.50707  -0.50644  -0.50596
 Alpha  occ. eigenvalues --   -0.50196  -0.50179  -0.50167  -0.49965  -0.49844
 Alpha  occ. eigenvalues --   -0.49566  -0.49553  -0.49287  -0.49098  -0.48914
 Alpha  occ. eigenvalues --   -0.48791  -0.48639  -0.48506  -0.48332  -0.48302
 Alpha  occ. eigenvalues --   -0.48108  -0.47168  -0.47037  -0.47011  -0.46930
 Alpha  occ. eigenvalues --   -0.46853  -0.46832  -0.46615  -0.46512  -0.46394
 Alpha  occ. eigenvalues --   -0.46301  -0.43863  -0.43691  -0.43647  -0.43622
 Alpha  occ. eigenvalues --   -0.43517  -0.43423  -0.43380  -0.43279  -0.42918
 Alpha  occ. eigenvalues --   -0.42813  -0.42762  -0.42746  -0.42230  -0.42068
 Alpha  occ. eigenvalues --   -0.41975  -0.41790  -0.41178  -0.40237  -0.39870
 Alpha  occ. eigenvalues --   -0.39768  -0.39735  -0.39705  -0.39691  -0.39613
 Alpha  occ. eigenvalues --   -0.39390  -0.39102  -0.39011  -0.38859  -0.38333
 Alpha  occ. eigenvalues --   -0.37731  -0.37341  -0.37007  -0.36952  -0.36651
 Alpha  occ. eigenvalues --   -0.36024  -0.35901  -0.35615  -0.34852  -0.34772
 Alpha  occ. eigenvalues --   -0.34471  -0.34353  -0.34275  -0.33969  -0.33842
 Alpha  occ. eigenvalues --   -0.33701  -0.33314  -0.33283  -0.33183  -0.32632
 Alpha  occ. eigenvalues --   -0.32498  -0.32420  -0.32342  -0.32223  -0.32175
 Alpha  occ. eigenvalues --   -0.31168  -0.31092  -0.30778  -0.30752  -0.29273
 Alpha  occ. eigenvalues --   -0.29189  -0.28574  -0.28498  -0.28469  -0.28374
 Alpha  occ. eigenvalues --   -0.26487  -0.26387  -0.26348  -0.26209
 Alpha virt. eigenvalues --   -0.09453  -0.09204  -0.09186  -0.08809  -0.08244
 Alpha virt. eigenvalues --   -0.08131  -0.07994  -0.07676  -0.07565  -0.07522
 Alpha virt. eigenvalues --   -0.07368  -0.07089  -0.06979  -0.06628  -0.06581

 Mulliken charges:
               1
     1  Pd   0.499623
     2  Pd   0.490545
     3  C    0.007278
     4  C   -0.004371
     5  C   -0.120014
     6  C    0.111010
     7  C   -0.033415
     8  C    0.151667
     9  N   -0.315799
    10  C    0.182146
    11  H    0.065519
    12  H    0.072971
    13  H    0.111955
    14  H    0.097781
    15  C   -0.077224
    16  C    0.026299
    17  C   -0.011211
    18  C   -0.018926
    19  C    0.037317
    20  C   -0.011054
    21  H    0.038486
    22  H    0.046643
    23  H    0.041251
    24  H    0.033794
    25  C   -0.025154
    26  C    0.060951
    27  C   -0.030579
    28  C    0.152545
    29  N   -0.312962
    30  C    0.152142
    31  H    0.064428
    32  H    0.068583
    33  H    0.106714
    34  H    0.085648
    35  C    0.007742
    36  C   -0.004652
    37  C   -0.119072
    38  C    0.111557
    39  C   -0.034786
    40  C    0.154314
    41  N   -0.314784
    42  C    0.181417
    43  H    0.065195
    44  H    0.073436
    45  H    0.105793
    46  H    0.098779
    47  C   -0.077997
    48  C    0.026157
    49  C   -0.011178
    50  C   -0.019301
    51  C    0.036773
    52  C   -0.009103
    53  H    0.038574
    54  H    0.046611
    55  H    0.041387
    56  H    0.033401
    57  C   -0.027168
    58  C    0.061118
    59  C   -0.030390
    60  C    0.151824
    61  N   -0.319026
    62  C    0.153692
    63  H    0.064604
    64  H    0.068086
    65  H    0.111750
    66  H    0.085984
    67  C    0.009630
    68  C   -0.004189
    69  C   -0.121120
    70  C    0.111060
    71  C   -0.033062
    72  C    0.155237
    73  N   -0.313736
    74  C    0.181919
    75  H    0.065209
    76  H    0.072941
    77  H    0.113184
    78  H    0.088183
    79  C   -0.078077
    80  C    0.026032
    81  C   -0.011278
    82  C   -0.017187
    83  C    0.032713
    84  C   -0.006956
    85  H    0.038587
    86  H    0.046729
    87  H    0.041447
    88  H    0.032761
    89  C   -0.028121
    90  C    0.063104
    91  C   -0.029987
    92  C    0.147166
    93  N   -0.317686
    94  C    0.153312
    95  H    0.064524
    96  H    0.068709
    97  H    0.108283
    98  H    0.095033
    99  C    0.012463
   100  C   -0.008492
   101  C   -0.117655
   102  C    0.112301
   103  C   -0.036037
   104  C    0.159114
   105  N   -0.312422
   106  C    0.172515
   107  H    0.064926
   108  H    0.072951
   109  H    0.109380
   110  H    0.096885
   111  C   -0.078705
   112  C    0.025694
   113  C   -0.011216
   114  C   -0.016687
   115  C    0.030595
   116  C   -0.003759
   117  H    0.038657
   118  H    0.046735
   119  H    0.041771
   120  H    0.032412
   121  C   -0.032215
   122  C    0.063350
   123  C   -0.028668
   124  C    0.145432
   125  N   -0.318366
   126  C    0.158236
   127  H    0.064870
   128  H    0.068618
   129  H    0.108092
   130  H    0.089540
 Sum of Mulliken charges =   4.00000

 Dipole moment (field-independent basis, Debye):
    X=             -0.8069    Y=             -0.0252    Z=              0.2469  Tot=              0.8442
 Quadrupole moment (field-independent basis, Debye-Ang):
   XX=             83.0987   YY=           -302.3551   ZZ=           -302.3643
   XY=              8.3842   XZ=            -34.9763   YZ=             -2.0613

 Normal termination of Gaussian 16 at Fri Feb 26 11:32:20 2021.
