 Gaussian 16, Revision C.01,
 Gaussian 16:  ES64L-G16RevC.01  3-Jul-2019

 ----------------------------------------------------------------------
 #P PBE1PBE/Def2SVP SP SCF=(YQC,MaxCycle=900) int=(Grid=Superfinegrid)
 EmpiricalDispersion=GD3BJ SCRF=(PCM,Solvent=DiMethylSulfoxide)
 ----------------------------------------------------------------------

 --------
 _s_4b1_a
 --------
 Symbolic Z-matrix:
 Charge =  4 Multiplicity = 1

                         Standard orientation:
 ---------------------------------------------------------------------
 Center     Atomic      Atomic             Coordinates (Angstroms)
 Number     Number       Type             X           Y           Z
 ---------------------------------------------------------------------
      1         46           0       -4.900627   -0.006949   -0.000665
      2         46           0        6.456771   -0.001420   -0.000360
      3          6           0       -0.751280    3.550683   -3.266660
      4          6           0       -1.932418    3.455015   -3.510832
      5          6           0       -3.270293    3.458734   -3.950325
      6          6           0       -3.597533    4.260062   -5.031328
      7          6           0       -4.901433    4.309047   -5.531822
      8          6           0       -5.896512    3.553659   -4.964466
      9          6           0       -5.608093    2.723192   -3.866833
     10          6           0       -6.593922    1.922682   -3.249154
     11          6           0       -6.262602    1.142296   -2.182263
     12          7           0       -5.002072    1.097623   -1.676470
     13          6           0       -4.051159    1.824332   -2.232211
     14          6           0       -4.285312    2.664567   -3.336813
     15          1           0       -2.828259    4.860302   -5.492455
     16          1           0       -5.118422    4.948014   -6.373847
     17          1           0       -6.903613    3.585622   -5.349187
     18          1           0       -7.603413    1.938155   -3.627900
     19          1           0       -7.008749    0.513618   -1.698185
     20          1           0       -3.058873    1.751742   -1.797144
     21          6           0        0.627852    3.569926   -2.975419
     22          6           0        1.081678    3.369808   -1.668385
     23          6           0        2.433543    3.281291   -1.417711
     24          6           0        3.362043    3.393870   -2.456948
     25          6           0        2.908333    3.672171   -3.746584
     26          6           0        1.555020    3.756614   -4.005900
     27          1           0        0.369491    3.277615   -0.864555
     28          1           0        2.778811    3.142223   -0.405045
     29          1           0        3.614598    3.777262   -4.555502
     30          1           0        1.206865    3.941740   -5.010278
     31          6           0        4.781626    3.113349   -2.198434
     32          6           0        5.849982    3.832903   -2.741940
     33          6           0        7.146222    3.441173   -2.448324
     34          6           0        7.364868    2.338678   -1.633813
     35          7           0        6.346821    1.645904   -1.124438
     36          6           0        5.095466    2.022170   -1.394461
     37          1           0        5.664547    4.690610   -3.369626
     38          1           0        7.986685    3.984609   -2.848981
     39          1           0        8.362281    1.995079   -1.382478
     40          1           0        4.292435    1.417306   -0.969991
     41          6           0       -0.749732    3.280217    3.538059
     42          6           0       -1.930656    3.524305    3.440060
     43          6           0       -3.268362    3.964476    3.440665
     44          6           0       -3.594156    5.053513    4.231539
     45          6           0       -4.897867    5.554830    4.277478
     46          6           0       -5.894342    4.979905    3.529608
     47          6           0       -5.607396    3.874143    2.709657
     48          6           0       -6.594667    3.248506    1.917027
     49          6           0       -6.264376    2.174854    1.145556
     50          7           0       -5.003410    1.670080    1.101854
     51          6           0       -4.051392    2.232368    1.822056
     52          6           0       -4.284558    3.343819    2.653561
     53          1           0       -2.823924    5.520271    4.826121
     54          1           0       -5.113708    6.403302    4.908282
     55          1           0       -6.901413    5.364932    3.559598
     56          1           0       -7.604369    3.626647    1.931543
     57          1           0       -7.011792    1.684411    0.523408
     58          1           0       -3.059024    1.797237    1.750998
     59          6           0        0.629587    2.990245    3.558978
     60          6           0        1.555759    4.024674    3.728660
     61          6           0        2.909208    3.766185    3.644804
     62          6           0        3.364212    2.473473    3.383957
     63          6           0        2.437060    1.431316    3.288401
     64          6           0        1.084943    1.681235    3.376556
     65          1           0        1.206401    5.031074    3.900061
     66          1           0        3.614525    4.577596    3.736553
     67          1           0        2.783522    0.417339    3.163071
     68          1           0        0.373883    0.874761    3.297730
     69          6           0        4.783526    2.213502    3.103597
     70          6           0        5.852575    2.768177    3.813553
     71          6           0        7.148406    2.472566    3.422327
     72          6           0        7.366060    1.645592    2.328936
     73          7           0        6.347377    1.125437    1.645023
     74          6           0        5.096334    1.396592    2.021702
     75          1           0        5.667782    3.406380    4.663705
     76          1           0        7.989432    2.881516    3.958797
     77          1           0        8.363189    1.392621    1.985587
     78          1           0        4.292795    0.962113    1.424848
     79          6           0       -0.743674   -3.546811    3.278224
     80          6           0       -1.924370   -3.449188    3.523817
     81          6           0       -3.261421   -3.450643    3.965733
     82          6           0       -3.585539   -4.243074    5.054167
     83          6           0       -4.888638   -4.290161    5.557108
     84          6           0       -5.886065   -3.541901    4.984382
     85          6           0       -5.600793   -2.720470    3.879273
     86          6           0       -6.589232   -1.927616    3.255800
     87          6           0       -6.260677   -1.154789    2.182607
     88          7           0       -5.000393   -1.110014    1.676188
     89          6           0       -4.047277   -1.830327    2.236519
     90          6           0       -4.278792   -2.663089    3.347307
     91          1           0       -2.814558   -4.838074    5.519154
     92          1           0       -5.103155   -4.922202    6.405047
     93          1           0       -6.892611   -3.572758    5.370656
     94          1           0       -7.598498   -1.943041    3.635189
     95          1           0       -7.009093   -0.532584    1.693728
     96          1           0       -3.055477   -1.758270    1.800354
     97          6           0        0.635219   -3.568081    2.986269
     98          6           0        1.089032   -3.378358    1.677758
     99          6           0        2.440909   -3.290882    1.426596
    100          6           0        3.369432   -3.394354    2.466764
    101          6           0        2.915846   -3.662986    3.758449
    102          6           0        1.562614   -3.746227    4.018334
    103          1           0        0.376993   -3.293200    0.872896
    104          1           0        2.786206   -3.159835    0.412814
    105          1           0        3.622088   -3.761104    4.568250
    106          1           0        1.214372   -3.923640    5.023970
    107          6           0        4.788502   -3.113142    2.206634
    108          6           0        5.858321   -3.827008    2.755005
    109          6           0        7.153647   -3.433940    2.459711
    110          6           0        7.370243   -2.335551    1.639051
    111          7           0        6.350929   -1.648172    1.124997
    112          6           0        5.100317   -2.026138    1.396192
    113          1           0        5.674475   -4.681207    3.387871
    114          1           0        7.995309   -3.973108    2.863930
    115          1           0        8.367097   -1.990937    1.386723
    116          1           0        4.295987   -1.426070    0.967537
    117          6           0       -0.744145   -3.278533   -3.548110
    118          6           0       -1.924893   -3.524175   -3.450896
    119          6           0       -3.261985   -3.966020   -3.452979
    120          6           0       -3.586686   -5.051937   -4.248645
    121          6           0       -4.889725   -5.554860   -4.296121
    122          6           0       -5.886491   -4.984838   -3.544968
    123          6           0       -5.600708   -3.882330   -2.720277
    124          6           0       -6.588442   -3.261676   -1.924377
    125          6           0       -6.259457   -2.190510   -1.148842
    126          7           0       -4.999385   -1.683459   -1.104416
    127          6           0       -4.046899   -2.241379   -1.827315
    128          6           0       -4.278699   -3.350111   -2.662740
    129          1           0       -2.816108   -5.514952   -4.845799
    130          1           0       -5.104689   -6.400772   -4.930784
    131          1           0       -6.893044   -5.371287   -3.575999
    132          1           0       -7.597506   -3.641594   -1.939615
    133          1           0       -7.007272   -1.704099   -0.524024
    134          1           0       -3.055211   -1.804981   -1.755209
    135          6           0        0.634695   -2.986353   -3.568859
    136          6           0        1.562285   -4.017614   -3.749648
    137          6           0        2.915477   -3.757663   -3.666027
    138          6           0        3.368772   -2.466568   -3.394340
    139          6           0        2.440002   -1.426892   -3.287995
    140          6           0        1.088185   -1.678167   -3.375826
    141          1           0        1.214247   -5.022957   -3.929581
    142          1           0        3.621934   -4.567002   -3.766525
    143          1           0        2.785064   -0.413366   -3.154451
    144          1           0        0.375962   -0.873677   -3.288510
    145          6           0        4.787877   -2.206396   -3.113315
    146          6           0        5.857585   -2.752036   -3.829378
    147          6           0        7.153030   -2.456286   -3.436998
    148          6           0        7.369811   -1.637686   -2.337053
    149          7           0        6.350570   -1.126423   -1.647364
    150          6           0        5.099869   -1.398356   -2.024599
    151          1           0        5.673566   -3.383153   -4.684872
    152          1           0        7.994521   -2.858501   -3.977785
    153          1           0        8.366622   -1.384819   -1.993069
    154          1           0        4.295628   -0.972334   -1.422487
 ---------------------------------------------------------------------

 SCF Done:  E(RPBE1PBE) =  -4073.34130272     a.u. after   26 cycles
 SCF Done:  E(RPBE1PBE) =  -4073.34134235     A.U. after   10 cycles

 The electronic state is 1-A.
 Alpha  occ. eigenvalues --  -14.48962 -14.48954 -14.48953 -14.48950 -14.48667
 Alpha  occ. eigenvalues --  -14.48661 -14.48660 -14.48659 -10.32626 -10.32625
 Alpha  occ. eigenvalues --  -10.32624 -10.32623 -10.32158 -10.32155 -10.32154
 Alpha  occ. eigenvalues --  -10.32151 -10.31881 -10.31879 -10.31878 -10.31876
 Alpha  occ. eigenvalues --  -10.31116 -10.31116 -10.31116 -10.31113 -10.29931
 Alpha  occ. eigenvalues --  -10.29931 -10.29930 -10.29930 -10.29445 -10.29443
 Alpha  occ. eigenvalues --  -10.29443 -10.29442 -10.29338 -10.29337 -10.29337
 Alpha  occ. eigenvalues --  -10.29336 -10.29179 -10.29179 -10.29178 -10.29178
 Alpha  occ. eigenvalues --  -10.29107 -10.29106 -10.29105 -10.29104 -10.28579
 Alpha  occ. eigenvalues --  -10.28579 -10.28579 -10.28578 -10.28192 -10.28191
 Alpha  occ. eigenvalues --  -10.28190 -10.28190 -10.27923 -10.27923 -10.27922
 Alpha  occ. eigenvalues --  -10.27921 -10.27888 -10.27888 -10.27887 -10.27887
 Alpha  occ. eigenvalues --  -10.27342 -10.27342 -10.27341 -10.27341 -10.27135
 Alpha  occ. eigenvalues --  -10.27135 -10.27135 -10.27134 -10.26933 -10.26932
 Alpha  occ. eigenvalues --  -10.26932 -10.26931 -10.26599 -10.26597 -10.26597
 Alpha  occ. eigenvalues --  -10.26597 -10.26583 -10.26583 -10.26582 -10.26582
 Alpha  occ. eigenvalues --  -10.26566 -10.26565 -10.26565 -10.26564 -10.26463
 Alpha  occ. eigenvalues --  -10.26462 -10.26462 -10.26461 -10.26461 -10.26460
 Alpha  occ. eigenvalues --  -10.26460 -10.26459 -10.26244 -10.26244 -10.26243
 Alpha  occ. eigenvalues --  -10.26243  -3.57624  -3.57466  -2.25504  -2.25500
 Alpha  occ. eigenvalues --   -2.25318  -2.25316  -2.21384  -2.21217  -1.04396
 Alpha  occ. eigenvalues --   -1.03834  -1.03681  -1.03677  -1.03587  -1.03144
 Alpha  occ. eigenvalues --   -1.03142  -1.03036  -0.92875  -0.92774  -0.92774
 Alpha  occ. eigenvalues --   -0.92772  -0.92312  -0.92274  -0.92274  -0.92271
 Alpha  occ. eigenvalues --   -0.88150  -0.87974  -0.87944  -0.87943  -0.86163
 Alpha  occ. eigenvalues --   -0.86086  -0.86086  -0.86074  -0.84768  -0.84579
 Alpha  occ. eigenvalues --   -0.84578  -0.84478  -0.83268  -0.83063  -0.83057
 Alpha  occ. eigenvalues --   -0.83056  -0.82277  -0.82163  -0.82163  -0.82017
 Alpha  occ. eigenvalues --   -0.80544  -0.80446  -0.80445  -0.80317  -0.79615
 Alpha  occ. eigenvalues --   -0.79611  -0.79610  -0.79608  -0.76413  -0.76363
 Alpha  occ. eigenvalues --   -0.76362  -0.76301  -0.71860  -0.71566  -0.71565
 Alpha  occ. eigenvalues --   -0.71473  -0.71321  -0.71089  -0.71088  -0.70836
 Alpha  occ. eigenvalues --   -0.69948  -0.69576  -0.69552  -0.69551  -0.69296
 Alpha  occ. eigenvalues --   -0.69046  -0.69046  -0.68971  -0.67398  -0.67283
 Alpha  occ. eigenvalues --   -0.67282  -0.67241  -0.65245  -0.65203  -0.65203
 Alpha  occ. eigenvalues --   -0.65153  -0.65033  -0.64810  -0.64687  -0.64687
 Alpha  occ. eigenvalues --   -0.60755  -0.60515  -0.60056  -0.60056  -0.60050
 Alpha  occ. eigenvalues --   -0.59745  -0.59428  -0.59427  -0.58586  -0.58155
 Alpha  occ. eigenvalues --   -0.58155  -0.57963  -0.57816  -0.57625  -0.57412
 Alpha  occ. eigenvalues --   -0.57411  -0.57279  -0.57007  -0.56183  -0.56183
 Alpha  occ. eigenvalues --   -0.55916  -0.55915  -0.55888  -0.55701  -0.53729
 Alpha  occ. eigenvalues --   -0.53365  -0.53365  -0.53176  -0.52823  -0.52295
 Alpha  occ. eigenvalues --   -0.52295  -0.52271  -0.51947  -0.51259  -0.51173
 Alpha  occ. eigenvalues --   -0.51098  -0.50955  -0.50952  -0.50880  -0.50878
 Alpha  occ. eigenvalues --   -0.50648  -0.50599  -0.50599  -0.50325  -0.50033
 Alpha  occ. eigenvalues --   -0.49874  -0.49795  -0.49527  -0.49525  -0.49304
 Alpha  occ. eigenvalues --   -0.49302  -0.48701  -0.48610  -0.48601  -0.48529
 Alpha  occ. eigenvalues --   -0.48485  -0.48480  -0.48320  -0.48000  -0.47996
 Alpha  occ. eigenvalues --   -0.47694  -0.47679  -0.47678  -0.47614  -0.47303
 Alpha  occ. eigenvalues --   -0.46684  -0.46683  -0.46675  -0.46419  -0.46197
 Alpha  occ. eigenvalues --   -0.46154  -0.46153  -0.46079  -0.45496  -0.44519
 Alpha  occ. eigenvalues --   -0.44518  -0.44151  -0.44067  -0.43837  -0.43811
 Alpha  occ. eigenvalues --   -0.43809  -0.43776  -0.43705  -0.43399  -0.43396
 Alpha  occ. eigenvalues --   -0.43221  -0.43088  -0.42611  -0.42607  -0.41980
 Alpha  occ. eigenvalues --   -0.41754  -0.41753  -0.41581  -0.41469  -0.40419
 Alpha  occ. eigenvalues --   -0.40418  -0.40272  -0.40080  -0.40070  -0.39970
 Alpha  occ. eigenvalues --   -0.39960  -0.39645  -0.39645  -0.39456  -0.39417
 Alpha  occ. eigenvalues --   -0.39093  -0.39092  -0.38873  -0.38470  -0.37985
 Alpha  occ. eigenvalues --   -0.37816  -0.37813  -0.37361  -0.37004  -0.37002
 Alpha  occ. eigenvalues --   -0.36524  -0.36523  -0.35884  -0.35535  -0.35498
 Alpha  occ. eigenvalues --   -0.35497  -0.34797  -0.34390  -0.34381  -0.34149
 Alpha  occ. eigenvalues --   -0.34147  -0.33882  -0.33880  -0.33713  -0.32429
 Alpha  occ. eigenvalues --   -0.32028  -0.32025  -0.32009  -0.31816  -0.31693
 Alpha  occ. eigenvalues --   -0.31672  -0.31669  -0.31520  -0.31477  -0.31476
 Alpha  occ. eigenvalues --   -0.31312  -0.30783  -0.29935  -0.29846  -0.29845
 Alpha  occ. eigenvalues --   -0.29782  -0.29239  -0.29199  -0.28611  -0.28462
 Alpha  occ. eigenvalues --   -0.28458  -0.28220  -0.25083  -0.25047  -0.25045
 Alpha  occ. eigenvalues --   -0.24934
 Alpha virt. eigenvalues --   -0.10550  -0.10548  -0.10480  -0.10164  -0.08251
 Alpha virt. eigenvalues --   -0.08242  -0.08237  -0.07825  -0.07658  -0.07502
 Alpha virt. eigenvalues --   -0.07080  -0.07074  -0.07025  -0.06421  -0.06219

 Mulliken charges:
               1
     1  Pd   0.523599
     2  Pd   0.545268
     3  C    0.015578
     4  C   -0.068902
     5  C   -0.013366
     6  C    0.005003
     7  C    0.016366
     8  C    0.007562
     9  C    0.028205
    10  C   -0.011775
    11  C    0.128132
    12  N   -0.318642
    13  C    0.184246
    14  C   -0.005658
    15  H    0.042506
    16  H    0.056189
    17  H    0.042155
    18  H    0.053719
    19  H    0.097436
    20  H    0.080963
    21  C   -0.073451
    22  C    0.016274
    23  C   -0.030014
    24  C    0.015926
    25  C   -0.006631
    26  C    0.014412
    27  H    0.032970
    28  H    0.040149
    29  H    0.039568
    30  H    0.038310
    31  C   -0.030356
    32  C    0.077633
    33  C   -0.039927
    34  C    0.158425
    35  N   -0.309810
    36  C    0.125591
    37  H    0.062729
    38  H    0.069947
    39  H    0.101701
    40  H    0.089516
    41  C    0.015526
    42  C   -0.068700
    43  C   -0.013326
    44  C    0.004988
    45  C    0.016352
    46  C    0.007491
    47  C    0.028184
    48  C   -0.011783
    49  C    0.128264
    50  N   -0.318787
    51  C    0.184206
    52  C   -0.005600
    53  H    0.042482
    54  H    0.056199
    55  H    0.042182
    56  H    0.053714
    57  H    0.097558
    58  H    0.080979
    59  C   -0.073625
    60  C    0.014415
    61  C   -0.006532
    62  C    0.015408
    63  C   -0.029773
    64  C    0.016207
    65  H    0.038317
    66  H    0.039577
    67  H    0.040229
    68  H    0.033120
    69  C   -0.030408
    70  C    0.077617
    71  C   -0.039934
    72  C    0.158414
    73  N   -0.309816
    74  C    0.125778
    75  H    0.062748
    76  H    0.069997
    77  H    0.101767
    78  H    0.089435
    79  C    0.015629
    80  C   -0.068916
    81  C   -0.013288
    82  C    0.004921
    83  C    0.016318
    84  C    0.007494
    85  C    0.028234
    86  C   -0.011919
    87  C    0.128365
    88  N   -0.318649
    89  C    0.184305
    90  C   -0.005659
    91  H    0.042485
    92  H    0.056218
    93  H    0.042165
    94  H    0.053738
    95  H    0.097334
    96  H    0.080940
    97  C   -0.073587
    98  C    0.016230
    99  C   -0.030070
   100  C    0.015679
   101  C   -0.006437
   102  C    0.014429
   103  H    0.033072
   104  H    0.040305
   105  H    0.039560
   106  H    0.038270
   107  C   -0.030568
   108  C    0.077824
   109  C   -0.040125
   110  C    0.158488
   111  N   -0.309538
   112  C    0.125441
   113  H    0.062688
   114  H    0.070018
   115  H    0.101681
   116  H    0.089712
   117  C    0.015640
   118  C   -0.068926
   119  C   -0.013313
   120  C    0.004928
   121  C    0.016302
   122  C    0.007456
   123  C    0.028238
   124  C   -0.011856
   125  C    0.128292
   126  N   -0.318599
   127  C    0.184310
   128  C   -0.005700
   129  H    0.042518
   130  H    0.056237
   131  H    0.042200
   132  H    0.053729
   133  H    0.097379
   134  H    0.080910
   135  C   -0.073542
   136  C    0.014369
   137  C   -0.006428
   138  C    0.015656
   139  C   -0.030043
   140  C    0.016203
   141  H    0.038301
   142  H    0.039555
   143  H    0.040297
   144  H    0.033083
   145  C   -0.030543
   146  C    0.077826
   147  C   -0.040086
   148  C    0.158565
   149  N   -0.309605
   150  C    0.125443
   151  H    0.062694
   152  H    0.069980
   153  H    0.101626
   154  H    0.089699
 Sum of Mulliken charges =   4.00000

 Dipole moment (field-independent basis, Debye):
    X=             11.0553    Y=              0.0211    Z=             -0.0030  Tot=             11.0553
 Quadrupole moment (field-independent basis, Debye-Ang):
   XX=            173.1142   YY=           -369.4178   ZZ=           -370.5390
   XY=              0.1922   XZ=             -0.0299   YZ=             -0.1025

 Normal termination of Gaussian 16 at Fri Feb 26 15:26:51 2021.
