 Gaussian 16, Revision C.01,
 Gaussian 16:  ES64L-G16RevC.01  3-Jul-2019

 ----------------------------------------------------------------------
 #P PBE1PBE/Def2SVP SP SCF=(YQC,MaxCycle=900) int=(Grid=Superfinegrid)
 EmpiricalDispersion=GD3BJ SCRF=(PCM,Solvent=DiMethylSulfoxide)
 ----------------------------------------------------------------------

 --------
 _s_4b1_b
 --------
 Symbolic Z-matrix:
 Charge =  4 Multiplicity = 1

                         Standard orientation:
 ---------------------------------------------------------------------
 Center     Atomic      Atomic             Coordinates (Angstroms)
 Number     Number       Type             X           Y           Z
 ---------------------------------------------------------------------
      1         46           0       -5.190280    0.508713    0.934467
      2         46           0        6.030490   -0.400243   -0.846217
      3          6           0        3.317043    1.995241    3.916644
      4          6           0        4.526577    2.016253    3.910017
      5          6           0        5.935226    2.056515    3.944649
      6          6           0        6.589455    2.588107    5.039861
      7          6           0        7.987422    2.637572    5.089497
      8          6           0        8.750942    2.153604    4.056745
      9          6           0        8.129396    1.595301    2.924495
     10          6           0        8.854370    1.065820    1.832292
     11          6           0        8.188418    0.525963    0.769363
     12          7           0        6.834201    0.485133    0.721471
     13          6           0        6.122018    0.973973    1.716558
     14          6           0        6.706544    1.545082    2.857453
     15          1           0        6.013491    2.974547    5.866771
     16          1           0        8.464634    3.063732    5.958626
     17          1           0        9.828030    2.192297    4.101397
     18          1           0        9.932335    1.089874    1.852418
     19          1           0        8.710956    0.102793   -0.088193
     20          1           0        5.038423    0.922171    1.630652
     21          6           0        1.906677    1.941624    3.896052
     22          6           0        1.202434    1.478964    5.011532
     23          6           0       -0.175274    1.408754    4.979822
     24          6           0       -0.880366    1.786353    3.835209
     25          6           0       -0.173581    2.258715    2.727585
     26          6           0        1.202795    2.341073    2.756214
     27          1           0        1.741725    1.175398    5.895577
     28          1           0       -0.706042    1.032545    5.840752
     29          1           0       -0.708461    2.599203    1.855897
     30          1           0        1.741060    2.734050    1.908810
     31          6           0       -2.347403    1.701026    3.801426
     32          6           0       -3.124770    2.074724    4.902555
     33          6           0       -4.504120    1.989969    4.826736
     34          6           0       -5.087221    1.535110    3.655629
     35          7           0       -4.348360    1.172939    2.606273
     36          6           0       -3.016622    1.247225    2.665458
     37          1           0       -2.650618    2.445252    5.798074
     38          1           0       -5.121752    2.277723    5.661953
     39          1           0       -6.165440    1.455424    3.551039
     40          1           0       -2.476924    0.915537    1.777287
     41          6           0       -1.284361   -4.336666    1.871592
     42          6           0       -2.475308   -4.412656    2.067965
     43          6           0       -3.832478   -4.614479    2.388390
     44          6           0       -4.236526   -5.859163    2.836950
     45          6           0       -5.558595   -6.092107    3.229062
     46          6           0       -6.490919   -5.085863    3.189872
     47          6           0       -6.126623   -3.808619    2.727459
     48          6           0       -7.040020   -2.731999    2.669933
     49          6           0       -6.634218   -1.524144    2.185834
     50          7           0       -5.371179   -1.314322    1.729109
     51          6           0       -4.482658   -2.285179    1.792685
     52          6           0       -4.789598   -3.560340    2.299754
     53          1           0       -3.514641   -6.659182    2.896932
     54          1           0       -5.837537   -7.075074    3.576412
     55          1           0       -7.506256   -5.260103    3.509457
     56          1           0       -8.052722   -2.878043    3.010186
     57          1           0       -7.314387   -0.672007    2.144937
     58          1           0       -3.484326   -2.065191    1.427648
     59          6           0        0.102518   -4.204684    1.649928
     60          6           0        0.782240   -5.124154    0.846544
     61          6           0        2.135855   -4.976971    0.621477
     62          6           0        2.836776   -3.911104    1.188839
     63          6           0        2.159553   -3.013869    2.018217
     64          6           0        0.807803   -3.156521    2.248622
     65          1           0        0.242506   -5.941730    0.394691
     66          1           0        2.646461   -5.674437   -0.024210
     67          1           0        2.701287   -2.220990    2.508916
     68          1           0        0.289430   -2.468117    2.896344
     69          6           0        4.248906   -3.693716    0.843597
     70          6           0        5.177168   -4.732894    0.716661
     71          6           0        6.466600   -4.446386    0.301976
     72          6           0        6.802102   -3.140689   -0.025366
     73          7           0        5.919040   -2.150704    0.095218
     74          6           0        4.687400   -2.407336    0.544910
     75          1           0        4.890874   -5.746042    0.952646
     76          1           0        7.202150   -5.229116    0.212033
     77          1           0        7.787806   -2.871864   -0.388962
     78          1           0        4.019947   -1.548621    0.653567
     79          6           0       -2.325662   -2.122392   -3.730574
     80          6           0       -3.529105   -2.002209   -3.748745
     81          6           0       -4.929060   -1.914051   -3.876660
     82          6           0       -5.534033   -2.425092   -5.010632
     83          6           0       -6.921115   -2.363825   -5.180740
     84          6           0       -7.722256   -1.790761   -4.225611
     85          6           0       -7.149724   -1.252238   -3.058647
     86          6           0       -7.921088   -0.645065   -2.043450
     87          6           0       -7.307473   -0.138847   -0.935162
     88          7           0       -5.964152   -0.191696   -0.766506
     89          6           0       -5.207359   -0.749992   -1.693181
     90          6           0       -5.737605   -1.306491   -2.869062
     91          1           0       -4.924197   -2.883089   -5.774354
     92          1           0       -7.358384   -2.775460   -6.077426
     93          1           0       -8.791954   -1.744174   -4.356387
     94          1           0       -8.992067   -0.587121   -2.154000
     95          1           0       -7.877709    0.333781   -0.140739
     96          1           0       -4.133704   -0.763037   -1.512799
     97          6           0       -0.918120   -2.204836   -3.703994
     98          6           0       -0.240401   -2.474434   -2.511529
     99          6           0        1.137890   -2.482151   -2.487906
    100          6           0        1.870075   -2.229765   -3.651020
    101          6           0        1.189985   -2.011225   -4.850139
    102          6           0       -0.189151   -1.994279   -4.878595
    103          1           0       -0.800096   -2.677505   -1.613045
    104          1           0        1.651281   -2.712126   -1.566489
    105          1           0        1.743352   -1.816689   -5.755725
    106          1           0       -0.710854   -1.803632   -5.803558
    107          6           0        3.335364   -2.138805   -3.599553
    108          6           0        4.172686   -2.662034   -4.589370
    109          6           0        5.544262   -2.507600   -4.472284
    110          6           0        6.061590   -1.833297   -3.378092
    111          7           0        5.261757   -1.329344   -2.435957
    112          6           0        3.940651   -1.474467   -2.537150
    113          1           0        3.752241   -3.195235   -5.427773
    114          1           0        6.208566   -2.907683   -5.221195
    115          1           0        7.128934   -1.683058   -3.238551
    116          1           0        3.340842   -1.028346   -1.746656
    117          6           0       -1.240318    4.370265   -2.152698
    118          6           0       -2.392539    4.654870   -1.918119
    119          6           0       -3.691152    5.135069   -1.662978
    120          6           0       -4.031665    6.403095   -2.101655
    121          6           0       -5.290619    6.948497   -1.834357
    122          6           0       -6.220239    6.245839   -1.109152
    123          6           0       -5.916649    4.954499   -0.642522
    124          6           0       -6.825157    4.193906    0.127591
    125          6           0       -6.477556    2.944633    0.547103
    126          7           0       -5.282085    2.379234    0.230855
    127          6           0       -4.403570    3.062686   -0.474472
    128          6           0       -4.648865    4.369999   -0.931549
    129          1           0       -3.308863    6.980186   -2.657892
    130          1           0       -5.522171    7.938318   -2.196650
    131          1           0       -7.185686    6.672307   -0.887235
    132          1           0       -7.785739    4.613836    0.379973
    133          1           0       -7.152538    2.346377    1.162485
    134          1           0       -3.463445    2.571103   -0.702243
    135          6           0        0.105101    3.998459   -2.348719
    136          6           0        0.459408    2.648029   -2.420232
    137          6           0        1.785008    2.289889   -2.530889
    138          6           0        2.785439    3.264538   -2.580783
    139          6           0        2.424935    4.611710   -2.561912
    140          6           0        1.099165    4.977640   -2.442391
    141          1           0       -0.310163    1.894140   -2.387105
    142          1           0        2.050143    1.246680   -2.607046
    143          1           0        3.187308    5.374072   -2.605535
    144          1           0        0.826000    6.020965   -2.405813
    145          6           0        4.193796    2.846559   -2.623211
    146          6           0        5.145792    3.422213   -3.470402
    147          6           0        6.437800    2.923861   -3.476579
    148          6           0        6.759527    1.850727   -2.658031
    149          7           0        5.859033    1.316643   -1.834952
    150          6           0        4.617456    1.808136   -1.798901
    151          1           0        4.867091    4.232133   -4.126608
    152          1           0        7.188068    3.349434   -4.123301
    153          1           0        7.750160    1.409517   -2.651068
    154          1           0        3.937993    1.367281   -1.065392
 ---------------------------------------------------------------------

 SCF Done:  E(RPBE1PBE) =  -4073.35243108     a.u. after   25 cycles
 SCF Done:  E(RPBE1PBE) =  -4073.35257729     A.U. after   10 cycles

 The electronic state is 1-A.
 Alpha  occ. eigenvalues --  -14.48827 -14.48827 -14.48763 -14.48665 -14.48593
 Alpha  occ. eigenvalues --  -14.48582 -14.48550 -14.48521 -10.32525 -10.32501
 Alpha  occ. eigenvalues --  -10.32471 -10.32411 -10.32185 -10.32110 -10.32055
 Alpha  occ. eigenvalues --  -10.32032 -10.31876 -10.31789 -10.31788 -10.31787
 Alpha  occ. eigenvalues --  -10.31077 -10.31069 -10.31041 -10.31008 -10.29888
 Alpha  occ. eigenvalues --  -10.29887 -10.29868 -10.29864 -10.29460 -10.29416
 Alpha  occ. eigenvalues --  -10.29355 -10.29344 -10.29251 -10.29251 -10.29216
 Alpha  occ. eigenvalues --  -10.29174 -10.29154 -10.29146 -10.29140 -10.29138
 Alpha  occ. eigenvalues --  -10.29081 -10.29030 -10.29022 -10.28917 -10.28572
 Alpha  occ. eigenvalues --  -10.28572 -10.28565 -10.28564 -10.28173 -10.28122
 Alpha  occ. eigenvalues --  -10.28110 -10.28048 -10.27946 -10.27897 -10.27865
 Alpha  occ. eigenvalues --  -10.27860 -10.27858 -10.27855 -10.27850 -10.27848
 Alpha  occ. eigenvalues --  -10.27338 -10.27336 -10.27327 -10.27320 -10.27128
 Alpha  occ. eigenvalues --  -10.27114 -10.27112 -10.27110 -10.26923 -10.26911
 Alpha  occ. eigenvalues --  -10.26907 -10.26905 -10.26606 -10.26595 -10.26585
 Alpha  occ. eigenvalues --  -10.26584 -10.26577 -10.26573 -10.26569 -10.26564
 Alpha  occ. eigenvalues --  -10.26553 -10.26537 -10.26527 -10.26519 -10.26483
 Alpha  occ. eigenvalues --  -10.26467 -10.26460 -10.26458 -10.26416 -10.26413
 Alpha  occ. eigenvalues --  -10.26412 -10.26383 -10.26265 -10.26240 -10.26236
 Alpha  occ. eigenvalues --  -10.26231  -3.57502  -3.57397  -2.25450  -2.25364
 Alpha  occ. eigenvalues --   -2.25317  -2.25232  -2.21237  -2.21144  -1.04316
 Alpha  occ. eigenvalues --   -1.03962  -1.03556  -1.03463  -1.03354  -1.03298
 Alpha  occ. eigenvalues --   -1.03122  -1.03068  -0.92827  -0.92757  -0.92749
 Alpha  occ. eigenvalues --   -0.92738  -0.92297  -0.92247  -0.92239  -0.92204
 Alpha  occ. eigenvalues --   -0.88083  -0.87926  -0.87900  -0.87880  -0.86114
 Alpha  occ. eigenvalues --   -0.86046  -0.86033  -0.86024  -0.84700  -0.84502
 Alpha  occ. eigenvalues --   -0.84456  -0.84429  -0.83196  -0.83092  -0.83038
 Alpha  occ. eigenvalues --   -0.83035  -0.82214  -0.82105  -0.82063  -0.81953
 Alpha  occ. eigenvalues --   -0.80513  -0.80416  -0.80402  -0.80285  -0.79632
 Alpha  occ. eigenvalues --   -0.79596  -0.79587  -0.79555  -0.76419  -0.76395
 Alpha  occ. eigenvalues --   -0.76359  -0.76308  -0.71772  -0.71580  -0.71537
 Alpha  occ. eigenvalues --   -0.71421  -0.71228  -0.71048  -0.71036  -0.70757
 Alpha  occ. eigenvalues --   -0.69812  -0.69552  -0.69524  -0.69433  -0.69215
 Alpha  occ. eigenvalues --   -0.69042  -0.69002  -0.68964  -0.67349  -0.67278
 Alpha  occ. eigenvalues --   -0.67264  -0.67211  -0.65199  -0.65189  -0.65160
 Alpha  occ. eigenvalues --   -0.65114  -0.64936  -0.64745  -0.64710  -0.64652
 Alpha  occ. eigenvalues --   -0.60680  -0.60497  -0.60046  -0.60004  -0.59957
 Alpha  occ. eigenvalues --   -0.59699  -0.59632  -0.59326  -0.58382  -0.58115
 Alpha  occ. eigenvalues --   -0.58066  -0.57941  -0.57789  -0.57655  -0.57403
 Alpha  occ. eigenvalues --   -0.57361  -0.57131  -0.56751  -0.56578  -0.56173
 Alpha  occ. eigenvalues --   -0.55892  -0.55846  -0.55772  -0.55680  -0.53597
 Alpha  occ. eigenvalues --   -0.53356  -0.53294  -0.53135  -0.52664  -0.52507
 Alpha  occ. eigenvalues --   -0.52248  -0.52185  -0.52032  -0.51503  -0.51197
 Alpha  occ. eigenvalues --   -0.51188  -0.51022  -0.50991  -0.50754  -0.50676
 Alpha  occ. eigenvalues --   -0.50601  -0.50499  -0.50389  -0.50059  -0.50031
 Alpha  occ. eigenvalues --   -0.49967  -0.49704  -0.49493  -0.49305  -0.49237
 Alpha  occ. eigenvalues --   -0.49098  -0.49068  -0.48954  -0.48758  -0.48468
 Alpha  occ. eigenvalues --   -0.48392  -0.48324  -0.48284  -0.47936  -0.47751
 Alpha  occ. eigenvalues --   -0.47707  -0.47693  -0.47601  -0.47579  -0.47269
 Alpha  occ. eigenvalues --   -0.47090  -0.46764  -0.46582  -0.46423  -0.46265
 Alpha  occ. eigenvalues --   -0.46176  -0.46076  -0.45947  -0.44758  -0.44700
 Alpha  occ. eigenvalues --   -0.44459  -0.43998  -0.43960  -0.43896  -0.43802
 Alpha  occ. eigenvalues --   -0.43757  -0.43685  -0.43455  -0.43321  -0.43267
 Alpha  occ. eigenvalues --   -0.43143  -0.43058  -0.42965  -0.42575  -0.42283
 Alpha  occ. eigenvalues --   -0.41961  -0.41725  -0.41584  -0.40865  -0.40626
 Alpha  occ. eigenvalues --   -0.40397  -0.40204  -0.40128  -0.40091  -0.39975
 Alpha  occ. eigenvalues --   -0.39629  -0.39593  -0.39586  -0.39470  -0.39382
 Alpha  occ. eigenvalues --   -0.39040  -0.38981  -0.38845  -0.38409  -0.38126
 Alpha  occ. eigenvalues --   -0.37774  -0.37681  -0.37288  -0.37001  -0.36937
 Alpha  occ. eigenvalues --   -0.36432  -0.36315  -0.36129  -0.35677  -0.35544
 Alpha  occ. eigenvalues --   -0.35287  -0.34913  -0.34470  -0.34152  -0.34113
 Alpha  occ. eigenvalues --   -0.34004  -0.33830  -0.33739  -0.33413  -0.32782
 Alpha  occ. eigenvalues --   -0.32352  -0.32057  -0.31908  -0.31818  -0.31742
 Alpha  occ. eigenvalues --   -0.31661  -0.31622  -0.31481  -0.31412  -0.31259
 Alpha  occ. eigenvalues --   -0.30926  -0.30702  -0.30026  -0.29846  -0.29796
 Alpha  occ. eigenvalues --   -0.29676  -0.29028  -0.28975  -0.28581  -0.28202
 Alpha  occ. eigenvalues --   -0.27926  -0.27768  -0.25380  -0.25277  -0.25116
 Alpha  occ. eigenvalues --   -0.24964
 Alpha virt. eigenvalues --   -0.10501  -0.10477  -0.10223  -0.10022  -0.08751
 Alpha virt. eigenvalues --   -0.08303  -0.07942  -0.07722  -0.07549  -0.07379
 Alpha virt. eigenvalues --   -0.06986  -0.06875  -0.06533  -0.06255  -0.06117

 Mulliken charges:
               1
     1  Pd   0.507239
     2  Pd   0.496999
     3  C    0.006479
     4  C   -0.056327
     5  C   -0.011909
     6  C    0.007466
     7  C    0.014221
     8  C    0.007558
     9  C    0.031487
    10  C   -0.015722
    11  C    0.146443
    12  N   -0.314667
    13  C    0.181694
    14  C   -0.014546
    15  H    0.042196
    16  H    0.056157
    17  H    0.041733
    18  H    0.053906
    19  H    0.107380
    20  H    0.080642
    21  C   -0.078078
    22  C    0.017075
    23  C   -0.018179
    24  C    0.020908
    25  C   -0.019348
    26  C    0.013945
    27  H    0.037252
    28  H    0.040290
    29  H    0.036188
    30  H    0.033867
    31  C   -0.036096
    32  C    0.069726
    33  C   -0.034326
    34  C    0.152011
    35  N   -0.309979
    36  C    0.153589
    37  H    0.063385
    38  H    0.068077
    39  H    0.100224
    40  H    0.096132
    41  C    0.020634
    42  C   -0.065952
    43  C   -0.018351
    44  C    0.009051
    45  C    0.014399
    46  C    0.008457
    47  C    0.027949
    48  C   -0.011653
    49  C    0.134951
    50  N   -0.323714
    51  C    0.180986
    52  C   -0.008290
    53  H    0.042303
    54  H    0.056283
    55  H    0.042052
    56  H    0.053925
    57  H    0.105000
    58  H    0.078770
    59  C   -0.081899
    60  C    0.019622
    61  C   -0.017172
    62  C    0.008754
    63  C   -0.021942
    64  C    0.018383
    65  H    0.037473
    66  H    0.040428
    67  H    0.040334
    68  H    0.032813
    69  C   -0.023222
    70  C    0.072128
    71  C   -0.036999
    72  C    0.156226
    73  N   -0.316344
    74  C    0.130972
    75  H    0.062782
    76  H    0.068938
    77  H    0.102170
    78  H    0.100263
    79  C    0.012560
    80  C   -0.063832
    81  C   -0.014180
    82  C    0.005867
    83  C    0.015350
    84  C    0.007987
    85  C    0.028761
    86  C   -0.017006
    87  C    0.144571
    88  N   -0.317198
    89  C    0.179258
    90  C   -0.003841
    91  H    0.042222
    92  H    0.056143
    93  H    0.041861
    94  H    0.053675
    95  H    0.085396
    96  H    0.089662
    97  C   -0.074474
    98  C    0.016266
    99  C   -0.027469
   100  C    0.021805
   101  C   -0.013466
   102  C    0.015658
   103  H    0.031699
   104  H    0.042761
   105  H    0.039734
   106  H    0.037631
   107  C   -0.029782
   108  C    0.071315
   109  C   -0.030810
   110  C    0.152032
   111  N   -0.314580
   112  C    0.140794
   113  H    0.063138
   114  H    0.068313
   115  H    0.113829
   116  H    0.077125
   117  C    0.012304
   118  C   -0.065351
   119  C   -0.012412
   120  C    0.005340
   121  C    0.015608
   122  C    0.007385
   123  C    0.028283
   124  C   -0.011078
   125  C    0.129557
   126  N   -0.321742
   127  C    0.183291
   128  C   -0.010903
   129  H    0.042325
   130  H    0.056045
   131  H    0.041969
   132  H    0.053776
   133  H    0.106921
   134  H    0.077254
   135  C   -0.072003
   136  C    0.013943
   137  C   -0.022132
   138  C    0.019544
   139  C   -0.009984
   140  C    0.015108
   141  H    0.032465
   142  H    0.030928
   143  H    0.039266
   144  H    0.038037
   145  C   -0.033055
   146  C    0.080865
   147  C   -0.039945
   148  C    0.157237
   149  N   -0.313081
   150  C    0.127671
   151  H    0.062261
   152  H    0.069357
   153  H    0.100240
   154  H    0.100329
 Sum of Mulliken charges =   4.00000

 Dipole moment (field-independent basis, Debye):
    X=              5.3231    Y=             -0.5810    Z=             -1.0011  Tot=              5.4475
 Quadrupole moment (field-independent basis, Debye-Ang):
   XX=            172.0465   YY=           -371.4855   ZZ=           -377.3036
   XY=            -30.8175   XZ=            -67.0156   YZ=              9.3471

 Normal termination of Gaussian 16 at Fri Feb 26 12:16:42 2021.
