 Gaussian 16, Revision C.01,
 Gaussian 16:  ES64L-G16RevC.01  3-Jul-2019

 ----------------------------------------------------------------------
 #P PBE1PBE/Def2SVP SP SCF=(YQC,MaxCycle=900) int=(Grid=Superfinegrid)
 EmpiricalDispersion=GD3BJ SCRF=(PCM,Solvent=DiMethylSulfoxide)
 ----------------------------------------------------------------------

 --------
 _s_4c3_b
 --------
 Symbolic Z-matrix:
 Charge =  4 Multiplicity = 1

                         Standard orientation:
 ---------------------------------------------------------------------
 Center     Atomic      Atomic             Coordinates (Angstroms)
 Number     Number       Type             X           Y           Z
 ---------------------------------------------------------------------
      1         46           0        6.254962    1.249816   -0.681170
      2         46           0       -7.094633   -1.747631    0.484555
      3          6           0       -5.471680    2.483443   -3.307144
      4          6           0       -5.961941    1.494324   -3.803172
      5          6           0       -6.638495    0.414455   -4.407778
      6          6           0       -6.882705    0.419073   -5.768232
      7          6           0       -7.665099   -0.577982   -6.362426
      8          6           0       -8.247086   -1.567590   -5.609673
      9          6           0       -8.024423   -1.613443   -4.221680
     10          6           0       -8.621277   -2.569278   -3.369191
     11          6           0       -8.355931   -2.550812   -2.029846
     12          7           0       -7.483237   -1.670131   -1.478360
     13          6           0       -6.915511   -0.756187   -2.242882
     14          6           0       -7.176381   -0.642776   -3.615558
     15          1           0       -6.477112    1.212757   -6.376750
     16          1           0       -7.830081   -0.545666   -7.428744
     17          1           0       -8.881956   -2.309887   -6.067213
     18          1           0       -9.294606   -3.302452   -3.783714
     19          1           0       -8.829966   -3.249229   -1.347907
     20          1           0       -6.214627   -0.066783   -1.777516
     21          6           0       -4.999844    3.719258   -2.810875
     22          6           0       -5.873643    4.818100   -2.913688
     23          6           0       -5.484361    6.080484   -2.526945
     24          6           0       -4.192826    6.239815   -2.043087
     25          7           0       -3.549031    7.383653   -1.652387
     26          6           0       -2.266752    7.080189   -1.296421
     27          6           0       -1.244966    7.925328   -0.879597
     28          6           0       -0.023741    7.363853   -0.588929
     29          6           0        0.189282    5.976322   -0.706306
     30          6           0       -0.834920    5.126827   -1.122925
     31          6           0       -2.066985    5.680900   -1.423811
     32          6           0       -3.308995    5.140455   -1.913288
     33          6           0       -3.717578    3.870458   -2.292723
     34          1           0       -6.862416    4.660355   -3.317002
     35          1           0       -6.155057    6.921043   -2.618969
     36          1           0       -3.940613    8.310139   -1.687786
     37          1           0       -1.403728    8.989740   -0.797108
     38          1           0        0.797724    7.989656   -0.275476
     39          1           0       -0.662025    4.067268   -1.214688
     40          1           0       -3.051146    3.026728   -2.219766
     41          6           0        1.473380    5.480056   -0.426292
     42          6           0        2.604541    5.109368   -0.208603
     43          6           0        3.940094    4.730161   -0.005328
     44          6           0        4.876844    5.636715    0.515842
     45          6           0        6.193317    5.242121    0.657040
     46          6           0        6.560868    3.958934    0.279493
     47          7           0        5.665468    3.094227   -0.208312
     48          6           0        4.390306    3.451314   -0.348895
     49          1           0        4.560376    6.629419    0.794268
     50          1           0        6.933575    5.919478    1.050899
     51          1           0        7.585536    3.604856    0.364126
     52          1           0        3.710366    2.704741   -0.754033
     53          6           0        3.523241   -2.034534   -4.828394
     54          6           0        3.845547   -0.915126   -5.154861
     55          6           0        4.297701    0.338009   -5.617927
     56          6           0        4.094061    0.708983   -6.933659
     57          6           0        4.634064    1.897228   -7.438987
     58          6           0        5.410409    2.713045   -6.654135
     59          6           0        5.641417    2.376940   -5.308097
     60          6           0        6.461647    3.142467   -4.449206
     61          6           0        6.637020    2.758540   -3.151253
     62          7           0        6.005822    1.676679   -2.626047
     63          6           0        5.244196    0.928065   -3.402310
     64          6           0        5.049670    1.199863   -4.765147
     65          1           0        3.523058    0.063225   -7.582995
     66          1           0        4.451487    2.156772   -8.470737
     67          1           0        5.854731    3.609241   -7.057447
     68          1           0        6.953597    4.022778   -4.830947
     69          1           0        7.291109    3.306138   -2.479900
     70          1           0        4.753501    0.069627   -2.949421
     71          6           0        3.209492   -3.371542   -4.497500
     72          6           0        4.084361   -4.377874   -4.946286
     73          6           0        3.840888   -5.708002   -4.682957
     74          6           0        2.695872   -6.028865   -3.965488
     75          7           0        2.219974   -7.257430   -3.588415
     76          6           0        1.032381   -7.099731   -2.931375
     77          6           0        0.182692   -8.062769   -2.397994
     78          6           0       -0.984105   -7.636350   -1.806121
     79          6           0       -1.310795   -6.267682   -1.737718
     80          6           0       -0.450459   -5.298559   -2.254735
     81          6           0        0.724511   -5.716239   -2.854706
     82          6           0        1.801106   -5.026370   -3.516023
     83          6           0        2.062791   -3.689880   -3.776065
     84          1           0        4.958386   -4.093365   -5.512175
     85          1           0        4.514678   -6.474837   -5.032884
     86          1           0        2.653955   -8.140205   -3.802085
     87          1           0        0.424003   -9.113265   -2.456463
     88          1           0       -1.671963   -8.358161   -1.392461
     89          1           0       -0.707828   -4.253217   -2.198591
     90          1           0        1.390623   -2.914885   -3.445006
     91          6           0       -2.540888   -5.895806   -1.168884
     92          6           0       -3.617999   -5.595971   -0.705583
     93          6           0       -4.885525   -5.286146   -0.188304
     94          6           0       -5.748548   -6.294569    0.269369
     95          6           0       -6.995912   -5.947232    0.752070
     96          6           0       -7.365344   -4.610560    0.775766
     97          7           0       -6.540384   -3.651708    0.343350
     98          6           0       -5.334811   -3.962468   -0.126114
     99          1           0       -5.431803   -7.325208    0.237025
    100          1           0       -7.679136   -6.701543    1.107365
    101          1           0       -8.336663   -4.290605    1.146715
    102          1           0       -4.711657   -3.139708   -0.471708
    103          6           0        4.668306   -3.926611    1.851710
    104          6           0        5.304152   -3.988938    0.823752
    105          6           0        6.165386   -4.123432   -0.284555
    106          6           0        6.591641   -5.378235   -0.679061
    107          6           0        7.563569   -5.529713   -1.674116
    108          6           0        8.148030   -4.437872   -2.266324
    109          6           0        7.741667   -3.142019   -1.901191
    110          6           0        8.329516   -1.970661   -2.429878
    111          6           0        7.892119   -0.743515   -2.022754
    112          7           0        6.859345   -0.598894   -1.152628
    113          6           0        6.290876   -1.670304   -0.630659
    114          6           0        6.711087   -2.974543   -0.931246
    115          1           0        6.181743   -6.251358   -0.195100
    116          1           0        7.872078   -6.524839   -1.956553
    117          1           0        8.925155   -4.557913   -3.004653
    118          1           0        9.133191   -2.056268   -3.143641
    119          1           0        8.350838    0.174323   -2.379307
    120          1           0        5.464603   -1.515401    0.059380
    121          6           0        4.058641   -3.898624    3.125789
    122          6           0        4.857738   -4.303425    4.212408
    123          6           0        4.367590   -4.308406    5.498713
    124          6           0        3.049998   -3.914075    5.691264
    125          7           0        2.329379   -3.840919    6.853613
    126          6           0        1.052719   -3.447580    6.568739
    127          6           0       -0.025481   -3.271823    7.428890
    128          6           0       -1.233361   -2.909087    6.880066
    129          6           0       -1.376275   -2.716041    5.491357
    130          6           0       -0.288164   -2.863454    4.630279
    131          6           0        0.932385   -3.232780    5.170547
    132          6           0        2.226003   -3.523629    4.606033
    133          6           0        2.737267   -3.505390    3.316145
    134          1           0        5.874684   -4.611671    4.023068
    135          1           0        4.985717   -4.616798    6.327820
    136          1           0        2.672705   -4.086530    7.767468
    137          1           0        0.077513   -3.430112    8.491597
    138          1           0       -2.095674   -2.778990    7.516080
    139          1           0       -0.406267   -2.712844    3.569398
    140          1           0        2.126397   -3.210694    2.478223
    141          6           0       -2.659718   -2.427247    4.995557
    142          6           0       -3.794171   -2.233818    4.620048
    143          6           0       -5.127298   -2.089112    4.203772
    144          6           0       -6.186331   -2.171825    5.122262
    145          6           0       -7.486379   -2.087367    4.661824
    146          6           0       -7.716553   -1.930403    3.302652
    147          7           0       -6.707477   -1.837116    2.432384
    148          6           0       -5.446903   -1.902829    2.855026
    149          1           0       -5.975900   -2.308729    6.171324
    150          1           0       -8.317885   -2.151674    5.344734
    151          1           0       -8.722484   -1.874792    2.894371
    152          1           0       -4.665560   -1.816257    2.102637
    153          6           0        2.737793    3.014669    3.545885
    154          6           0        3.505795    2.158461    3.922340
    155          6           0        4.518228    1.288593    4.379518
    156          6           0        4.607922    0.927439    5.709236
    157          6           0        5.719032    0.220654    6.186061
    158          6           0        6.766943   -0.104159    5.360464
    159          6           0        6.708538    0.223061    3.993585
    160          6           0        7.750878   -0.042593    3.077091
    161          6           0        7.613536    0.303798    1.762887
    162          7           0        6.469916    0.850088    1.276099
    163          6           0        5.479834    1.121968    2.106839
    164          6           0        5.553181    0.881421    3.485016
    165          1           0        3.826546    1.220434    6.393527
    166          1           0        5.759883   -0.041189    7.232452
    167          1           0        7.640938   -0.604971    5.745840
    168          1           0        8.658541   -0.508605    3.425920
    169          1           0        8.412533    0.148652    1.046210
    170          1           0        4.567502    1.544557    1.692350
    171          6           0        1.905659    4.103600    3.200536
    172          6           0        2.437403    5.394487    3.378017
    173          6           0        1.678145    6.520161    3.149280
    174          6           0        0.365404    6.343067    2.733814
    175          7           0       -0.602325    7.279615    2.483506
    176          6           0       -1.759519    6.649386    2.125426
    177          6           0       -3.000990    7.190308    1.811461
    178          6           0       -4.020691    6.324391    1.489346
    179          6           0       -3.814715    4.932467    1.470001
    180          6           0       -2.567934    4.387434    1.777139
    181          6           0       -1.538425    5.248142    2.111896
    182          6           0       -0.170947    5.050666    2.515401
    183          6           0        0.601695    3.923758    2.751923
    184          1           0        3.454817    5.493929    3.724567
    185          1           0        2.084905    7.506649    3.309036
    186          1           0       -0.495128    8.272628    2.607390
    187          1           0       -3.162425    8.257142    1.832729
    188          1           0       -5.001121    6.708030    1.251832
    189          1           0       -2.421055    3.320001    1.767155
    190          1           0        0.198803    2.933505    2.616172
    191          6           0       -4.893908    4.078476    1.188203
    192          6           0       -5.830240    3.336003    0.999160
    193          6           0       -6.892091    2.432874    0.836358
    194          6           0       -8.229571    2.850694    0.759234
    195          6           0       -9.225630    1.899868    0.640680
    196          6           0       -8.883441    0.555459    0.594442
    197          7           0       -7.609358    0.161842    0.655831
    198          6           0       -6.633540    1.059885    0.773683
    199          1           0       -8.466195    3.902427    0.799031
    200          1           0      -10.261799    2.192144    0.585680
    201          1           0       -9.632531   -0.226008    0.502262
    202          1           0       -5.612602    0.681872    0.825369
 ---------------------------------------------------------------------

 SCF Done:  E(RPBE1PBE) =  -5516.32031029     a.u. after   16 cycles
 SCF Done:  E(RPBE1PBE) =  -5516.32044637     A.U. after   10 cycles

 The electronic state is 1-A.
 Alpha  occ. eigenvalues --  -14.48869 -14.48845 -14.48810 -14.48807 -14.48412
 Alpha  occ. eigenvalues --  -14.48408 -14.48384 -14.48323 -14.45582 -14.45581
 Alpha  occ. eigenvalues --  -14.45280 -14.45254 -10.32292 -10.32254 -10.32191
 Alpha  occ. eigenvalues --  -10.32188 -10.32176 -10.32173 -10.32114 -10.32077
 Alpha  occ. eigenvalues --  -10.31749 -10.31714 -10.31635 -10.31631 -10.30869
 Alpha  occ. eigenvalues --  -10.30860 -10.30849 -10.30818 -10.30556 -10.30550
 Alpha  occ. eigenvalues --  -10.30477 -10.30437 -10.29644 -10.29632 -10.29630
 Alpha  occ. eigenvalues --  -10.29610 -10.29603 -10.29554 -10.29498 -10.29491
 Alpha  occ. eigenvalues --  -10.29231 -10.29216 -10.29157 -10.29152 -10.29047
 Alpha  occ. eigenvalues --  -10.29035 -10.29031 -10.29005 -10.29001 -10.28976
 Alpha  occ. eigenvalues --  -10.28941 -10.28941 -10.28925 -10.28889 -10.28803
 Alpha  occ. eigenvalues --  -10.28792 -10.28081 -10.28042 -10.28024 -10.28012
 Alpha  occ. eigenvalues --  -10.27733 -10.27716 -10.27705 -10.27659 -10.27310
 Alpha  occ. eigenvalues --  -10.27287 -10.27256 -10.27224 -10.27088 -10.27087
 Alpha  occ. eigenvalues --  -10.27083 -10.27035 -10.27026 -10.27017 -10.27011
 Alpha  occ. eigenvalues --  -10.26973 -10.26971 -10.26957 -10.26929 -10.26854
 Alpha  occ. eigenvalues --  -10.26753 -10.26751 -10.26749 -10.26687 -10.26424
 Alpha  occ. eigenvalues --  -10.26409 -10.26390 -10.26353 -10.26252 -10.26203
 Alpha  occ. eigenvalues --  -10.26202 -10.26058 -10.26052 -10.26021 -10.26005
 Alpha  occ. eigenvalues --  -10.26003 -10.25950 -10.25947 -10.25942 -10.25941
 Alpha  occ. eigenvalues --  -10.25939 -10.25924 -10.25916 -10.25872 -10.25856
 Alpha  occ. eigenvalues --  -10.25818 -10.25814 -10.25807 -10.25652 -10.25635
 Alpha  occ. eigenvalues --  -10.25615 -10.25589 -10.25576 -10.25560 -10.25531
 Alpha  occ. eigenvalues --  -10.25522 -10.25503 -10.25483 -10.25481 -10.25472
 Alpha  occ. eigenvalues --  -10.25449 -10.25412 -10.25401 -10.25381 -10.25370
 Alpha  occ. eigenvalues --  -10.25323 -10.25273 -10.25246 -10.25226 -10.25215
 Alpha  occ. eigenvalues --  -10.25210 -10.25127  -3.57312  -3.57207  -2.25289
 Alpha  occ. eigenvalues --   -2.25154  -2.25153  -2.25028  -2.20982  -2.20844
 Alpha  occ. eigenvalues --   -1.04227  -1.03955  -1.03568  -1.03482  -1.03288
 Alpha  occ. eigenvalues --   -1.03255  -1.03227  -1.02996  -1.02942  -1.02932
 Alpha  occ. eigenvalues --   -1.02901  -1.02826  -0.92611  -0.92532  -0.92523
 Alpha  occ. eigenvalues --   -0.92496  -0.90342  -0.90335  -0.90077  -0.89980
 Alpha  occ. eigenvalues --   -0.89975  -0.89968  -0.89760  -0.89544  -0.88469
 Alpha  occ. eigenvalues --   -0.88291  -0.88221  -0.88205  -0.85843  -0.85829
 Alpha  occ. eigenvalues --   -0.85791  -0.85756  -0.84304  -0.84197  -0.84143
 Alpha  occ. eigenvalues --   -0.84114  -0.83198  -0.83161  -0.83051  -0.82984
 Alpha  occ. eigenvalues --   -0.82888  -0.82833  -0.82706  -0.82685  -0.82237
 Alpha  occ. eigenvalues --   -0.82226  -0.82034  -0.81952  -0.80987  -0.80961
 Alpha  occ. eigenvalues --   -0.80857  -0.80700  -0.79687  -0.79672  -0.79497
 Alpha  occ. eigenvalues --   -0.79449  -0.77444  -0.77388  -0.77215  -0.77052
 Alpha  occ. eigenvalues --   -0.76096  -0.76048  -0.75823  -0.75771  -0.75321
 Alpha  occ. eigenvalues --   -0.75308  -0.75161  -0.75115  -0.71428  -0.71302
 Alpha  occ. eigenvalues --   -0.71185  -0.71159  -0.71118  -0.71090  -0.70975
 Alpha  occ. eigenvalues --   -0.70944  -0.69698  -0.69679  -0.69529  -0.69462
 Alpha  occ. eigenvalues --   -0.69321  -0.69153  -0.69073  -0.68957  -0.68854
 Alpha  occ. eigenvalues --   -0.68805  -0.68688  -0.68655  -0.67460  -0.67439
 Alpha  occ. eigenvalues --   -0.67354  -0.67265  -0.65757  -0.65727  -0.65575
 Alpha  occ. eigenvalues --   -0.65513  -0.64510  -0.64485  -0.64239  -0.64194
 Alpha  occ. eigenvalues --   -0.61973  -0.61931  -0.61794  -0.61671  -0.61573
 Alpha  occ. eigenvalues --   -0.61141  -0.61020  -0.60607  -0.60065  -0.59812
 Alpha  occ. eigenvalues --   -0.59748  -0.59664  -0.58199  -0.58104  -0.57981
 Alpha  occ. eigenvalues --   -0.57923  -0.57857  -0.57833  -0.57806  -0.57780
 Alpha  occ. eigenvalues --   -0.57600  -0.57531  -0.57328  -0.57282  -0.57004
 Alpha  occ. eigenvalues --   -0.56601  -0.56439  -0.56212  -0.56145  -0.56059
 Alpha  occ. eigenvalues --   -0.56016  -0.55903  -0.55685  -0.55681  -0.55427
 Alpha  occ. eigenvalues --   -0.55392  -0.54751  -0.54575  -0.54469  -0.54417
 Alpha  occ. eigenvalues --   -0.53054  -0.52989  -0.52911  -0.52822  -0.52019
 Alpha  occ. eigenvalues --   -0.51930  -0.51792  -0.51762  -0.51374  -0.51037
 Alpha  occ. eigenvalues --   -0.50872  -0.50777  -0.50726  -0.50714  -0.50680
 Alpha  occ. eigenvalues --   -0.50436  -0.50398  -0.50387  -0.50262  -0.49894
 Alpha  occ. eigenvalues --   -0.49845  -0.49742  -0.49528  -0.49436  -0.49264
 Alpha  occ. eigenvalues --   -0.49187  -0.49136  -0.49081  -0.48937  -0.48748
 Alpha  occ. eigenvalues --   -0.48623  -0.48304  -0.48170  -0.48079  -0.48018
 Alpha  occ. eigenvalues --   -0.47890  -0.47877  -0.47734  -0.47726  -0.47662
 Alpha  occ. eigenvalues --   -0.47479  -0.47460  -0.47368  -0.47362  -0.47288
 Alpha  occ. eigenvalues --   -0.47283  -0.47093  -0.47017  -0.46942  -0.46877
 Alpha  occ. eigenvalues --   -0.46862  -0.46852  -0.46829  -0.46606  -0.46591
 Alpha  occ. eigenvalues --   -0.46495  -0.45513  -0.45479  -0.45464  -0.45181
 Alpha  occ. eigenvalues --   -0.45118  -0.44587  -0.44534  -0.44314  -0.43735
 Alpha  occ. eigenvalues --   -0.43559  -0.43415  -0.43387  -0.43311  -0.43271
 Alpha  occ. eigenvalues --   -0.43136  -0.43014  -0.42976  -0.42887  -0.42758
 Alpha  occ. eigenvalues --   -0.42699  -0.42649  -0.42488  -0.42049  -0.41781
 Alpha  occ. eigenvalues --   -0.41699  -0.41661  -0.41576  -0.41464  -0.41454
 Alpha  occ. eigenvalues --   -0.41439  -0.41213  -0.41174  -0.41072  -0.40601
 Alpha  occ. eigenvalues --   -0.40469  -0.40386  -0.40163  -0.40053  -0.39703
 Alpha  occ. eigenvalues --   -0.39425  -0.39390  -0.39353  -0.39318  -0.39195
 Alpha  occ. eigenvalues --   -0.39029  -0.38296  -0.38245  -0.38214  -0.37975
 Alpha  occ. eigenvalues --   -0.37957  -0.37952  -0.37905  -0.37874  -0.37680
 Alpha  occ. eigenvalues --   -0.37582  -0.37475  -0.36894  -0.36868  -0.36780
 Alpha  occ. eigenvalues --   -0.36658  -0.36625  -0.36569  -0.36514  -0.36438
 Alpha  occ. eigenvalues --   -0.35624  -0.35353  -0.34520  -0.34386  -0.34146
 Alpha  occ. eigenvalues --   -0.34049  -0.33917  -0.33639  -0.33549  -0.33437
 Alpha  occ. eigenvalues --   -0.33325  -0.33048  -0.32747  -0.32503  -0.32441
 Alpha  occ. eigenvalues --   -0.32326  -0.32274  -0.32011  -0.31807  -0.31518
 Alpha  occ. eigenvalues --   -0.31476  -0.31436  -0.31276  -0.31110  -0.31038
 Alpha  occ. eigenvalues --   -0.30935  -0.30916  -0.30802  -0.30780  -0.30619
 Alpha  occ. eigenvalues --   -0.30074  -0.30016  -0.29744  -0.29476  -0.28844
 Alpha  occ. eigenvalues --   -0.28818  -0.27629  -0.27428  -0.27341  -0.26426
 Alpha  occ. eigenvalues --   -0.26179  -0.26018  -0.25962  -0.25907  -0.24682
 Alpha  occ. eigenvalues --   -0.24591  -0.24371  -0.24301  -0.23025  -0.22968
 Alpha  occ. eigenvalues --   -0.22912  -0.22375
 Alpha virt. eigenvalues --   -0.10000  -0.09829  -0.09761  -0.09685  -0.08715
 Alpha virt. eigenvalues --   -0.08474  -0.08269  -0.08121  -0.07228  -0.07131
 Alpha virt. eigenvalues --   -0.06931  -0.06788  -0.06711  -0.06274  -0.06088

 Mulliken charges:
               1
     1  Pd   0.473818
     2  Pd   0.491261
     3  C    0.028622
     4  C   -0.102389
     5  C   -0.012750
     6  C    0.004560
     7  C    0.013308
     8  C    0.005289
     9  C    0.035704
    10  C   -0.021453
    11  C    0.149316
    12  N   -0.323658
    13  C    0.176804
    14  C   -0.016109
    15  H    0.039607
    16  H    0.054818
    17  H    0.039895
    18  H    0.052465
    19  H    0.092203
    20  H    0.085739
    21  C   -0.080725
    22  C   -0.002729
    23  C   -0.051529
    24  C    0.110035
    25  N   -0.121871
    26  C    0.129997
    27  C   -0.052302
    28  C    0.016678
    29  C   -0.103301
    30  C   -0.015263
    31  C    0.024847
    32  C    0.048533
    33  C   -0.033247
    34  H    0.030004
    35  H    0.022614
    36  H    0.163310
    37  H    0.019577
    38  H    0.026681
    39  H    0.013035
    40  H    0.014774
    41  C    0.041775
    42  C   -0.027178
    43  C   -0.124915
    44  C    0.102231
    45  C   -0.032974
    46  C    0.141532
    47  N   -0.327187
    48  C    0.173183
    49  H    0.057626
    50  H    0.068852
    51  H    0.116794
    52  H    0.099373
    53  C    0.026383
    54  C   -0.097720
    55  C   -0.012944
    56  C    0.006278
    57  C    0.013865
    58  C    0.005858
    59  C    0.035921
    60  C   -0.019250
    61  C    0.143299
    62  N   -0.332500
    63  C    0.178662
    64  C   -0.016203
    65  H    0.040089
    66  H    0.055203
    67  H    0.040314
    68  H    0.053057
    69  H    0.099143
    70  H    0.093399
    71  C   -0.088899
    72  C    0.003001
    73  C   -0.049757
    74  C    0.120770
    75  N   -0.121040
    76  C    0.120008
    77  C   -0.045637
    78  C    0.004104
    79  C   -0.082942
    80  C   -0.032444
    81  C    0.020554
    82  C    0.020858
    83  C   -0.028985
    84  H    0.032311
    85  H    0.025631
    86  H    0.167037
    87  H    0.026869
    88  H    0.033924
    89  H    0.021852
    90  H    0.020167
    91  C    0.012176
    92  C   -0.031625
    93  C   -0.114778
    94  C    0.100923
    95  C   -0.031068
    96  C    0.140396
    97  N   -0.315857
    98  C    0.175559
    99  H    0.061654
   100  H    0.070207
   101  H    0.110663
   102  H    0.099184
   103  C    0.031092
   104  C   -0.101058
   105  C   -0.010431
   106  C    0.004587
   107  C    0.014045
   108  C    0.004437
   109  C    0.036919
   110  C   -0.017055
   111  C    0.141585
   112  N   -0.338283
   113  C    0.176382
   114  C   -0.014667
   115  H    0.040218
   116  H    0.055085
   117  H    0.040495
   118  H    0.053223
   119  H    0.107275
   120  H    0.094595
   121  C   -0.088533
   122  C    0.000554
   123  C   -0.047897
   124  C    0.117046
   125  N   -0.119798
   126  C    0.117328
   127  C   -0.044420
   128  C    0.002888
   129  C   -0.083585
   130  C   -0.029021
   131  C    0.019993
   132  C    0.020493
   133  C   -0.025934
   134  H    0.032986
   135  H    0.025958
   136  H    0.167098
   137  H    0.026935
   138  H    0.034124
   139  H    0.021708
   140  H    0.019784
   141  C    0.013021
   142  C   -0.029982
   143  C   -0.118387
   144  C    0.100688
   145  C   -0.035351
   146  C    0.148895
   147  N   -0.312709
   148  C    0.179249
   149  H    0.061689
   150  H    0.070109
   151  H    0.106516
   152  H    0.089085
   153  C    0.044099
   154  C   -0.113817
   155  C   -0.011183
   156  C    0.007283
   157  C    0.012715
   158  C    0.005718
   159  C    0.039395
   160  C   -0.021325
   161  C    0.143333
   162  N   -0.333012
   163  C    0.177436
   164  C   -0.020873
   165  H    0.039837
   166  H    0.054973
   167  H    0.039931
   168  H    0.052950
   169  H    0.101485
   170  H    0.087883
   171  C   -0.082950
   172  C    0.005437
   173  C   -0.053195
   174  C    0.119574
   175  N   -0.117232
   176  C    0.107154
   177  C   -0.020969
   178  C    0.002398
   179  C   -0.074410
   180  C   -0.048260
   181  C    0.051187
   182  C    0.037479
   183  C   -0.034289
   184  H    0.029656
   185  H    0.021103
   186  H    0.162944
   187  H    0.019272
   188  H    0.026610
   189  H    0.013715
   190  H    0.014534
   191  C    0.031884
   192  C   -0.035166
   193  C   -0.121361
   194  C    0.105528
   195  C   -0.035345
   196  C    0.148294
   197  N   -0.314360
   198  C    0.165869
   199  H    0.059720
   200  H    0.069437
   201  H    0.111883
   202  H    0.095104
 Sum of Mulliken charges =   4.00000

 Dipole moment (field-independent basis, Debye):
    X=             -4.6632    Y=             -1.2041    Z=              1.1767  Tot=              4.9578
 Quadrupole moment (field-independent basis, Debye-Ang):
   XX=            148.7543   YY=           -329.7272   ZZ=           -491.1888
   XY=             70.9025   XZ=            -30.7402   YZ=            -13.5672

 Normal termination of Gaussian 16 at Fri Feb 26 12:35:21 2021.
