 Gaussian 16, Revision C.01,
 Gaussian 16:  ES64L-G16RevC.01  3-Jul-2019

 ----------------------------------------------------------------------
 #P PBE1PBE/Def2SVP SP SCF=(YQC,MaxCycle=900) int=(Grid=Superfinegrid)
 EmpiricalDispersion=GD3BJ SCRF=(PCM,Solvent=DiMethylSulfoxide)
 ----------------------------------------------------------------------

 --------
 _s_4b3_a
 --------
 Symbolic Z-matrix:
 Charge =  4 Multiplicity = 1

                         Standard orientation:
 ---------------------------------------------------------------------
 Center     Atomic      Atomic             Coordinates (Angstroms)
 Number     Number       Type             X           Y           Z
 ---------------------------------------------------------------------
      1         46           0        5.916561   -0.022641    0.000477
      2         46           0       -7.876577   -0.001617   -0.006025
      3          6           0        1.775779    3.674118   -3.098375
      4          6           0        2.950501    3.557633   -3.366501
      5          6           0        4.279171    3.547992   -3.829509
      6          6           0        4.600472    4.376859   -4.892761
      7          6           0        5.893613    4.417018   -5.419246
      8          6           0        6.887223    3.628039   -4.895754
      9          6           0        6.606888    2.771996   -3.816477
     10          6           0        7.591706    1.940607   -3.238339
     11          6           0        7.268603    1.139045   -2.184821
     12          7           0        6.016562    1.100169   -1.657984
     13          6           0        5.066831    1.854715   -2.177087
     14          6           0        5.293567    2.719818   -3.262497
     15          1           0        3.833362    5.004698   -5.319195
     16          1           0        6.104616    5.076862   -6.246702
     17          1           0        7.886520    3.654402   -5.300601
     18          1           0        8.594141    1.951191   -3.635409
     19          1           0        8.012807    0.488359   -1.727564
     20          1           0        4.081459    1.786888   -1.725696
     21          6           0        0.394858    3.778419   -2.843652
     22          6           0       -0.168037    3.307384   -1.652594
     23          6           0       -1.531360    3.363913   -1.466082
     24          6           0       -2.359531    3.894681   -2.463516
     25          6           0       -1.793501    4.408807   -3.634822
     26          6           0       -0.429975    4.349169   -3.822173
     27          1           0        0.470737    2.894382   -0.888228
     28          1           0       -1.973940    2.994655   -0.554616
     29          1           0       -2.429791    4.833725   -4.396205
     30          1           0        0.009079    4.729131   -4.732078
     31          6           0       -3.756401    3.830304   -2.297537
     32          6           0       -4.950043    3.691144   -2.158207
     33          6           0       -6.296848    3.346268   -1.932750
     34          6           0       -7.395548    4.073542   -2.408388
     35          6           0       -8.670436    3.606412   -2.138344
     36          6           0       -8.836339    2.431804   -1.416714
     37          7           0       -7.786833    1.741558   -0.966111
     38          6           0       -6.552837    2.180993   -1.205675
     39          1           0       -7.243161    4.979442   -2.974264
     40          1           0       -9.536149    4.145012   -2.488698
     41          1           0       -9.817797    2.027807   -1.191213
     42          1           0       -5.721148    1.592406   -0.816603
     43          6           0        1.754646   -3.126667   -3.677399
     44          6           0        2.928529   -3.397309   -3.559156
     45          6           0        4.255495   -3.865425   -3.548366
     46          6           0        4.570548   -4.936155   -4.369803
     47          6           0        5.861447   -5.467990   -4.409555
     48          6           0        6.859244   -4.941785   -3.627705
     49          6           0        6.585403   -3.854980   -2.779192
     50          6           0        7.574810   -3.273973   -1.955491
     51          6           0        7.257732   -2.213671   -1.160424
     52          7           0        6.007437   -1.682634   -1.120828
     53          6           0        5.053761   -2.203656   -1.868926
     54          6           0        5.274223   -3.295884   -2.727076
     55          1           0        3.800090   -5.364551   -4.992330
     56          1           0        6.067470   -6.301296   -5.063583
     57          1           0        7.857094   -5.350353   -3.653854
     58          1           0        8.575980   -3.674363   -1.966555
     59          1           0        8.005992   -1.754318   -0.515791
     60          1           0        4.070051   -1.748573   -1.801354
     61          6           0        0.374516   -2.868192   -3.783791
     62          6           0       -0.452325   -3.845675   -4.353427
     63          6           0       -1.815254   -3.654519   -4.415491
     64          6           0       -2.378531   -2.480465   -3.904767
     65          6           0       -1.548163   -1.484084   -3.375217
     66          6           0       -0.185569   -1.674404   -3.316259
     67          1           0       -0.015416   -4.757713   -4.730865
     68          1           0       -2.453150   -4.415000   -4.839562
     69          1           0       -1.988692   -0.570473   -3.009022
     70          1           0        0.454995   -0.911030   -2.904277
     71          6           0       -3.774929   -2.310083   -3.841917
     72          6           0       -4.968152   -2.166503   -3.703163
     73          6           0       -6.313534   -1.935345   -3.356642
     74          6           0       -7.415585   -2.405666   -4.082218
     75          6           0       -8.688400   -2.129755   -3.612846
     76          6           0       -8.848972   -1.407509   -2.437694
     77          7           0       -7.796301   -0.961872   -1.749153
     78          6           0       -6.564228   -1.207120   -2.190922
     79          1           0       -7.267410   -2.972091   -4.988412
     80          1           0       -9.556620   -2.475981   -4.149977
     81          1           0       -9.828835   -1.177685   -2.032111
     82          1           0       -5.729556   -0.821994   -1.603738
     83          6           0        1.742393   -3.654698    3.146650
     84          6           0        2.916214   -3.534632    3.416814
     85          6           0        4.243039   -3.522074    3.885125
     86          6           0        4.553300   -4.326230    4.970300
     87          6           0        5.844453   -4.365540    5.501682
     88          6           0        6.847372   -3.600649    4.960397
     89          6           0        6.578150   -2.769316    3.859265
     90          6           0        7.572760   -1.962954    3.263055
     91          6           0        7.259521   -1.182163    2.191152
     92          7           0        6.008190   -1.140369    1.662756
     93          6           0        5.050179   -1.873805    2.196549
     94          6           0        5.266578   -2.717109    3.301122
     95          1           0        3.778985   -4.935872    5.410056
     96          1           0        6.046673   -5.005952    6.346435
     97          1           0        7.845518   -3.627099    5.368059
     98          1           0        8.574760   -1.975570    3.661374
     99          1           0        8.011836   -0.551066    1.719824
    100          1           0        4.066008   -1.805471    1.742453
    101          6           0        0.362248   -3.764393    2.889092
    102          6           0       -0.193550   -3.341247    1.676961
    103          6           0       -1.556011   -3.403836    1.485466
    104          6           0       -2.390030   -3.892889    2.499339
    105          6           0       -1.831045   -4.359457    3.693607
    106          6           0       -0.468490   -4.293806    3.885720
    107          1           0        0.449845   -2.960989    0.899683
    108          1           0       -1.993308   -3.072254    0.557167
    109          1           0       -2.472020   -4.752282    4.468136
    110          1           0       -0.034763   -4.637195    4.812624
    111          6           0       -3.786187   -3.831523    2.325499
    112          6           0       -4.979146   -3.693880    2.179276
    113          6           0       -6.323802   -3.346570    1.944212
    114          6           0       -7.427629   -4.063111    2.423896
    115          6           0       -8.699194   -3.592210    2.144725
    116          6           0       -8.856605   -2.423717    1.411151
    117          7           0       -7.802191   -1.743769    0.956583
    118          6           0       -6.571251   -2.188024    1.203734
    119          1           0       -7.281917   -4.963697    2.999971
    120          1           0       -9.568885   -4.122714    2.497729
    121          1           0       -9.835337   -2.016639    1.179145
    122          1           0       -5.735154   -1.608591    0.810256
    123          6           0        1.760078    3.135209    3.636956
    124          6           0        2.934313    3.402987    3.515925
    125          6           0        4.262581    3.867350    3.501817
    126          6           0        4.577229    4.951870    4.305094
    127          6           0        5.870174    5.479072    4.342604
    128          6           0        6.870423    4.934206    3.576687
    129          6           0        6.596662    3.833877    2.745933
    130          6           0        7.588301    3.234285    1.938350
    131          6           0        7.270431    2.163258    1.157992
    132          7           0        6.017254    1.639125    1.118125
    133          6           0        5.062023    2.176076    1.852760
    134          6           0        5.283191    3.279976    2.695764
    135          1           0        3.805124    5.394398    4.915613
    136          1           0        6.075992    6.323281    4.982566
    137          1           0        7.869994    5.338696    3.601800
    138          1           0        8.591468    3.629283    1.949514
    139          1           0        8.020038    1.689182    0.525769
    140          1           0        4.076309    1.725208    1.785662
    141          6           0        0.379377    2.880804    3.747661
    142          6           0       -0.176651    1.661709    3.345434
    143          6           0       -1.539475    1.472502    3.408652
    144          6           0       -2.373514    2.495685    3.877491
    145          6           0       -1.814481    3.697757    4.323639
    146          6           0       -0.451590    3.887521    4.257280
    147          1           0        0.466915    0.876941    2.980800
    148          1           0       -1.976812    0.538606    3.093089
    149          1           0       -2.455610    4.479873    4.700905
    150          1           0       -0.017730    4.820115    4.584688
    151          6           0       -3.769851    2.323374    3.816427
    152          6           0       -4.963145    2.178902    3.679385
    153          6           0       -6.308901    1.946983    3.334285
    154          6           0       -7.410023    2.432633    4.051115
    155          6           0       -8.683347    2.157265    3.582645
    156          6           0       -8.845056    1.421606    2.416153
    157          7           0       -7.793264    0.961120    1.736020
    158          6           0       -6.560785    1.204267    2.178066
    159          1           0       -7.260699    3.010490    4.949900
    160          1           0       -9.550834    2.514849    4.113395
    161          1           0       -9.825107    1.192502    2.010705
    162          1           0       -5.727031    0.805732    1.598738
 ---------------------------------------------------------------------

 SCF Done:  E(RPBE1PBE) =  -4377.36866919     a.u. after   27 cycles
 SCF Done:  E(RPBE1PBE) =  -4377.36869341     A.U. after    8 cycles

 The electronic state is 1-A.
 Alpha  occ. eigenvalues --  -14.49280 -14.49272 -14.49271 -14.49268 -14.48609
 Alpha  occ. eigenvalues --  -14.48604 -14.48600 -14.48597 -10.32740 -10.32737
 Alpha  occ. eigenvalues --  -10.32736 -10.32733 -10.32569 -10.32567 -10.32565
 Alpha  occ. eigenvalues --  -10.32563 -10.32165 -10.32163 -10.32162 -10.32160
 Alpha  occ. eigenvalues --  -10.31081 -10.31079 -10.31077 -10.31075 -10.30994
 Alpha  occ. eigenvalues --  -10.30992 -10.30990 -10.30989 -10.29928 -10.29927
 Alpha  occ. eigenvalues --  -10.29927 -10.29926 -10.29534 -10.29532 -10.29530
 Alpha  occ. eigenvalues --  -10.29528 -10.29300 -10.29299 -10.29299 -10.29298
 Alpha  occ. eigenvalues --  -10.29162 -10.29159 -10.29158 -10.29158 -10.28728
 Alpha  occ. eigenvalues --  -10.28727 -10.28727 -10.28726 -10.28722 -10.28721
 Alpha  occ. eigenvalues --  -10.28721 -10.28720 -10.28424 -10.28422 -10.28422
 Alpha  occ. eigenvalues --  -10.28421 -10.27863 -10.27862 -10.27861 -10.27861
 Alpha  occ. eigenvalues --  -10.27337 -10.27335 -10.27334 -10.27334 -10.27117
 Alpha  occ. eigenvalues --  -10.27117 -10.27115 -10.27115 -10.27080 -10.27078
 Alpha  occ. eigenvalues --  -10.27078 -10.27077 -10.26924 -10.26923 -10.26923
 Alpha  occ. eigenvalues --  -10.26922 -10.26692 -10.26692 -10.26691 -10.26690
 Alpha  occ. eigenvalues --  -10.26635 -10.26634 -10.26633 -10.26632 -10.26622
 Alpha  occ. eigenvalues --  -10.26620 -10.26620 -10.26620 -10.26619 -10.26618
 Alpha  occ. eigenvalues --  -10.26618 -10.26618 -10.26617 -10.26615 -10.26614
 Alpha  occ. eigenvalues --  -10.26614 -10.26539 -10.26539 -10.26537 -10.26537
 Alpha  occ. eigenvalues --  -10.26309 -10.26306 -10.26305 -10.26304  -3.57837
 Alpha  occ. eigenvalues --   -3.57407  -2.25739  -2.25738  -2.25269  -2.25266
 Alpha  occ. eigenvalues --   -2.21563  -2.21148  -1.04746  -1.04022  -1.04021
 Alpha  occ. eigenvalues --   -1.03941  -1.03822  -1.03119  -1.03116  -1.03010
 Alpha  occ. eigenvalues --   -0.92865  -0.92762  -0.92761  -0.92760  -0.92086
 Alpha  occ. eigenvalues --   -0.92080  -0.92079  -0.92077  -0.89072  -0.88855
 Alpha  occ. eigenvalues --   -0.88817  -0.88817  -0.86288  -0.86229  -0.86229
 Alpha  occ. eigenvalues --   -0.86220  -0.85171  -0.85057  -0.85056  -0.85015
 Alpha  occ. eigenvalues --   -0.84290  -0.84192  -0.84191  -0.84086  -0.83222
 Alpha  occ. eigenvalues --   -0.83006  -0.83004  -0.83004  -0.81551  -0.81452
 Alpha  occ. eigenvalues --   -0.81451  -0.81320  -0.79675  -0.79670  -0.79669
 Alpha  occ. eigenvalues --   -0.79664  -0.78949  -0.78897  -0.78896  -0.78824
 Alpha  occ. eigenvalues --   -0.76208  -0.76163  -0.76163  -0.76105  -0.72124
 Alpha  occ. eigenvalues --   -0.71966  -0.71966  -0.71766  -0.71575  -0.71232
 Alpha  occ. eigenvalues --   -0.71232  -0.71102  -0.69960  -0.69596  -0.69592
 Alpha  occ. eigenvalues --   -0.69592  -0.69531  -0.69268  -0.69267  -0.69238
 Alpha  occ. eigenvalues --   -0.68301  -0.68171  -0.68166  -0.68166  -0.66209
 Alpha  occ. eigenvalues --   -0.66141  -0.66140  -0.66120  -0.65530  -0.65524
 Alpha  occ. eigenvalues --   -0.65524  -0.65519  -0.62498  -0.61626  -0.61060
 Alpha  occ. eigenvalues --   -0.61060  -0.60554  -0.60047  -0.60042  -0.60041
 Alpha  occ. eigenvalues --   -0.58644  -0.58471  -0.58429  -0.58415  -0.58414
 Alpha  occ. eigenvalues --   -0.58098  -0.58098  -0.57948  -0.57438  -0.57181
 Alpha  occ. eigenvalues --   -0.56856  -0.56747  -0.56747  -0.56468  -0.56174
 Alpha  occ. eigenvalues --   -0.56174  -0.55955  -0.55868  -0.55868  -0.55751
 Alpha  occ. eigenvalues --   -0.54424  -0.54197  -0.54197  -0.54009  -0.52837
 Alpha  occ. eigenvalues --   -0.52424  -0.52424  -0.52383  -0.52136  -0.51479
 Alpha  occ. eigenvalues --   -0.51473  -0.51461  -0.51460  -0.51395  -0.51296
 Alpha  occ. eigenvalues --   -0.51246  -0.51021  -0.50971  -0.50589  -0.50589
 Alpha  occ. eigenvalues --   -0.50025  -0.49983  -0.49842  -0.49561  -0.49561
 Alpha  occ. eigenvalues --   -0.49471  -0.49468  -0.49118  -0.49114  -0.48959
 Alpha  occ. eigenvalues --   -0.48514  -0.48509  -0.48508  -0.48309  -0.47983
 Alpha  occ. eigenvalues --   -0.47977  -0.47577  -0.47558  -0.47557  -0.47543
 Alpha  occ. eigenvalues --   -0.47287  -0.47170  -0.47038  -0.47037  -0.46476
 Alpha  occ. eigenvalues --   -0.46463  -0.46462  -0.46452  -0.46130  -0.45514
 Alpha  occ. eigenvalues --   -0.44491  -0.44490  -0.44294  -0.43912  -0.43896
 Alpha  occ. eigenvalues --   -0.43894  -0.43847  -0.43716  -0.43716  -0.43595
 Alpha  occ. eigenvalues --   -0.43595  -0.43574  -0.43424  -0.42758  -0.42753
 Alpha  occ. eigenvalues --   -0.42329  -0.42027  -0.41824  -0.41823  -0.41772
 Alpha  occ. eigenvalues --   -0.41671  -0.41623  -0.41598  -0.41597  -0.41455
 Alpha  occ. eigenvalues --   -0.40256  -0.40032  -0.39800  -0.39799  -0.39640
 Alpha  occ. eigenvalues --   -0.39639  -0.39500  -0.39455  -0.39415  -0.39203
 Alpha  occ. eigenvalues --   -0.39178  -0.39175  -0.38923  -0.38714  -0.38065
 Alpha  occ. eigenvalues --   -0.38062  -0.37290  -0.37144  -0.37143  -0.36963
 Alpha  occ. eigenvalues --   -0.36580  -0.36578  -0.35649  -0.35422  -0.35414
 Alpha  occ. eigenvalues --   -0.35313  -0.34698  -0.34611  -0.34609  -0.34073
 Alpha  occ. eigenvalues --   -0.34071  -0.33763  -0.33760  -0.33474  -0.32404
 Alpha  occ. eigenvalues --   -0.32150  -0.32091  -0.32042  -0.32039  -0.31585
 Alpha  occ. eigenvalues --   -0.31582  -0.31521  -0.31465  -0.31375  -0.31351
 Alpha  occ. eigenvalues --   -0.31350  -0.30779  -0.30529  -0.30390  -0.30369
 Alpha  occ. eigenvalues --   -0.30309  -0.29914  -0.29908  -0.29903  -0.29898
 Alpha  occ. eigenvalues --   -0.29337  -0.29053  -0.27933  -0.27799  -0.27796
 Alpha  occ. eigenvalues --   -0.27584  -0.24507  -0.24467  -0.24463  -0.24365
 Alpha virt. eigenvalues --   -0.10879  -0.10874  -0.10850  -0.10561  -0.09004
 Alpha virt. eigenvalues --   -0.08898  -0.08897  -0.08305  -0.07969  -0.07621
 Alpha virt. eigenvalues --   -0.07539  -0.07536  -0.07053  -0.06406  -0.06306

 Mulliken charges:
               1
     1  Pd   0.519221
     2  Pd   0.530360
     3  C    0.026612
     4  C   -0.075035
     5  C   -0.013787
     6  C    0.003704
     7  C    0.016521
     8  C    0.007267
     9  C    0.029268
    10  C   -0.011612
    11  C    0.128272
    12  N   -0.320156
    13  C    0.183760
    14  C   -0.004666
    15  H    0.042769
    16  H    0.056162
    17  H    0.042108
    18  H    0.053551
    19  H    0.098931
    20  H    0.081894
    21  C   -0.072233
    22  C    0.016605
    23  C    0.015443
    24  C   -0.080066
    25  C    0.022350
    26  C    0.011434
    27  H    0.035453
    28  H    0.035964
    29  H    0.040310
    30  H    0.040856
    31  C    0.020801
    32  C   -0.007206
    33  C   -0.118098
    34  C    0.117305
    35  C   -0.039240
    36  C    0.161611
    37  N   -0.311004
    38  C    0.165825
    39  H    0.064520
    40  H    0.073639
    41  H    0.105793
    42  H    0.092020
    43  C    0.026853
    44  C   -0.075420
    45  C   -0.013601
    46  C    0.003460
    47  C    0.016531
    48  C    0.007188
    49  C    0.029338
    50  C   -0.011886
    51  C    0.128521
    52  N   -0.319850
    53  C    0.183953
    54  C   -0.004858
    55  H    0.042809
    56  H    0.056146
    57  H    0.042119
    58  H    0.053588
    59  H    0.098498
    60  H    0.081814
    61  C   -0.072188
    62  C    0.011309
    63  C    0.022384
    64  C   -0.080099
    65  C    0.015479
    66  C    0.016686
    67  H    0.040899
    68  H    0.040299
    69  H    0.035924
    70  H    0.035453
    71  C    0.021067
    72  C   -0.007507
    73  C   -0.118030
    74  C    0.117417
    75  C   -0.039369
    76  C    0.161631
    77  N   -0.310658
    78  C    0.165520
    79  H    0.064464
    80  H    0.073611
    81  H    0.105745
    82  H    0.092298
    83  C    0.027062
    84  C   -0.075609
    85  C   -0.013709
    86  C    0.003519
    87  C    0.016502
    88  C    0.007200
    89  C    0.029312
    90  C   -0.012095
    91  C    0.128751
    92  N   -0.319953
    93  C    0.183799
    94  C   -0.004614
    95  H    0.042784
    96  H    0.056150
    97  H    0.042100
    98  H    0.053630
    99  H    0.098512
   100  H    0.081829
   101  C   -0.072424
   102  C    0.016848
   103  C    0.015503
   104  C   -0.080307
   105  C    0.022371
   106  C    0.011287
   107  H    0.035433
   108  H    0.036002
   109  H    0.040310
   110  H    0.040905
   111  C    0.021365
   112  C   -0.007689
   113  C   -0.118172
   114  C    0.117433
   115  C   -0.039447
   116  C    0.161705
   117  N   -0.310714
   118  C    0.165622
   119  H    0.064537
   120  H    0.073682
   121  H    0.105755
   122  H    0.092332
   123  C    0.026929
   124  C   -0.075410
   125  C   -0.013738
   126  C    0.003592
   127  C    0.016495
   128  C    0.007099
   129  C    0.029344
   130  C   -0.011766
   131  C    0.128457
   132  N   -0.320318
   133  C    0.183562
   134  C   -0.004414
   135  H    0.042807
   136  H    0.056156
   137  H    0.042155
   138  H    0.053543
   139  H    0.099231
   140  H    0.081900
   141  C   -0.072562
   142  C    0.016815
   143  C    0.015584
   144  C   -0.080498
   145  C    0.022360
   146  C    0.011331
   147  H    0.035478
   148  H    0.036033
   149  H    0.040326
   150  H    0.040876
   151  C    0.021152
   152  C   -0.007264
   153  C   -0.118514
   154  C    0.117451
   155  C   -0.039166
   156  C    0.161663
   157  N   -0.310985
   158  C    0.165966
   159  H    0.064530
   160  H    0.073605
   161  H    0.105853
   162  H    0.092077
 Sum of Mulliken charges =   4.00000

 Dipole moment (field-independent basis, Debye):
    X=            -13.2685    Y=              0.0226    Z=             -0.0274  Tot=             13.2685
 Quadrupole moment (field-independent basis, Debye-Ang):
   XX=            441.3252   YY=           -413.4169   ZZ=           -414.5362
   XY=             -0.5915   XZ=              0.1630   YZ=             -0.1833

 Normal termination of Gaussian 16 at Fri Feb 26 14:55:28 2021.
