 Gaussian 16, Revision C.01,
 Gaussian 16:  ES64L-G16RevC.01  3-Jul-2019

 ------------------------------------------------------------------
 # SP PBE1PBE/def2svp empiricaldispersion=GD3BJ scrf=(solvent=dmso)
 ------------------------------------------------------------------

 -----------
 trans_l2_lc
 -----------
 Symbolic Z-matrix:
 Charge =  4 Multiplicity = 1

                         Standard orientation:
 ---------------------------------------------------------------------
 Center     Atomic      Atomic             Coordinates (Angstroms)
 Number     Number       Type             X           Y           Z
 ---------------------------------------------------------------------
      1         46           0        6.135904   -2.333590    0.183905
      2         46           0       -6.135796   -2.333709   -0.183895
      3          6           0       -0.126491   -5.744900    4.816505
      4          6           0       -1.330692   -5.300301    4.276205
      5          6           0       -1.332793   -4.300301    3.294605
      6          6           0       -0.112694   -3.764600    2.866405
      7          6           0        1.103407   -4.230498    3.379105
      8          6           0        1.084608   -5.225898    4.366405
      9          6           0        2.370206   -3.715496    2.821905
     10          6           0        2.496004   -2.386396    2.392305
     11          6           0        3.652603   -1.975694    1.751305
     12          7           0        4.674505   -2.813792    1.523605
     13          6           0        4.605106   -4.069692    1.989005
     14          6           0        3.482207   -4.549994    2.643005
     15          6           0       -2.582394   -3.833503    2.661905
     16          6           0       -3.606893   -4.720005    2.304005
     17          6           0       -4.699293   -4.255407    1.586005
     18          7           0       -4.820195   -2.967607    1.236105
     19          6           0       -3.886897   -2.089205    1.635205
     20          6           0       -2.763996   -2.481304    2.341105
     21          1           0       -0.131690   -6.508600    5.596705
     22          1           0       -2.274291   -5.719403    4.632105
     23          1           0       -0.108195   -3.021900    2.065605
     24          1           0        2.020609   -5.588096    4.796505
     25          1           0        1.692903   -1.664297    2.543605
     26          1           0        3.760002   -0.949794    1.392605
     27          1           0        5.465907   -4.713791    1.798105
     28          1           0        3.464109   -5.593994    2.957705
     29          1           0       -3.535891   -5.785305    2.527305
     30          1           0       -5.485092   -4.934408    1.249605
     31          1           0       -4.038898   -1.043906    1.357605
     32          1           0       -2.030897   -1.728203    2.631905
     33          6           0        0.126709   -5.745699   -4.815895
     34          6           0       -1.084392   -5.226701   -4.365895
     35          6           0       -1.103193   -4.231101   -3.378695
     36          6           0        0.112906   -3.765099   -2.866095
     37          6           0        1.333007   -4.300797   -3.294295
     38          6           0        1.330808   -5.300897   -4.275695
     39          6           0        2.582606   -3.833896   -2.661695
     40          6           0        3.607107   -4.720294   -2.303595
     41          6           0        4.699407   -4.255492   -1.585695
     42          7           0        4.820305   -2.967592   -1.235995
     43          6           0        3.887003   -2.089294   -1.635295
     44          6           0        2.764104   -2.481495   -2.341095
     45          6           0       -2.369994   -3.716103   -2.821695
     46          6           0       -2.495896   -2.386903   -2.392195
     47          6           0       -3.652497   -1.976105   -1.751295
     48          7           0       -4.674395   -2.814207   -1.523495
     49          6           0       -4.604994   -4.070106   -1.988695
     50          6           0       -3.482093   -4.550505   -2.642595
     51          1           0        0.131910   -6.509499   -5.595995
     52          1           0       -2.020491   -5.589003   -4.795895
     53          1           0        0.108405   -3.022299   -2.065495
     54          1           0        2.274509   -5.720096   -4.631495
     55          1           0        3.536009   -5.785594   -2.526695
     56          1           0        5.485308   -4.934391   -1.249095
     57          1           0        4.038902   -1.043993   -1.357895
     58          1           0        2.031003   -1.728596   -2.632095
     59          1           0       -1.692797   -1.664902   -2.543595
     60          1           0       -3.759898   -0.950205   -1.392795
     61          1           0       -5.465793   -4.714208   -1.797695
     62          1           0       -3.463991   -5.594605   -2.957095
     63          6           0       -9.378797   -1.578414   -2.838995
     64          6           0       -9.264799   -0.194214   -3.125095
     65          6           0       -8.098601    0.486988   -2.661795
     66          6           0       -7.907003    1.876689   -2.949295
     67          6           0       -8.922304    2.547187   -3.607095
     68          6           0      -10.090603    1.880085   -4.036295
     69          6           0      -10.257201    0.530285   -3.825695
     70          6           0       -6.648704    2.570790   -2.600795
     71          6           0       -6.659806    3.816090   -1.954595
     72          6           0       -5.476507    4.492892   -1.683995
     73          6           0       -4.239106    3.939794   -2.059395
     74          6           0       -3.005207    4.611896   -1.845795
     75          6           0       -1.899708    5.121398   -1.751195
     76          6           0       -0.568908    5.570400   -1.693295
     77          6           0       -0.046810    6.851900   -1.609995
     78          6           0        1.363190    6.877403   -1.611395
     79          6           0        1.926992    5.614403   -1.697695
     80          6           0        3.264692    5.188206   -1.770395
     81          6           0        4.353393    4.646907   -1.882895
     82          6           0        5.515394    3.859609   -2.107195
     83          6           0        6.806894    4.243511   -1.706795
     84          6           0        7.889595    3.398813   -1.926795
     85          6           0        7.716997    2.153912   -2.548295
     86          6           0        8.849998    1.229014   -2.761895
     87          6           0        8.760200   -0.135986   -2.338495
     88          6           0        9.808002   -1.056885   -2.638895
     89          6           0        9.645704   -2.400485   -2.215495
     90          6           0        8.539904   -2.767486   -1.496195
     91          7           0        7.584803   -1.858888   -1.152795
     92          6           0        7.683601   -0.606888   -1.558195
     93          6           0       10.958601   -0.596083   -3.320995
     94          6           0       11.056499    0.732217   -3.668395
     95          6           0       10.008498    1.639116   -3.394295
     96          6           0        6.430098    1.788910   -2.977295
     97          6           0        5.346096    2.621609   -2.758595
     98         16           0        0.699894    4.389502   -1.768895
     99          6           0       -4.224704    2.684994   -2.699895
    100          6           0       -5.409603    2.017992   -2.967395
    101          6           0       -7.196499   -0.243410   -1.861595
    102          7           0       -7.357497   -1.525011   -1.585195
    103          6           0       -8.420896   -2.208112   -2.089895
    104          1           0      -10.238697   -2.143615   -3.201695
    105          1           0       -8.799505    3.607887   -3.836395
    106          1           0      -10.859404    2.447084   -4.565695
    107          1           0      -11.148300    0.010584   -4.183095
    108          1           0       -7.612106    4.254589   -1.648195
    109          1           0       -5.501008    5.458892   -1.176995
    110          1           0       -0.678012    7.738200   -1.550095
    111          1           0        1.962288    7.786204   -1.555795
    112          1           0        6.955592    5.202111   -1.207095
    113          1           0        8.883595    3.697614   -1.586095
    114          1           0       10.409205   -3.144184   -2.448795
    115          1           0        8.386106   -3.790587   -1.149795
    116          1           0        6.899100    0.079711   -1.236095
    117          1           0       11.760002   -1.299282   -3.555495
    118          1           0       11.948099    1.094519   -4.184695
    119          1           0       10.099596    2.676816   -3.722295
    120          1           0        6.280499    0.842610   -3.502295
    121          1           0        4.350897    2.326007   -3.095195
    122          1           0       -3.271803    2.250296   -3.007095
    123          1           0       -5.375201    1.067092   -3.503995
    124          1           0       -6.338400    0.258091   -1.409795
    125          1           0       -8.478295   -3.269112   -1.844195
    126          6           0       -9.645596   -2.400414    2.215505
    127          6           0       -9.807898   -1.056814    2.638805
    128          6           0       -8.760100   -0.135913    2.338305
    129          6           0       -8.850002    1.229087    2.761605
    130          6           0      -10.008502    1.639185    3.394005
    131          6           0      -11.056401    0.732384    3.668205
    132          6           0      -10.958499   -0.596016    3.320805
    133          6           0       -7.717003    2.153989    2.548005
    134          6           0       -6.430102    1.788991    2.977005
    135          6           0       -5.346104    2.621792    2.758305
    136          6           0       -5.515506    3.859892    2.106905
    137          6           0       -4.353507    4.647194    1.882805
    138          6           0       -3.264808    5.188496    1.770205
    139          6           0       -1.927108    5.614698    1.697405
    140          6           0       -1.363310    6.877698    1.610905
    141          6           0        0.046690    6.852201    1.609505
    142          6           0        0.568792    5.570601    1.693005
    143          6           0        1.899492    5.121703    1.750905
    144          6           0        3.004993    4.612105    1.845605
    145          6           0        4.238894    3.940007    2.059205
    146          6           0        4.224496    2.685107    2.699705
    147          6           0        5.409397    2.018209    2.967205
    148          6           0        6.648496    2.571011    2.600805
    149          6           0        7.906797    1.877013    2.949405
    150          6           0        8.098499    0.487313    2.661905
    151          6           0        9.264701   -0.193985    3.125305
    152          6           0        9.378703   -1.578085    2.839205
    153          6           0        8.420904   -2.207887    2.089905
    154          7           0        7.357503   -1.524788    1.585105
    155          6           0        7.196501   -0.243188    1.861605
    156          6           0       10.256999    0.530616    3.826105
    157          6           0       10.090297    1.880416    4.036605
    158          6           0        8.921996    2.547514    3.607305
    159          6           0        6.659594    3.816311    1.954605
    160          6           0        5.476293    4.493109    1.684005
    161         16           0       -0.700106    4.389799    1.768605
    162          6           0       -6.807006    4.243690    1.706605
    163          6           0       -7.889705    3.398989    1.926505
    164          6           0       -7.683499   -0.606811    1.558105
    165          7           0       -7.584697   -1.858911    1.152705
    166          6           0       -8.539696   -2.767512    1.496205
    167          1           0      -10.409095   -3.144215    2.448905
    168          1           0      -10.099604    2.676885    3.722005
    169          1           0      -11.948001    1.094682    4.184405
    170          1           0      -11.759898   -1.299217    3.555405
    171          1           0       -6.280501    0.842791    3.502005
    172          1           0       -4.350903    2.326194    3.095005
    173          1           0       -1.962412    7.786498    1.555305
    174          1           0        0.677888    7.738402    1.549605
    175          1           0        3.271497    2.250506    3.006805
    176          1           0        5.374899    1.067309    3.503805
    177          1           0       10.238603   -2.143284    3.201905
    178          1           0        8.478405   -3.268787    1.844205
    179          1           0        6.338400    0.258310    1.409705
    180          1           0       11.148000    0.010918    4.183505
    181          1           0       10.858996    2.447417    4.566105
    182          1           0        8.799195    3.608114    3.836605
    183          1           0        7.611894    4.254912    1.648305
    184          1           0        5.500892    5.459109    1.176905
    185          1           0       -6.955708    5.202290    1.207005
    186          1           0       -8.883605    3.697687    1.585905
    187          1           0       -6.899000    0.079790    1.235905
    188          1           0       -8.385894   -3.790612    1.150005
 ---------------------------------------------------------------------

 SCF Done:  E(RPBE1PBE) =  -5637.23149763     A.U. after   17 cycles

 The electronic state is 1-A.
 Alpha  occ. eigenvalues --  -89.05611 -89.05608 -14.48305 -14.48305 -14.48296
 Alpha  occ. eigenvalues --  -14.48296 -14.48244 -14.48243 -14.48221 -14.48220
 Alpha  occ. eigenvalues --  -10.32256 -10.32256 -10.32166 -10.32165 -10.31949
 Alpha  occ. eigenvalues --  -10.31948 -10.31895 -10.31895 -10.31888 -10.31887
 Alpha  occ. eigenvalues --  -10.31865 -10.31864 -10.30862 -10.30862 -10.30858
 Alpha  occ. eigenvalues --  -10.30857 -10.30407 -10.30406 -10.30355 -10.30354
 Alpha  occ. eigenvalues --  -10.30281 -10.30281 -10.30215 -10.30211 -10.29026
 Alpha  occ. eigenvalues --  -10.29026 -10.28995 -10.28994 -10.28867 -10.28866
 Alpha  occ. eigenvalues --  -10.28813 -10.28812 -10.28568 -10.28568 -10.28544
 Alpha  occ. eigenvalues --  -10.28544 -10.28537 -10.28537 -10.28483 -10.28483
 Alpha  occ. eigenvalues --  -10.28296 -10.28296 -10.28288 -10.28287 -10.28264
 Alpha  occ. eigenvalues --  -10.28264 -10.28238 -10.28238 -10.28145 -10.28145
 Alpha  occ. eigenvalues --  -10.28121 -10.28120 -10.27817 -10.27817 -10.27791
 Alpha  occ. eigenvalues --  -10.27789 -10.27563 -10.27563 -10.27530 -10.27529
 Alpha  occ. eigenvalues --  -10.27376 -10.27375 -10.27112 -10.27111 -10.27107
 Alpha  occ. eigenvalues --  -10.27107 -10.27007 -10.27006 -10.26993 -10.26992
 Alpha  occ. eigenvalues --  -10.26889 -10.26889 -10.26881 -10.26880 -10.26746
 Alpha  occ. eigenvalues --  -10.26746 -10.26737 -10.26736 -10.26559 -10.26558
 Alpha  occ. eigenvalues --  -10.26512 -10.26511 -10.26505 -10.26505 -10.26487
 Alpha  occ. eigenvalues --  -10.26486 -10.26473 -10.26472 -10.26472 -10.26468
 Alpha  occ. eigenvalues --  -10.26466 -10.26460 -10.26442 -10.26442 -10.26400
 Alpha  occ. eigenvalues --  -10.26398 -10.26387 -10.26387 -10.26347 -10.26347
 Alpha  occ. eigenvalues --  -10.26323 -10.26323 -10.26280 -10.26280 -10.26276
 Alpha  occ. eigenvalues --  -10.26275 -10.26188 -10.26186  -8.05707  -8.05704
 Alpha  occ. eigenvalues --   -5.99854  -5.99853  -5.99460  -5.99459  -5.99126
 Alpha  occ. eigenvalues --   -5.99123  -3.56794  -3.56793  -2.24794  -2.24793
 Alpha  occ. eigenvalues --   -2.24445  -2.24445  -2.20491  -2.20490  -1.03322
 Alpha  occ. eigenvalues --   -1.03319  -1.02787  -1.02786  -1.02600  -1.02596
 Alpha  occ. eigenvalues --   -1.02397  -1.02397  -0.93725  -0.93301  -0.92529
 Alpha  occ. eigenvalues --   -0.92525  -0.92463  -0.92459  -0.92458  -0.92438
 Alpha  occ. eigenvalues --   -0.90455  -0.90440  -0.90367  -0.90354  -0.88885
 Alpha  occ. eigenvalues --   -0.88765  -0.86352  -0.86223  -0.85587  -0.85502
 Alpha  occ. eigenvalues --   -0.85475  -0.85402  -0.83582  -0.83390  -0.82824
 Alpha  occ. eigenvalues --   -0.82789  -0.82781  -0.82684  -0.82564  -0.82527
 Alpha  occ. eigenvalues --   -0.82410  -0.82292  -0.82150  -0.81984  -0.81411
 Alpha  occ. eigenvalues --   -0.81249  -0.79623  -0.79535  -0.79445  -0.79442
 Alpha  occ. eigenvalues --   -0.79420  -0.79377  -0.78847  -0.78846  -0.78690
 Alpha  occ. eigenvalues --   -0.78689  -0.78121  -0.78052  -0.78022  -0.77694
 Alpha  occ. eigenvalues --   -0.75970  -0.75889  -0.73718  -0.73710  -0.70732
 Alpha  occ. eigenvalues --   -0.70677  -0.70621  -0.70528  -0.70512  -0.70381
 Alpha  occ. eigenvalues --   -0.70310  -0.70301  -0.69295  -0.69215  -0.69091
 Alpha  occ. eigenvalues --   -0.69035  -0.69030  -0.68861  -0.68762  -0.68616
 Alpha  occ. eigenvalues --   -0.68085  -0.68029  -0.67464  -0.67416  -0.65027
 Alpha  occ. eigenvalues --   -0.64952  -0.64616  -0.64493  -0.64245  -0.64211
 Alpha  occ. eigenvalues --   -0.64171  -0.64134  -0.63329  -0.63219  -0.63140
 Alpha  occ. eigenvalues --   -0.63062  -0.62504  -0.62346  -0.61126  -0.61036
 Alpha  occ. eigenvalues --   -0.60339  -0.59837  -0.58515  -0.58192  -0.58002
 Alpha  occ. eigenvalues --   -0.57971  -0.57943  -0.57500  -0.57429  -0.57247
 Alpha  occ. eigenvalues --   -0.57080  -0.57018  -0.56892  -0.56689  -0.56638
 Alpha  occ. eigenvalues --   -0.56570  -0.56074  -0.55983  -0.55840  -0.55827
 Alpha  occ. eigenvalues --   -0.55601  -0.55544  -0.55431  -0.55331  -0.54982
 Alpha  occ. eigenvalues --   -0.54851  -0.54265  -0.54081  -0.52314  -0.52096
 Alpha  occ. eigenvalues --   -0.51823  -0.51623  -0.51599  -0.51425  -0.51328
 Alpha  occ. eigenvalues --   -0.51022  -0.51001  -0.50888  -0.50627  -0.50601
 Alpha  occ. eigenvalues --   -0.50528  -0.50441  -0.50140  -0.50106  -0.49976
 Alpha  occ. eigenvalues --   -0.49908  -0.49844  -0.49804  -0.49594  -0.49389
 Alpha  occ. eigenvalues --   -0.49315  -0.49163  -0.49119  -0.48925  -0.48696
 Alpha  occ. eigenvalues --   -0.48668  -0.48651  -0.48498  -0.48323  -0.48257
 Alpha  occ. eigenvalues --   -0.48181  -0.48080  -0.47768  -0.47667  -0.47572
 Alpha  occ. eigenvalues --   -0.47569  -0.47438  -0.47008  -0.46901  -0.46717
 Alpha  occ. eigenvalues --   -0.46713  -0.46631  -0.46511  -0.46424  -0.46328
 Alpha  occ. eigenvalues --   -0.46286  -0.46023  -0.45814  -0.45777  -0.45744
 Alpha  occ. eigenvalues --   -0.45541  -0.45448  -0.45329  -0.45297  -0.45292
 Alpha  occ. eigenvalues --   -0.44537  -0.44445  -0.44308  -0.44265  -0.43567
 Alpha  occ. eigenvalues --   -0.43369  -0.43165  -0.43080  -0.43066  -0.43034
 Alpha  occ. eigenvalues --   -0.42862  -0.42769  -0.42563  -0.42527  -0.42489
 Alpha  occ. eigenvalues --   -0.42083  -0.42014  -0.42004  -0.41920  -0.41797
 Alpha  occ. eigenvalues --   -0.41716  -0.41710  -0.41633  -0.41585  -0.41488
 Alpha  occ. eigenvalues --   -0.41465  -0.41391  -0.40580  -0.40417  -0.40215
 Alpha  occ. eigenvalues --   -0.40210  -0.39984  -0.39979  -0.39109  -0.39056
 Alpha  occ. eigenvalues --   -0.38577  -0.38540  -0.38407  -0.38405  -0.38319
 Alpha  occ. eigenvalues --   -0.38195  -0.38160  -0.38076  -0.37921  -0.37846
 Alpha  occ. eigenvalues --   -0.37733  -0.37720  -0.37716  -0.37444  -0.37212
 Alpha  occ. eigenvalues --   -0.36719  -0.36405  -0.36187  -0.35974  -0.35862
 Alpha  occ. eigenvalues --   -0.35662  -0.35434  -0.34997  -0.34840  -0.34305
 Alpha  occ. eigenvalues --   -0.34299  -0.34071  -0.33889  -0.33648  -0.33608
 Alpha  occ. eigenvalues --   -0.33415  -0.33294  -0.33209  -0.33109  -0.32317
 Alpha  occ. eigenvalues --   -0.32228  -0.31978  -0.31748  -0.31341  -0.31314
 Alpha  occ. eigenvalues --   -0.31228  -0.31018  -0.30935  -0.30910  -0.30766
 Alpha  occ. eigenvalues --   -0.30687  -0.30154  -0.29783  -0.29768  -0.29358
 Alpha  occ. eigenvalues --   -0.29136  -0.29126  -0.29031  -0.28841  -0.28826
 Alpha  occ. eigenvalues --   -0.28629  -0.28614  -0.28393  -0.28287  -0.28248
 Alpha  occ. eigenvalues --   -0.28077  -0.27421  -0.26831  -0.26595  -0.25706
 Alpha  occ. eigenvalues --   -0.25544  -0.22553  -0.22495
 Alpha virt. eigenvalues --   -0.10088  -0.09724  -0.09614  -0.09305  -0.09098
 Alpha virt. eigenvalues --   -0.09006  -0.08890  -0.08828  -0.08426  -0.07916
 Alpha virt. eigenvalues --   -0.07549  -0.06988  -0.06380  -0.06376  -0.06002

 Mulliken charges:
               1
     1  Pd   0.497317
     2  Pd   0.497291
     3  C   -0.022247
     4  C   -0.007876
     5  C    0.008485
     6  C   -0.032333
     7  C    0.018112
     8  C   -0.015557
     9  C    0.062901
    10  C   -0.051382
    11  C    0.149061
    12  N   -0.316866
    13  C    0.150591
    14  C   -0.042474
    15  C    0.053455
    16  C   -0.037833
    17  C    0.152437
    18  N   -0.320008
    19  C    0.145169
    20  C   -0.042855
    21  H    0.054683
    22  H    0.050102
    23  H    0.046894
    24  H    0.050755
    25  H    0.067324
    26  H    0.096529
    27  H    0.109262
    28  H    0.067970
    29  H    0.068025
    30  H    0.104364
    31  H    0.105917
    32  H    0.066805
    33  C   -0.022227
    34  C   -0.015564
    35  C    0.018074
    36  C   -0.032286
    37  C    0.008511
    38  C   -0.007941
    39  C    0.053367
    40  C   -0.037749
    41  C    0.152417
    42  N   -0.320045
    43  C    0.145229
    44  C   -0.042776
    45  C    0.062882
    46  C   -0.051371
    47  C    0.149111
    48  N   -0.316838
    49  C    0.150568
    50  C   -0.042507
    51  H    0.054681
    52  H    0.050802
    53  H    0.046846
    54  H    0.050139
    55  H    0.068008
    56  H    0.104405
    57  H    0.105873
    58  H    0.066765
    59  H    0.067284
    60  H    0.096493
    61  H    0.109268
    62  H    0.067983
    63  C   -0.031137
    64  C    0.028143
    65  C   -0.023038
    66  C    0.055409
    67  C   -0.028287
    68  C    0.004570
    69  C   -0.006110
    70  C   -0.041171
    71  C   -0.012029
    72  C    0.012779
    73  C   -0.085166
    74  C   -0.018419
    75  C    0.037720
    76  C   -0.213078
    77  C    0.061863
    78  C    0.023540
    79  C   -0.198487
    80  C    0.046789
    81  C   -0.031064
    82  C   -0.078638
    83  C    0.011353
    84  C   -0.009370
    85  C   -0.047095
    86  C    0.052970
    87  C   -0.025787
    88  C    0.029699
    89  C   -0.031748
    90  C    0.134593
    91  N   -0.317191
    92  C    0.145215
    93  C   -0.005914
    94  C    0.003445
    95  C   -0.025275
    96  C   -0.046361
    97  C    0.000960
    98  S    0.187065
    99  C    0.001219
   100  C   -0.042466
   101  C    0.128400
   102  N   -0.317622
   103  C    0.138440
   104  H    0.060492
   105  H    0.047901
   106  H    0.060096
   107  H    0.047122
   108  H    0.040886
   109  H    0.040241
   110  H    0.048398
   111  H    0.048678
   112  H    0.042860
   113  H    0.041875
   114  H    0.060054
   115  H    0.099981
   116  H    0.107948
   117  H    0.046814
   118  H    0.060190
   119  H    0.046739
   120  H    0.053857
   121  H    0.039571
   122  H    0.039060
   123  H    0.052822
   124  H    0.110623
   125  H    0.098359
   126  C   -0.031856
   127  C    0.029769
   128  C   -0.025744
   129  C    0.052964
   130  C   -0.025247
   131  C    0.003468
   132  C   -0.005971
   133  C   -0.047144
   134  C   -0.046328
   135  C    0.000936
   136  C   -0.078645
   137  C   -0.031039
   138  C    0.046795
   139  C   -0.198504
   140  C    0.023552
   141  C    0.061923
   142  C   -0.213148
   143  C    0.037651
   144  C   -0.018323
   145  C   -0.085209
   146  C    0.001241
   147  C   -0.042463
   148  C   -0.041119
   149  C    0.055459
   150  C   -0.023078
   151  C    0.028147
   152  C   -0.031191
   153  C    0.138509
   154  N   -0.317653
   155  C    0.128372
   156  C   -0.006018
   157  C    0.004587
   158  C   -0.028242
   159  C   -0.012063
   160  C    0.012730
   161  S    0.187099
   162  C    0.011381
   163  C   -0.009254
   164  C    0.145178
   165  N   -0.317226
   166  C    0.134629
   167  H    0.060108
   168  H    0.046736
   169  H    0.060166
   170  H    0.046829
   171  H    0.053825
   172  H    0.039601
   173  H    0.048678
   174  H    0.048356
   175  H    0.039068
   176  H    0.052813
   177  H    0.060493
   178  H    0.098322
   179  H    0.110637
   180  H    0.047077
   181  H    0.060089
   182  H    0.047852
   183  H    0.040892
   184  H    0.040263
   185  H    0.042830
   186  H    0.041803
   187  H    0.107968
   188  H    0.099958
 Sum of Mulliken charges =   4.00000

 Dipole moment (field-independent basis, Debye):
    X=              0.0005    Y=            -37.3840    Z=              0.0016  Tot=             37.3840
 Quadrupole moment (field-independent basis, Debye-Ang):
   XX=            282.4296   YY=           -434.2233   ZZ=           -591.8478
   XY=             -0.0025   XZ=             16.6272   YZ=             -0.0006

 Normal termination of Gaussian 16 at Sat Jun  3 03:21:52 2023.
