 Gaussian 16, Revision C.01,
 Gaussian 16:  ES64L-G16RevC.01  3-Jul-2019

 --------------------------------------
 # SP B97D3/def2svp scrf=(solvent=dmso)
 --------------------------------------

 -----
 m2_lb
 -----
 Symbolic Z-matrix:
 Charge =  4 Multiplicity = 1

                         Standard orientation:
 ---------------------------------------------------------------------
 Center     Atomic      Atomic             Coordinates (Angstroms)
 Number     Number       Type             X           Y           Z
 ---------------------------------------------------------------------
      1         46           0        9.173969   -0.540003    1.013008
      2         46           0       -9.141030   -1.333027    0.289008
      3          6           0       11.487972   -2.845000   -1.734992
      4          6           0       11.084971   -1.908000   -0.820992
      5          7           0        9.768971   -1.737002   -0.512992
      6          6           0        8.848972   -2.476003   -1.104992
      7          6           0        9.160973   -3.489003   -2.033992
      8          6           0        8.143974   -4.297004   -2.633992
      9          6           0        6.731974   -4.042006   -2.264992
     10          6           0        6.283974   -4.227007   -0.947992
     11          6           0        5.032973   -3.770008   -0.550992
     12          6           0        4.202973   -3.106009   -1.470992
     13          6           0        3.011972   -2.433011   -1.077992
     14          6           0        2.054971   -1.719012   -0.838992
     15          6           0        1.034969   -0.728014   -0.696992
     16          7           0        0.119970   -0.859015    0.271008
     17          6           0       -0.810032    0.096984    0.388008
     18          6           0       -1.790032   -0.010017    1.424008
     19          6           0       -2.694032    0.039981    2.238008
     20          6           0       -3.827032    0.225980    3.079008
     21          6           0       -4.164034    1.527980    3.490008
     22          6           0       -5.371034    1.770978    4.134008
     23          6           0       -6.272033    0.725977    4.377008
     24          6           0       -7.645033    1.021975    4.844008
     25          6           0       -7.901034    1.668975    6.036008
     26          6           0       -9.224034    1.950973    6.447008
     27          6           0      -10.304034    1.593971    5.672008
     28          6           0      -10.091033    0.947972    4.431008
     29          6           0      -11.146032    0.561970    3.565008
     30          6           0      -10.870031   -0.049029    2.370008
     31          7           0       -9.589031   -0.285028    1.973008
     32          6           0       -8.579032    0.076974    2.746008
     33          6           0       -8.756032    0.673973    4.010008
     34          6           0       -5.885031   -0.587023    4.060008
     35          6           0       -4.679030   -0.839021    3.421008
     36          6           0       -0.869033    1.213984   -0.459992
     37          6           0        0.089967    1.347985   -1.455992
     38          6           0        1.059968    0.363986   -1.581992
     39          6           0        4.614972   -3.005009   -2.812992
     40          6           0        5.862973   -3.470007   -3.202992
     41          6           0        8.521975   -5.234004   -3.571992
     42          6           0        9.881976   -5.417002   -3.913992
     43          6           0       10.874975   -4.663001   -3.328992
     44          6           0       10.533973   -3.676001   -2.374992
     45          1           0       12.549972   -2.951998   -1.964992
     46          1           0       11.794970   -1.262999   -0.300992
     47          1           0        7.810971   -2.279005   -0.832992
     48          1           0        6.940975   -4.702006   -0.214992
     49          1           0        4.712974   -3.884009    0.486008
     50          1           0       -3.490035    2.352980    3.247008
     51          1           0       -5.649035    2.793978    4.399008
     52          1           0       -7.067034    1.949976    6.683008
     53          1           0       -9.385035    2.453973    7.403008
     54          1           0      -11.324034    1.803970    5.998008
     55          1           0      -12.183033    0.747969    3.848008
     56          1           0      -11.659031   -0.369030    1.688008
     57          1           0       -7.576031   -0.111025    2.362008
     58          1           0       -6.556030   -1.419024    4.289008
     59          1           0       -4.411029   -1.859021    3.143008
     60          1           0       -1.649034    1.962983   -0.319992
     61          1           0        0.073965    2.231985   -2.099992
     62          1           0        1.826968    0.411987   -2.353992
     63          1           0        3.964972   -2.506010   -3.533992
     64          1           0        6.195973   -3.336007   -4.233992
     65          1           0        7.759976   -5.855005   -4.047992
     66          1           0       10.143977   -6.177002   -4.653992
     67          1           0       11.922975   -4.812999   -3.593992
     68          6           0        8.906974   -4.424003    2.773008
     69          6           0        9.357973   -3.267003    2.196008
     70          7           0        8.531971   -2.202004    2.000008
     71          6           0        7.274971   -2.253005    2.406008
     72          6           0        6.723973   -3.378006    3.054008
     73          6           0        5.363973   -3.415008    3.502008
     74          6           0        4.485971   -2.226009    3.419008
     75          6           0        4.861970   -0.996009    3.984008
     76          6           0        4.036968    0.116990    3.880008
     77          6           0        2.807968    0.029989    3.199008
     78          6           0        2.011967    1.190988    2.982008
     79          6           0        1.373966    2.192987    2.713008
     80          6           0        0.728964    3.400986    2.296008
     81          7           0       -0.539036    3.321984    1.879008
     82          6           0       -1.117037    4.422984    1.386008
     83          6           0       -2.470037    4.298982    0.927008
     84          6           0       -3.616037    4.207980    0.523008
     85          6           0       -4.947037    4.101979    0.023008
     86          6           0       -5.266038    4.602978   -1.250992
     87          6           0       -6.548037    4.459976   -1.762992
     88          6           0       -7.561037    3.831975   -1.019992
     89          6           0       -8.913036    3.692973   -1.606992
     90          6           0       -9.489038    4.768972   -2.257992
     91          6           0      -10.775038    4.692971   -2.832992
     92          6           0      -11.514036    3.535970   -2.758992
     93          6           0      -10.971035    2.401971   -2.109992
     94          6           0      -11.682033    1.180970   -2.001992
     95          6           0      -11.118032    0.111970   -1.359992
     96          7           0       -9.864032    0.183972   -0.836992
     97          6           0       -9.156033    1.294973   -0.943992
     98          6           0       -9.660035    2.469972   -1.541992
     99          6           0       -7.251036    3.380975    0.274008
    100          6           0       -5.964036    3.497977    0.783008
    101          6           0       -0.453039    5.657984    1.295008
    102          6           0        0.852961    5.740986    1.765008
    103          6           0        1.458962    4.602987    2.282008
    104          6           0        2.408970   -1.211012    2.670008
    105          6           0        3.238972   -2.318011    2.784008
    106          6           0        4.878975   -4.605008    4.012008
    107          6           0        5.701976   -5.746007    4.138008
    108          6           0        7.024976   -5.711006    3.761008
    109          6           0        7.560974   -4.526005    3.206008
    110          1           0        9.585975   -5.269002    2.892008
    111          1           0       10.387973   -3.155001    1.856008
    112          1           0        6.652970   -1.381006    2.200008
    113          1           0        5.807970   -0.911007    4.525008
    114          1           0        4.344967    1.067991    4.320008
    115          1           0       -4.492038    5.085979   -1.845992
    116          1           0       -6.764038    4.823976   -2.768992
    117          1           0       -8.945039    5.714973   -2.306992
    118          1           0      -11.188039    5.573970   -3.328992
    119          1           0      -12.515036    3.475968   -3.189992
    120          1           0      -12.683033    1.091968   -2.424992
    121          1           0      -11.640030   -0.840030   -1.245992
    122          1           0       -8.145033    1.272974   -0.535992
    123          1           0       -8.029035    2.949974    0.906008
    124          1           0       -5.742036    3.123977    1.783008
    125          1           0       -0.961040    6.521984    0.866008
    126          1           0        1.399960    6.684987    1.717008
    127          1           0        2.487962    4.619988    2.645008
    128          1           0        1.462970   -1.288013    2.129008
    129          1           0        2.926973   -3.267011    2.342008
    130          1           0        3.842975   -4.654010    4.354008
    131          1           0        5.278977   -6.660008    4.559008
    132          1           0        7.666977   -6.585005    3.877008
    133          6           0        8.697967    1.044997    4.915008
    134          6           0        9.093968    0.344997    3.809008
    135          7           0        8.565968    0.599996    2.579008
    136          6           0        7.641966    1.533995    2.431008
    137          6           0        7.144965    2.294995    3.510008
    138          6           0        6.141964    3.301993    3.346008
    139          6           0        5.446964    3.574992    2.066008
    140          6           0        5.328962    4.900992    1.620008
    141          6           0        4.498962    5.223991    0.556008
    142          6           0        3.744963    4.222990   -0.082992
    143          6           0        2.715962    4.590989   -0.993992
    144          6           0        1.740962    4.946987   -1.632992
    145          6           0        0.509961    5.351986   -2.235992
    146          7           0       -0.366037    4.379985   -2.507992
    147          6           0       -1.575038    4.705983   -2.978992
    148          6           0       -2.470036    3.611982   -3.196992
    149          6           0       -3.189035    2.637981   -3.323992
    150          6           0       -3.948033    1.442980   -3.477992
    151          6           0       -3.272032    0.210981   -3.544992
    152          6           0       -3.983030   -0.964020   -3.728992
    153          6           0       -5.381030   -0.960022   -3.827992
    154          6           0       -6.078029   -2.245023   -4.061992
    155          6           0       -5.644027   -3.076022   -5.079992
    156          6           0       -6.266026   -4.315023   -5.344992
    157          6           0       -7.334025   -4.744025   -4.591992
    158          6           0       -7.802026   -3.943025   -3.523992
    159          6           0       -8.875026   -4.341027   -2.689992
    160          6           0       -9.256027   -3.554027   -1.637992
    161          7           0       -8.615028   -2.385026   -1.358992
    162          6           0       -7.621029   -1.969025   -2.123992
    163          6           0       -7.168028   -2.691024   -3.248992
    164          6           0       -6.056032    0.268977   -3.746992
    165          6           0       -5.351033    1.454978   -3.579992
    166          6           0       -1.954040    6.034982   -3.226992
    167          6           0       -1.031041    7.042984   -2.963992
    168          6           0        0.220960    6.709985   -2.457992
    169          6           0        3.926965    2.883990    0.302008
    170          6           0        4.772965    2.566991    1.358008
    171          6           0        5.775963    4.038993    4.459008
    172          6           0        6.338963    3.801993    5.731008
    173          6           0        7.282965    2.818995    5.910008
    174          6           0        7.708966    2.052995    4.801008
    175          1           0        9.149967    0.827997    5.884008
    176          1           0        9.847969   -0.441002    3.863008
    177          1           0        7.268966    1.709995    1.421008
    178          1           0        5.875961    5.692993    2.136008
    179          1           0        4.385960    6.263991    0.245008
    180          1           0       -2.184032    0.184982   -3.452992
    181          1           0       -3.443029   -1.909020   -3.778992
    182          1           0       -4.812028   -2.754021   -5.709992
    183          1           0       -5.895025   -4.930023   -6.166992
    184          1           0       -7.824024   -5.697025   -4.798992
    185          1           0       -9.395025   -5.282027   -2.877992
    186          1           0      -10.073026   -3.831028   -0.970992
    187          1           0       -7.134030   -1.035024   -1.837992
    188          1           0       -7.143032    0.306976   -3.851992
    189          1           0       -5.886035    2.403977   -3.532992
    190          1           0       -2.946040    6.261981   -3.618992
    191          1           0       -1.291042    8.087983   -3.145992
    192          1           0        0.962959    7.473986   -2.225992
    193          1           0        3.352966    2.096989   -0.190992
    194          1           0        4.841966    1.527991    1.686008
    195          1           0        5.004962    4.805992    4.356008
    196          1           0        6.004963    4.402993    6.579008
    197          1           0        7.713965    2.620995    6.893008
    198          6           0       11.034964    3.085000   -0.207992
    199          6           0       10.782966    1.861999    0.352008
    200          7           0        9.681967    1.138998    0.005008
    201          6           0        8.847966    1.591997   -0.914992
    202          6           0        9.023965    2.832997   -1.561992
    203          6           0        8.089964    3.329996   -2.524992
    204          6           0        6.944965    2.514994   -2.989992
    205          6           0        7.137967    1.236994   -3.537992
    206          6           0        6.061968    0.492993   -4.003992
    207          6           0        4.755967    1.008991   -3.929992
    208          6           0        3.645968    0.242990   -4.394992
    209          6           0        2.689969   -0.415011   -4.762992
    210          6           0        1.543970   -1.206013   -5.113992
    211          7           0        0.809971   -1.656014   -4.091992
    212          6           0       -0.276028   -2.389015   -4.356992
    213          6           0       -1.054028   -2.826016   -3.237992
    214          6           0       -1.764027   -3.151017   -2.302992
    215          6           0       -2.619027   -3.487018   -1.214992
    216          6           0       -3.907026   -4.007020   -1.445992
    217          6           0       -4.740026   -4.317021   -0.379992
    218          6           0       -4.312026   -4.127021    0.945008
    219          6           0       -5.153026   -4.524022    2.096008
    220          6           0       -4.615025   -5.332021    3.082008
    221          6           0       -5.386024   -5.788022    4.173008
    222          6           0       -6.714024   -5.449024    4.289008
    223          6           0       -7.303025   -4.600025    3.324008
    224          6           0       -8.657026   -4.191026    3.399008
    225          6           0       -9.163027   -3.319027    2.475008
    226          7           0       -8.386028   -2.804026    1.480008
    227          6           0       -7.125027   -3.185024    1.359008
    228          6           0       -6.519026   -4.114024    2.233008
    229          6           0       -3.027027   -3.610019    1.167008
    230          6           0       -2.191027   -3.287018    0.109008
    231          6           0       -0.674028   -2.709016   -5.667992
    232          6           0        0.098971   -2.240015   -6.724992
    233          6           0        1.228970   -1.475013   -6.454992
    234          6           0        4.558965    2.286991   -3.378992
    235          6           0        5.641964    3.027993   -2.922992
    236          6           0        8.280962    4.607996   -3.015992
    237          6           0        9.385961    5.393997   -2.621992
    238          6           0       10.314962    4.914999   -1.727992
    239          6           0       10.145964    3.625998   -1.169992
    240          1           0       11.912964    3.652001    0.106008
    241          1           0       11.432967    1.423000    1.110008
    242          1           0        7.978967    0.971996   -1.139992
    243          1           0        8.146967    0.826996   -3.623992
    244          1           0        6.227969   -0.496007   -4.434992
    245          1           0       -4.248026   -4.176021   -2.469992
    246          1           0       -5.724025   -4.747023   -0.580992
    247          1           0       -3.576024   -5.655020    2.995008
    248          1           0       -4.920023   -6.436021    4.919008
    249          1           0       -7.320024   -5.817025    5.118008
    250          1           0       -9.298026   -4.562027    4.200008
    251          1           0      -10.199028   -2.984028    2.510008
    252          1           0       -6.544028   -2.726024    0.558008
    253          1           0       -2.680027   -3.443018    2.190008
    254          1           0       -1.206028   -2.853017    0.298008
    255          1           0       -1.569027   -3.309017   -5.838992
    256          1           0       -0.180028   -2.469015   -7.754992
    257          1           0        1.858970   -1.086012   -7.255992
    258          1           0        3.548965    2.696990   -3.305992
    259          1           0        5.473963    4.015992   -2.488992
    260          1           0        7.575962    5.006995   -3.747992
    261          1           0        9.503960    6.391998   -3.048992
    262          1           0       11.175961    5.517000   -1.433992
 ---------------------------------------------------------------------

 SCF Done:  E(RB97D3) =  -6903.81158576     A.U. after   21 cycles

 The electronic state is 1-A.
 Alpha  occ. eigenvalues --  -14.08946 -14.08890 -14.08890 -14.08826 -14.08816
 Alpha  occ. eigenvalues --  -14.08804 -14.08745 -14.08741 -14.02015 -14.01784
 Alpha  occ. eigenvalues --  -14.01619 -14.01577  -9.99668  -9.99593  -9.99555
 Alpha  occ. eigenvalues --   -9.99519  -9.99511  -9.99458  -9.99350  -9.99289
 Alpha  occ. eigenvalues --   -9.98936  -9.98915  -9.98817  -9.98779  -9.98539
 Alpha  occ. eigenvalues --   -9.98472  -9.98469  -9.98463  -9.98452  -9.98430
 Alpha  occ. eigenvalues --   -9.98427  -9.98413  -9.98407  -9.98402  -9.97869
 Alpha  occ. eigenvalues --   -9.97863  -9.96514  -9.96494  -9.96467  -9.96446
 Alpha  occ. eigenvalues --   -9.96445  -9.96443  -9.96435  -9.96428  -9.96420
 Alpha  occ. eigenvalues --   -9.96409  -9.96406  -9.96393  -9.96364  -9.96363
 Alpha  occ. eigenvalues --   -9.96258  -9.96171  -9.96107  -9.96093  -9.96029
 Alpha  occ. eigenvalues --   -9.96010  -9.96000  -9.95986  -9.95971  -9.95963
 Alpha  occ. eigenvalues --   -9.95943  -9.95921  -9.95914  -9.95879  -9.95870
 Alpha  occ. eigenvalues --   -9.95821  -9.95813  -9.95796  -9.95556  -9.95539
 Alpha  occ. eigenvalues --   -9.95538  -9.95525  -9.95508  -9.95507  -9.95495
 Alpha  occ. eigenvalues --   -9.95477  -9.95206  -9.95097  -9.95059  -9.95037
 Alpha  occ. eigenvalues --   -9.95020  -9.94981  -9.94969  -9.94946  -9.94919
 Alpha  occ. eigenvalues --   -9.94824  -9.94810  -9.94792  -9.94790  -9.94786
 Alpha  occ. eigenvalues --   -9.94782  -9.94774  -9.94753  -9.94713  -9.94652
 Alpha  occ. eigenvalues --   -9.94624  -9.94584  -9.94580  -9.94579  -9.94558
 Alpha  occ. eigenvalues --   -9.94547  -9.94526  -9.94525  -9.94509  -9.94505
 Alpha  occ. eigenvalues --   -9.94498  -9.94472  -9.94468  -9.94458  -9.94452
 Alpha  occ. eigenvalues --   -9.94431  -9.94430  -9.94425  -9.94408  -9.94408
 Alpha  occ. eigenvalues --   -9.94178  -9.94146  -9.94130  -9.94129  -9.94103
 Alpha  occ. eigenvalues --   -9.94091  -9.94089  -9.94070  -9.94069  -9.94056
 Alpha  occ. eigenvalues --   -9.94047  -9.94044  -9.94034  -9.94026  -9.94018
 Alpha  occ. eigenvalues --   -9.94013  -9.93990  -9.93988  -9.93986  -9.93979
 Alpha  occ. eigenvalues --   -9.93957  -9.93956  -9.93926  -9.93921  -9.93918
 Alpha  occ. eigenvalues --   -9.93896  -9.93845  -9.93835  -9.93819  -9.93784
 Alpha  occ. eigenvalues --   -9.93753  -9.93748  -9.93729  -9.93718  -9.93681
 Alpha  occ. eigenvalues --   -9.93666  -9.93524  -9.93444  -9.93442  -9.93438
 Alpha  occ. eigenvalues --   -9.93423  -9.93322  -9.93250  -9.93245  -9.93235
 Alpha  occ. eigenvalues --   -9.93224  -9.93160  -9.93139  -9.93096  -9.93007
 Alpha  occ. eigenvalues --   -9.92965  -9.92753  -9.92688  -3.37299  -3.37264
 Alpha  occ. eigenvalues --   -2.09864  -2.09790  -2.09769  -2.09769  -2.05328
 Alpha  occ. eigenvalues --   -2.05302  -0.92199  -0.92133  -0.91616  -0.91556
 Alpha  occ. eigenvalues --   -0.91541  -0.91535  -0.91401  -0.91361  -0.88809
 Alpha  occ. eigenvalues --   -0.88634  -0.88324  -0.87916  -0.82102  -0.82040
 Alpha  occ. eigenvalues --   -0.81985  -0.81965  -0.81951  -0.81944  -0.81920
 Alpha  occ. eigenvalues --   -0.81913  -0.80170  -0.80059  -0.80053  -0.80006
 Alpha  occ. eigenvalues --   -0.79976  -0.79953  -0.79933  -0.79902  -0.75769
 Alpha  occ. eigenvalues --   -0.75698  -0.75622  -0.75589  -0.75560  -0.75548
 Alpha  occ. eigenvalues --   -0.75503  -0.75468  -0.74773  -0.74677  -0.74491
 Alpha  occ. eigenvalues --   -0.74451  -0.74403  -0.74174  -0.74070  -0.73365
 Alpha  occ. eigenvalues --   -0.73104  -0.73042  -0.72995  -0.72971  -0.72931
 Alpha  occ. eigenvalues --   -0.72847  -0.72802  -0.72777  -0.72616  -0.72531
 Alpha  occ. eigenvalues --   -0.72494  -0.72353  -0.72306  -0.72277  -0.72218
 Alpha  occ. eigenvalues --   -0.71984  -0.70040  -0.70014  -0.69931  -0.69803
 Alpha  occ. eigenvalues --   -0.69483  -0.69432  -0.69413  -0.69335  -0.69313
 Alpha  occ. eigenvalues --   -0.69269  -0.69204  -0.69145  -0.69100  -0.69001
 Alpha  occ. eigenvalues --   -0.68977  -0.68932  -0.67195  -0.67171  -0.67091
 Alpha  occ. eigenvalues --   -0.66979  -0.65850  -0.65835  -0.65622  -0.65232
 Alpha  occ. eigenvalues --   -0.62263  -0.62232  -0.62150  -0.62108  -0.62081
 Alpha  occ. eigenvalues --   -0.62069  -0.62022  -0.61981  -0.61171  -0.61086
 Alpha  occ. eigenvalues --   -0.61020  -0.60970  -0.60864  -0.60746  -0.60718
 Alpha  occ. eigenvalues --   -0.60370  -0.60140  -0.60094  -0.60077  -0.60059
 Alpha  occ. eigenvalues --   -0.59987  -0.59962  -0.59904  -0.59709  -0.58662
 Alpha  occ. eigenvalues --   -0.58619  -0.58508  -0.58414  -0.58388  -0.58249
 Alpha  occ. eigenvalues --   -0.58199  -0.57834  -0.56610  -0.56571  -0.56534
 Alpha  occ. eigenvalues --   -0.56467  -0.56458  -0.56400  -0.56276  -0.56260
 Alpha  occ. eigenvalues --   -0.55385  -0.55304  -0.55206  -0.55158  -0.55101
 Alpha  occ. eigenvalues --   -0.55085  -0.55001  -0.54947  -0.52379  -0.52210
 Alpha  occ. eigenvalues --   -0.51993  -0.51352  -0.51029  -0.50998  -0.50817
 Alpha  occ. eigenvalues --   -0.50772  -0.50743  -0.50710  -0.50696  -0.50609
 Alpha  occ. eigenvalues --   -0.50485  -0.50373  -0.50053  -0.50004  -0.49974
 Alpha  occ. eigenvalues --   -0.49960  -0.49919  -0.49900  -0.49847  -0.49762
 Alpha  occ. eigenvalues --   -0.49700  -0.49636  -0.49310  -0.49136  -0.48950
 Alpha  occ. eigenvalues --   -0.48935  -0.48917  -0.48886  -0.48738  -0.48577
 Alpha  occ. eigenvalues --   -0.48189  -0.48174  -0.48166  -0.48154  -0.47072
 Alpha  occ. eigenvalues --   -0.46952  -0.46741  -0.46279  -0.45159  -0.45105
 Alpha  occ. eigenvalues --   -0.45071  -0.44970  -0.44911  -0.44834  -0.44725
 Alpha  occ. eigenvalues --   -0.44651  -0.44621  -0.44547  -0.44404  -0.44128
 Alpha  occ. eigenvalues --   -0.44090  -0.44035  -0.43955  -0.43848  -0.43797
 Alpha  occ. eigenvalues --   -0.43769  -0.43706  -0.43654  -0.43569  -0.43539
 Alpha  occ. eigenvalues --   -0.43460  -0.43438  -0.43374  -0.43361  -0.43342
 Alpha  occ. eigenvalues --   -0.43331  -0.43145  -0.43131  -0.42975  -0.42834
 Alpha  occ. eigenvalues --   -0.42790  -0.42722  -0.42585  -0.42555  -0.42547
 Alpha  occ. eigenvalues --   -0.42502  -0.42463  -0.42434  -0.42318  -0.41783
 Alpha  occ. eigenvalues --   -0.41447  -0.41424  -0.41399  -0.41383  -0.41362
 Alpha  occ. eigenvalues --   -0.41340  -0.41300  -0.41231  -0.41040  -0.40837
 Alpha  occ. eigenvalues --   -0.40751  -0.40715  -0.40476  -0.40428  -0.40354
 Alpha  occ. eigenvalues --   -0.40328  -0.40276  -0.40253  -0.40208  -0.40187
 Alpha  occ. eigenvalues --   -0.40017  -0.39950  -0.39851  -0.39685  -0.39583
 Alpha  occ. eigenvalues --   -0.39523  -0.39423  -0.39307  -0.39289  -0.39243
 Alpha  occ. eigenvalues --   -0.39200  -0.39133  -0.39073  -0.38877  -0.38851
 Alpha  occ. eigenvalues --   -0.38748  -0.38734  -0.38205  -0.38017  -0.37992
 Alpha  occ. eigenvalues --   -0.37989  -0.37983  -0.37946  -0.37624  -0.37464
 Alpha  occ. eigenvalues --   -0.37415  -0.37382  -0.37306  -0.37253  -0.36845
 Alpha  occ. eigenvalues --   -0.36583  -0.36541  -0.36444  -0.36435  -0.36351
 Alpha  occ. eigenvalues --   -0.36319  -0.36188  -0.36140  -0.36082  -0.36045
 Alpha  occ. eigenvalues --   -0.35939  -0.35879  -0.35807  -0.35722  -0.35677
 Alpha  occ. eigenvalues --   -0.35613  -0.35602  -0.35536  -0.35477  -0.35422
 Alpha  occ. eigenvalues --   -0.35385  -0.35358  -0.35326  -0.35298  -0.34969
 Alpha  occ. eigenvalues --   -0.34899  -0.34846  -0.34820  -0.34787  -0.34771
 Alpha  occ. eigenvalues --   -0.34696  -0.34263  -0.33826  -0.33808  -0.33638
 Alpha  occ. eigenvalues --   -0.33578  -0.32815  -0.32747  -0.32718  -0.32699
 Alpha  occ. eigenvalues --   -0.32581  -0.32556  -0.32531  -0.32478  -0.32342
 Alpha  occ. eigenvalues --   -0.32254  -0.32216  -0.32186  -0.32119  -0.32049
 Alpha  occ. eigenvalues --   -0.32006  -0.31947  -0.31820  -0.31448  -0.31379
 Alpha  occ. eigenvalues --   -0.31135  -0.30815  -0.30669  -0.30600  -0.30350
 Alpha  occ. eigenvalues --   -0.30299  -0.30228  -0.30140  -0.29947  -0.29871
 Alpha  occ. eigenvalues --   -0.29783  -0.29723  -0.29697  -0.29342  -0.29098
 Alpha  occ. eigenvalues --   -0.28944  -0.28850  -0.28802  -0.28696  -0.28578
 Alpha  occ. eigenvalues --   -0.28160  -0.27784  -0.27717  -0.27673  -0.27603
 Alpha  occ. eigenvalues --   -0.27584  -0.27507  -0.27448  -0.27421  -0.27210
 Alpha  occ. eigenvalues --   -0.27036  -0.26945  -0.26926  -0.26060  -0.25958
 Alpha  occ. eigenvalues --   -0.25957  -0.25935  -0.25847  -0.25729  -0.25720
 Alpha  occ. eigenvalues --   -0.25689  -0.25552  -0.25493  -0.25404  -0.25122
 Alpha  occ. eigenvalues --   -0.25026  -0.24981  -0.24880  -0.24865  -0.24749
 Alpha  occ. eigenvalues --   -0.24651  -0.24592  -0.24498  -0.24445  -0.24331
 Alpha  occ. eigenvalues --   -0.24104  -0.24017  -0.23964  -0.23954  -0.23696
 Alpha  occ. eigenvalues --   -0.23480  -0.23438  -0.23255  -0.23211  -0.23156
 Alpha  occ. eigenvalues --   -0.23105  -0.23023  -0.22630  -0.22604  -0.21857
 Alpha  occ. eigenvalues --   -0.21805  -0.21761  -0.21615  -0.21046  -0.20789
 Alpha  occ. eigenvalues --   -0.20731  -0.20363
 Alpha virt. eigenvalues --   -0.12043  -0.12007  -0.11840  -0.11779  -0.11670
 Alpha virt. eigenvalues --   -0.11634  -0.11495  -0.11372  -0.11364  -0.11272
 Alpha virt. eigenvalues --   -0.10081  -0.09923  -0.09822  -0.09666  -0.09326

 Mulliken charges:
               1
     1  Pd   0.312645
     2  Pd   0.326128
     3  C   -0.006952
     4  C    0.133254
     5  N   -0.233174
     6  C    0.111486
     7  C    0.042803
     8  C    0.054563
     9  C   -0.028203
    10  C   -0.013745
    11  C    0.007712
    12  C   -0.037807
    13  C    0.010312
    14  C    0.051892
    15  C   -0.056889
    16  N   -0.123291
    17  C   -0.053388
    18  C    0.047425
    19  C    0.011323
    20  C   -0.038766
    21  C   -0.000098
    22  C    0.032159
    23  C   -0.020172
    24  C    0.061072
    25  C   -0.008661
    26  C    0.045825
    27  C    0.006507
    28  C    0.075315
    29  C   -0.003171
    30  C    0.128938
    31  N   -0.236958
    32  C    0.099638
    33  C    0.047506
    34  C   -0.020986
    35  C    0.014569
    36  C    0.032928
    37  C    0.052964
    38  C    0.048449
    39  C    0.007582
    40  C    0.030153
    41  C   -0.007248
    42  C    0.044778
    43  C    0.006053
    44  C    0.079419
    45  H    0.019217
    46  H    0.066640
    47  H    0.088273
    48  H    0.008572
    49  H   -0.002251
    50  H    0.001664
    51  H    0.007953
    52  H    0.003640
    53  H    0.019358
    54  H    0.004684
    55  H    0.018421
    56  H    0.069794
    57  H    0.092725
    58  H    0.010547
    59  H   -0.006343
    60  H   -0.002414
    61  H    0.005441
    62  H   -0.010114
    63  H    0.000804
    64  H    0.003509
    65  H    0.002469
    66  H    0.019479
    67  H    0.004431
    68  C   -0.000765
    69  C    0.130780
    70  N   -0.241999
    71  C    0.094656
    72  C    0.047296
    73  C    0.055245
    74  C    0.003012
    75  C   -0.022195
    76  C   -0.000144
    77  C   -0.049866
    78  C    0.006667
    79  C    0.066670
    80  C   -0.093731
    81  N   -0.107683
    82  C   -0.094106
    83  C    0.059304
    84  C    0.011694
    85  C   -0.039763
    86  C    0.029997
    87  C   -0.009935
    88  C    0.022508
    89  C    0.081332
    90  C   -0.022038
    91  C    0.048000
    92  C    0.007361
    93  C    0.067878
    94  C   -0.003882
    95  C    0.134703
    96  N   -0.229346
    97  C    0.091360
    98  C    0.047210
    99  C   -0.025083
   100  C    0.012561
   101  C    0.043853
   102  C    0.069024
   103  C    0.047792
   104  C    0.027306
   105  C    0.001858
   106  C   -0.006967
   107  C    0.047966
   108  C    0.008037
   109  C    0.070633
   110  H    0.018673
   111  H    0.076115
   112  H    0.085082
   113  H    0.009107
   114  H    0.005604
   115  H   -0.011926
   116  H    0.008011
   117  H    0.007394
   118  H    0.018256
   119  H    0.005065
   120  H    0.018399
   121  H    0.069315
   122  H    0.068077
   123  H    0.012770
   124  H   -0.015181
   125  H    0.003522
   126  H    0.015155
   127  H    0.008498
   128  H   -0.009253
   129  H    0.003086
   130  H    0.005948
   131  H    0.018629
   132  H    0.004323
   133  C   -0.001633
   134  C    0.136160
   135  N   -0.236054
   136  C    0.097857
   137  C    0.041302
   138  C    0.051761
   139  C    0.013629
   140  C   -0.009356
   141  C    0.022970
   142  C   -0.081554
   143  C    0.013251
   144  C    0.098208
   145  C   -0.094111
   146  N   -0.111604
   147  C   -0.067203
   148  C    0.067456
   149  C   -0.004705
   150  C   -0.037792
   151  C    0.003166
   152  C    0.003967
   153  C    0.017144
   154  C    0.056271
   155  C   -0.018141
   156  C    0.048890
   157  C    0.006814
   158  C    0.071666
   159  C   -0.003152
   160  C    0.138313
   161  N   -0.232591
   162  C    0.099475
   163  C    0.046171
   164  C   -0.011646
   165  C    0.014296
   166  C    0.028786
   167  C    0.076842
   168  C    0.034826
   169  C    0.031450
   170  C   -0.007980
   171  C   -0.014958
   172  C    0.051495
   173  C    0.007485
   174  C    0.074108
   175  H    0.019585
   176  H    0.077954
   177  H    0.066927
   178  H    0.000835
   179  H   -0.000622
   180  H    0.005815
   181  H   -0.005885
   182  H    0.010688
   183  H    0.017991
   184  H    0.005150
   185  H    0.019398
   186  H    0.076218
   187  H    0.064382
   188  H    0.008017
   189  H   -0.003493
   190  H    0.015246
   191  H    0.020174
   192  H    0.005240
   193  H    0.001107
   194  H    0.018862
   195  H    0.012735
   196  H    0.018234
   197  H    0.005404
   198  C   -0.003302
   199  C    0.138049
   200  N   -0.234424
   201  C    0.098609
   202  C    0.041348
   203  C    0.067610
   204  C   -0.004224
   205  C   -0.007915
   206  C    0.015518
   207  C   -0.050534
   208  C   -0.007363
   209  C    0.080133
   210  C   -0.091975
   211  N   -0.104820
   212  C   -0.089062
   213  C    0.078382
   214  C   -0.005467
   215  C   -0.049053
   216  C    0.007799
   217  C   -0.016715
   218  C    0.008302
   219  C    0.051702
   220  C   -0.006679
   221  C    0.047676
   222  C    0.009171
   223  C    0.068276
   224  C   -0.001278
   225  C    0.134945
   226  N   -0.235839
   227  C    0.092313
   228  C    0.045142
   229  C   -0.004648
   230  C    0.027748
   231  C    0.029989
   232  C    0.076041
   233  C    0.042770
   234  C    0.009253
   235  C    0.014137
   236  C   -0.010888
   237  C    0.046761
   238  C    0.007854
   239  C    0.069645
   240  H    0.019661
   241  H    0.071014
   242  H    0.076535
   243  H    0.009044
   244  H   -0.001490
   245  H    0.003139
   246  H    0.010244
   247  H    0.007208
   248  H    0.018875
   249  H    0.004603
   250  H    0.018431
   251  H    0.075249
   252  H    0.075470
   253  H    0.006728
   254  H   -0.006949
   255  H    0.009825
   256  H    0.019306
   257  H    0.005655
   258  H    0.002499
   259  H    0.007188
   260  H    0.005729
   261  H    0.018771
   262  H    0.004780
 Sum of Mulliken charges =   4.00000

 Dipole moment (field-independent basis, Debye):
    X=             -0.1052    Y=             -7.3975    Z=              7.5272  Tot=             10.5543
 Quadrupole moment (field-independent basis, Debye-Ang):
   XX=            648.3298   YY=           -638.5522   ZZ=           -708.2358
   XY=             27.1482   XZ=             31.5715   YZ=             -3.7741

 Normal termination of Gaussian 16 at Tue Jul 25 18:15:06 2023.
