 Gaussian 16, Revision C.01,
 Gaussian 16:  ES64L-G16RevC.01  3-Jul-2019

 ----------------------------------------------------------------------
 #P PBE1PBE/Def2SVP SP SCF=(YQC,MaxCycle=900) int=(Grid=Superfinegrid)
 EmpiricalDispersion=GD3BJ SCRF=(PCM,Solvent=DiMethylSulfoxide)
 ----------------------------------------------------------------------

 --------
 _s_4c1_d
 --------
 Symbolic Z-matrix:
 Charge =  4 Multiplicity = 1

                         Standard orientation:
 ---------------------------------------------------------------------
 Center     Atomic      Atomic             Coordinates (Angstroms)
 Number     Number       Type             X           Y           Z
 ---------------------------------------------------------------------
      1         46           0       -5.609181    0.614820    0.370737
      2         46           0        5.609629   -0.614611    0.371150
      3          6           0        2.232745   -3.009800   -3.736480
      4          6           0        3.064986   -2.243778   -4.168130
      5          6           0        4.098350   -1.437102   -4.686238
      6          6           0        4.267388   -1.304775   -6.051881
      7          6           0        5.359298   -0.603264   -6.576459
      8          6           0        6.315161   -0.055148   -5.756720
      9          6           0        6.186752   -0.165520   -4.360455
     10          6           0        7.144405    0.330822   -3.447000
     11          6           0        6.954427    0.174717   -2.103445
     12          7           0        5.837780   -0.406432   -1.599073
     13          6           0        4.920084   -0.879957   -2.421212
     14          6           0        5.049684   -0.827848   -3.814710
     15          1           0        3.554659   -1.760349   -6.722085
     16          1           0        5.456614   -0.515351   -7.647927
     17          1           0        7.171950    0.453462   -6.169869
     18          1           0        8.029267    0.820500   -3.820866
     19          1           0        7.684995    0.516672   -1.377466
     20          1           0        4.028856   -1.326512   -1.985236
     21          6           0        1.307376   -4.019671   -3.391336
     22          6           0        1.513265   -5.276245   -3.992747
     23          6           0        0.633627   -6.314617   -3.796341
     24          6           0       -0.475888   -6.077812   -2.996719
     25          7           0       -1.519210   -6.915085   -2.704974
     26          6           0       -2.431634   -6.244785   -1.945371
     27          6           0       -3.670280   -6.664825   -1.482071
     28          6           0       -4.423745   -5.770682   -0.758768
     29          6           0       -3.967079   -4.472233   -0.465037
     30          6           0       -2.714413   -4.061828   -0.920104
     31          6           0       -1.948969   -4.939032   -1.672700
     32          6           0       -0.685619   -4.829374   -2.360671
     33          6           0        0.219494   -3.794780   -2.553233
     34          1           0        2.374176   -5.412883   -4.629105
     35          1           0        0.788076   -7.272330   -4.268845
     36          1           0       -1.648864   -7.834456   -3.094710
     37          1           0       -4.044375   -7.651932   -1.704916
     38          1           0       -5.410895   -6.071185   -0.447873
     39          1           0       -2.325789   -3.085931   -0.683381
     40          1           0        0.065260   -2.831064   -2.097287
     41          6           0       -4.869867   -3.570317    0.256271
     42          6           0       -5.849159   -4.057894    1.133437
     43          6           0       -6.777171   -3.197158    1.689345
     44          6           0       -6.705950   -1.847137    1.392893
     45          7           0       -5.734830   -1.364318    0.612283
     46          6           0       -4.846805   -2.189121    0.054239
     47          1           0       -5.882936   -5.106711    1.378415
     48          1           0       -7.548862   -3.566674    2.344810
     49          1           0       -7.426329   -1.132263    1.781944
     50          1           0       -4.110237   -1.724144   -0.595092
     51          6           0       -2.232019    3.009587   -3.736425
     52          6           0       -3.064241    2.243800   -4.168225
     53          6           0       -4.097777    1.437202   -4.686541
     54          6           0       -4.266858    1.305249   -6.052153
     55          6           0       -5.358907    0.604066   -6.576847
     56          6           0       -6.314864    0.056018   -5.757232
     57          6           0       -6.186349    0.166092   -4.360969
     58          6           0       -7.144130   -0.330177   -3.447561
     59          6           0       -6.954132   -0.174404   -2.103905
     60          7           0       -5.837367    0.406502   -1.599506
     61          6           0       -4.919512    0.879847   -2.421534
     62          6           0       -5.049129    0.827962   -3.815095
     63          1           0       -3.554033    1.760838   -6.722243
     64          1           0       -5.456222    0.516389   -7.648351
     65          1           0       -7.171716   -0.452331   -6.170448
     66          1           0       -8.029070   -0.819679   -3.821550
     67          1           0       -7.684667   -0.516441   -1.378024
     68          1           0       -4.028180    1.326180   -1.985544
     69          6           0       -1.306738    4.019560   -3.391041
     70          6           0       -1.512870    5.276345   -3.992015
     71          6           0       -0.633620    6.314771   -3.795200
     72          6           0        0.475957    6.078059   -2.995600
     73          7           0        1.518981    6.915406   -2.703488
     74          6           0        2.431565    6.245124   -1.944000
     75          6           0        3.670056    6.665332   -1.480548
     76          6           0        4.423763    5.771093   -0.757511
     77          6           0        3.967409    4.472427   -0.464217
     78          6           0        2.714882    4.061929   -0.919524
     79          6           0        1.949283    4.939072   -1.671905
     80          6           0        0.686037    4.829406   -2.359969
     81          6           0       -0.218825    3.794596   -2.552969
     82          1           0       -2.373884    5.412919   -4.628372
     83          1           0       -0.788191    7.272596   -4.267420
     84          1           0        1.648306    7.835044   -3.092689
     85          1           0        4.043971    7.652605   -1.702951
     86          1           0        5.410786    6.071877   -0.446468
     87          1           0        2.326470    3.085830   -0.683123
     88          1           0       -0.064406    2.830735   -2.097375
     89          6           0        4.870366    3.570494    0.256836
     90          6           0        5.850019    4.058002    1.133662
     91          6           0        6.778299    3.197338    1.689136
     92          6           0        6.706984    1.847362    1.392768
     93          7           0        5.735551    1.364476    0.612438
     94          6           0        4.847408    2.189253    0.054708
     95          1           0        5.883768    5.106876    1.378729
     96          1           0        7.550258    3.566835    2.344340
     97          1           0        7.427567    1.132449    1.781499
     98          1           0        4.110583    1.724298   -0.594361
     99          6           0        2.730124    2.969952    3.753675
    100          6           0        3.132910    2.037754    4.410441
    101          6           0        3.733146    0.985989    5.133526
    102          6           0        3.664484    0.919873    6.510359
    103          6           0        4.367299   -0.064755    7.216973
    104          6           0        5.175771   -0.965243    6.569169
    105          6           0        5.274281   -0.935549    5.165798
    106          6           0        6.118602   -1.789797    4.422492
    107          6           0        6.170888   -1.686582    3.061465
    108          7           0        5.382986   -0.825916    2.367156
    109          6           0        4.574612   -0.018389    3.031062
    110          6           0        4.511074    0.015804    4.431669
    111          1           0        3.077496    1.647155    7.049932
    112          1           0        4.287968   -0.091291    8.293200
    113          1           0        5.747261   -1.693536    7.122673
    114          1           0        6.733284   -2.509646    4.939061
    115          1           0        6.844258   -2.303071    2.477261
    116          1           0        3.935075    0.644905    2.454208
    117          6           0        2.257271    4.048583    2.974188
    118          6           0        3.070445    5.183257    2.810553
    119          6           0        2.668624    6.248355    2.033214
    120          6           0        1.424811    6.173655    1.421222
    121          7           0        0.791471    7.071789    0.601038
    122          6           0       -0.439136    6.586712    0.263410
    123          6           0       -1.438529    7.133262   -0.531324
    124          6           0       -2.618584    6.435893   -0.661752
    125          6           0       -2.840793    5.208907   -0.009261
    126          6           0       -1.817679    4.642779    0.748391
    127          6           0       -0.619231    5.320734    0.872364
    128          6           0        0.588006    5.046412    1.601193
    129          6           0        1.005932    3.974549    2.371755
    130          1           0        4.023286    5.214390    3.316187
    131          1           0        3.297466    7.116364    1.912612
    132          1           0        1.143203    7.984643    0.364438
    133          1           0       -1.305175    8.083864   -1.022925
    134          1           0       -3.388048    6.845894   -1.295720
    135          1           0       -1.957157    3.721282    1.287780
    136          1           0        0.379851    3.109264    2.513277
    137          6           0       -4.153744    4.563942   -0.073539
    138          6           0       -5.332358    5.298266   -0.266251
    139          6           0       -6.556764    4.655290   -0.289784
    140          6           0       -6.604127    3.284574   -0.097860
    141          7           0       -5.487103    2.581370    0.101891
    142          6           0       -4.300024    3.185964    0.102476
    143          1           0       -5.291663    6.370041   -0.374394
    144          1           0       -7.467571    5.211501   -0.441734
    145          1           0       -7.540138    2.730351   -0.098573
    146          1           0       -3.441717    2.533656    0.249293
    147          6           0       -2.731403   -2.971033    3.753436
    148          6           0       -3.134593   -2.038950    4.410287
    149          6           0       -3.734978   -0.987345    5.133312
    150          6           0       -3.667263   -0.921930    6.510393
    151          6           0       -4.370072    0.062655    7.216985
    152          6           0       -5.177498    0.964083    6.568962
    153          6           0       -5.274993    0.935020    5.165520
    154          6           0       -6.118345    1.790174    4.422083
    155          6           0       -6.170077    1.687420    3.060889
    156          7           0       -5.382395    0.826327    2.366757
    157          6           0       -4.574756    0.018247    3.030872
    158          6           0       -4.511909   -0.016388    4.431481
    159          1           0       -3.081137   -1.649915    7.049987
    160          1           0       -4.291592    0.088642    8.293204
    161          1           0       -5.748977    1.692373    7.122432
    162          1           0       -6.732744    2.510253    4.938452
    163          1           0       -6.842671    2.304488    2.476571
    164          1           0       -3.935216   -0.645135    2.454162
    165          6           0       -2.258149   -4.049312    2.973913
    166          6           0       -3.071129   -5.184222    2.809926
    167          6           0       -2.669040   -6.248955    2.032431
    168          6           0       -1.425060   -6.173906    1.420635
    169          7           0       -0.791643   -7.071818    0.600242
    170          6           0        0.439088   -6.586523    0.263000
    171          6           0        1.438587   -7.132805   -0.531712
    172          6           0        2.618580   -6.435421   -0.661844
    173          6           0        2.840654   -5.208575   -0.009071
    174          6           0        1.817407   -4.642614    0.748534
    175          6           0        0.618946   -5.320546    0.872209
    176          6           0       -0.588497   -5.046706    1.600922
    177          6           0       -1.006817   -3.974987    2.371629
    178          1           0       -4.023988   -5.215607    3.315468
    179          1           0       -3.297620   -7.117106    1.911505
    180          1           0       -1.143173   -7.984579    0.363393
    181          1           0        1.305384   -8.083345   -1.023540
    182          1           0        3.388182   -6.845246   -1.295769
    183          1           0        1.956757   -3.721221    1.288248
    184          1           0       -0.380847   -3.109586    2.513416
    185          6           0        4.153607   -4.563711   -0.073079
    186          6           0        5.332271   -5.298018   -0.265739
    187          6           0        6.556721   -4.655166   -0.289359
    188          6           0        6.604117   -3.284404   -0.097328
    189          7           0        5.487146   -2.581117    0.102548
    190          6           0        4.300106   -3.185654    0.103096
    191          1           0        5.291432   -6.369807   -0.373978
    192          1           0        7.467498   -5.211351   -0.441229
    193          1           0        7.540110   -2.730186   -0.098105
    194          1           0        3.441790   -2.533394    0.250099
 ---------------------------------------------------------------------

 SCF Done:  E(RPBE1PBE) =  -5212.30307562     a.u. after   15 cycles
 SCF Done:  E(RPBE1PBE) =  -5212.30326863     A.U. after   10 cycles

 The electronic state is 1-A.
 Alpha  occ. eigenvalues --  -14.48495 -14.48495 -14.48436 -14.48435 -14.48349
 Alpha  occ. eigenvalues --  -14.48348 -14.48235 -14.48235 -14.45292 -14.45291
 Alpha  occ. eigenvalues --  -14.45262 -14.45261 -10.32216 -10.32215 -10.32116
 Alpha  occ. eigenvalues --  -10.32115 -10.31507 -10.31507 -10.31429 -10.31429
 Alpha  occ. eigenvalues --  -10.31264 -10.31264 -10.31170 -10.31170 -10.30867
 Alpha  occ. eigenvalues --  -10.30867 -10.30804 -10.30804 -10.29605 -10.29605
 Alpha  occ. eigenvalues --  -10.29574 -10.29573 -10.29150 -10.29150 -10.29136
 Alpha  occ. eigenvalues --  -10.29136 -10.29126 -10.29126 -10.29098 -10.29098
 Alpha  occ. eigenvalues --  -10.29005 -10.29005 -10.28971 -10.28971 -10.28952
 Alpha  occ. eigenvalues --  -10.28951 -10.28860 -10.28859 -10.28836 -10.28836
 Alpha  occ. eigenvalues --  -10.28795 -10.28795 -10.28352 -10.28351 -10.28281
 Alpha  occ. eigenvalues --  -10.28281 -10.27719 -10.27717 -10.27715 -10.27715
 Alpha  occ. eigenvalues --  -10.27658 -10.27657 -10.27596 -10.27595 -10.27087
 Alpha  occ. eigenvalues --  -10.27086 -10.27048 -10.27047 -10.27025 -10.27025
 Alpha  occ. eigenvalues --  -10.26995 -10.26995 -10.26993 -10.26992 -10.26991
 Alpha  occ. eigenvalues --  -10.26991 -10.26748 -10.26747 -10.26704 -10.26703
 Alpha  occ. eigenvalues --  -10.26313 -10.26312 -10.26292 -10.26292 -10.26034
 Alpha  occ. eigenvalues --  -10.26034 -10.26024 -10.26021 -10.25994 -10.25992
 Alpha  occ. eigenvalues --  -10.25935 -10.25935 -10.25899 -10.25897 -10.25778
 Alpha  occ. eigenvalues --  -10.25777 -10.25592 -10.25591 -10.25560 -10.25560
 Alpha  occ. eigenvalues --  -10.25558 -10.25557 -10.25510 -10.25509 -10.25485
 Alpha  occ. eigenvalues --  -10.25485 -10.25432 -10.25431 -10.25395 -10.25395
 Alpha  occ. eigenvalues --  -10.25341 -10.25339 -10.25318 -10.25316 -10.25275
 Alpha  occ. eigenvalues --  -10.25273 -10.25268 -10.25267 -10.25206 -10.25205
 Alpha  occ. eigenvalues --  -10.25174 -10.25173 -10.25119 -10.25118  -3.57122
 Alpha  occ. eigenvalues --   -3.57122  -2.25096  -2.25095  -2.24906  -2.24906
 Alpha  occ. eigenvalues --   -2.20794  -2.20793  -1.03801  -1.03800  -1.03185
 Alpha  occ. eigenvalues --   -1.03180  -1.03109  -1.03103  -1.02960  -1.02959
 Alpha  occ. eigenvalues --   -1.02778  -1.02776  -1.02725  -1.02724  -0.92560
 Alpha  occ. eigenvalues --   -0.92559  -0.92506  -0.92506  -0.90552  -0.90527
 Alpha  occ. eigenvalues --   -0.90352  -0.90318  -0.89857  -0.89856  -0.89726
 Alpha  occ. eigenvalues --   -0.89717  -0.86572  -0.86547  -0.86428  -0.86404
 Alpha  occ. eigenvalues --   -0.85820  -0.85818  -0.85772  -0.85771  -0.83545
 Alpha  occ. eigenvalues --   -0.83544  -0.83439  -0.83437  -0.83059  -0.83055
 Alpha  occ. eigenvalues --   -0.82967  -0.82957  -0.82606  -0.82594  -0.82489
 Alpha  occ. eigenvalues --   -0.82483  -0.81350  -0.81325  -0.81196  -0.81157
 Alpha  occ. eigenvalues --   -0.80024  -0.79988  -0.79981  -0.79963  -0.77821
 Alpha  occ. eigenvalues --   -0.77805  -0.77745  -0.77721  -0.76296  -0.76295
 Alpha  occ. eigenvalues --   -0.76102  -0.76089  -0.75226  -0.75224  -0.75166
 Alpha  occ. eigenvalues --   -0.75163  -0.71143  -0.71123  -0.70965  -0.70954
 Alpha  occ. eigenvalues --   -0.70822  -0.70816  -0.70702  -0.70677  -0.69499
 Alpha  occ. eigenvalues --   -0.69419  -0.69359  -0.69305  -0.69024  -0.68890
 Alpha  occ. eigenvalues --   -0.68793  -0.68686  -0.68379  -0.68328  -0.68253
 Alpha  occ. eigenvalues --   -0.68173  -0.66858  -0.66834  -0.66744  -0.66743
 Alpha  occ. eigenvalues --   -0.64732  -0.64713  -0.64699  -0.64670  -0.63764
 Alpha  occ. eigenvalues --   -0.63741  -0.63602  -0.63561  -0.61592  -0.61533
 Alpha  occ. eigenvalues --   -0.61456  -0.61425  -0.60526  -0.59933  -0.59829
 Alpha  occ. eigenvalues --   -0.59729  -0.59721  -0.59136  -0.58838  -0.58795
 Alpha  occ. eigenvalues --   -0.57895  -0.57887  -0.57799  -0.57777  -0.57682
 Alpha  occ. eigenvalues --   -0.57682  -0.57638  -0.57629  -0.57191  -0.57106
 Alpha  occ. eigenvalues --   -0.56146  -0.56058  -0.55992  -0.55900  -0.55866
 Alpha  occ. eigenvalues --   -0.55749  -0.55606  -0.55590  -0.55499  -0.55476
 Alpha  occ. eigenvalues --   -0.54755  -0.54714  -0.54621  -0.54616  -0.52721
 Alpha  occ. eigenvalues --   -0.52607  -0.52595  -0.52531  -0.51691  -0.51520
 Alpha  occ. eigenvalues --   -0.51371  -0.51348  -0.51017  -0.50909  -0.50689
 Alpha  occ. eigenvalues --   -0.50561  -0.50431  -0.50413  -0.50250  -0.50213
 Alpha  occ. eigenvalues --   -0.50058  -0.50008  -0.49959  -0.49924  -0.49747
 Alpha  occ. eigenvalues --   -0.49698  -0.49503  -0.49503  -0.49199  -0.49198
 Alpha  occ. eigenvalues --   -0.48964  -0.48943  -0.48849  -0.48830  -0.48626
 Alpha  occ. eigenvalues --   -0.48597  -0.48112  -0.48106  -0.48093  -0.48042
 Alpha  occ. eigenvalues --   -0.47521  -0.47434  -0.47252  -0.47231  -0.47144
 Alpha  occ. eigenvalues --   -0.47113  -0.47085  -0.47033  -0.46685  -0.46673
 Alpha  occ. eigenvalues --   -0.46605  -0.46584  -0.46559  -0.46522  -0.46398
 Alpha  occ. eigenvalues --   -0.46379  -0.46330  -0.46273  -0.45980  -0.45974
 Alpha  occ. eigenvalues --   -0.45466  -0.45445  -0.45240  -0.45214  -0.45007
 Alpha  occ. eigenvalues --   -0.44889  -0.44310  -0.44308  -0.43826  -0.43807
 Alpha  occ. eigenvalues --   -0.43735  -0.43696  -0.43612  -0.43567  -0.42740
 Alpha  occ. eigenvalues --   -0.42642  -0.42469  -0.42438  -0.42011  -0.41908
 Alpha  occ. eigenvalues --   -0.41888  -0.41834  -0.41740  -0.41695  -0.41659
 Alpha  occ. eigenvalues --   -0.41621  -0.40999  -0.40941  -0.40497  -0.40417
 Alpha  occ. eigenvalues --   -0.40333  -0.40333  -0.40311  -0.40285  -0.39885
 Alpha  occ. eigenvalues --   -0.39690  -0.39457  -0.39401  -0.39391  -0.39230
 Alpha  occ. eigenvalues --   -0.39107  -0.39035  -0.38672  -0.38530  -0.38123
 Alpha  occ. eigenvalues --   -0.38116  -0.37829  -0.37797  -0.37562  -0.37559
 Alpha  occ. eigenvalues --   -0.37347  -0.37214  -0.37058  -0.36964  -0.36702
 Alpha  occ. eigenvalues --   -0.36602  -0.36549  -0.36532  -0.36329  -0.36179
 Alpha  occ. eigenvalues --   -0.35677  -0.35661  -0.35439  -0.35220  -0.34003
 Alpha  occ. eigenvalues --   -0.33979  -0.33675  -0.33609  -0.33531  -0.33395
 Alpha  occ. eigenvalues --   -0.33264  -0.33235  -0.32958  -0.32825  -0.32413
 Alpha  occ. eigenvalues --   -0.32338  -0.32141  -0.32121  -0.31514  -0.31502
 Alpha  occ. eigenvalues --   -0.31451  -0.31421  -0.31211  -0.31196  -0.30959
 Alpha  occ. eigenvalues --   -0.30929  -0.30867  -0.30861  -0.30064  -0.30040
 Alpha  occ. eigenvalues --   -0.28812  -0.28785  -0.28246  -0.28228  -0.27235
 Alpha  occ. eigenvalues --   -0.27231  -0.26216  -0.26215  -0.26012  -0.26006
 Alpha  occ. eigenvalues --   -0.25255  -0.25231  -0.24001  -0.24000  -0.23097
 Alpha  occ. eigenvalues --   -0.23079  -0.22606  -0.22605
 Alpha virt. eigenvalues --   -0.09869  -0.09855  -0.09812  -0.09810  -0.07762
 Alpha virt. eigenvalues --   -0.07636  -0.07376  -0.07168  -0.06963  -0.06957
 Alpha virt. eigenvalues --   -0.06578  -0.06506  -0.06368  -0.06116  -0.05984

 Mulliken charges:
               1
     1  Pd   0.471204
     2  Pd   0.471212
     3  C    0.019699
     4  C   -0.096126
     5  C   -0.008633
     6  C    0.002229
     7  C    0.013760
     8  C    0.003624
     9  C    0.038374
    10  C   -0.021371
    11  C    0.147193
    12  N   -0.327847
    13  C    0.179668
    14  C   -0.018408
    15  H    0.039629
    16  H    0.054811
    17  H    0.039808
    18  H    0.052780
    19  H    0.101754
    20  H    0.079063
    21  C   -0.079928
    22  C   -0.000449
    23  C   -0.045395
    24  C    0.115859
    25  N   -0.122153
    26  C    0.120155
    27  C   -0.061572
    28  C   -0.041696
    29  C    0.051473
    30  C   -0.053794
    31  C    0.008869
    32  C    0.036750
    33  C   -0.023138
    34  H    0.028867
    35  H    0.020494
    36  H    0.164310
    37  H    0.018751
    38  H    0.030493
    39  H    0.013929
    40  H    0.011585
    41  C   -0.016527
    42  C    0.040634
    43  C   -0.026256
    44  C    0.137545
    45  N   -0.331901
    46  C    0.137033
    47  H    0.059836
    48  H    0.062349
    49  H    0.115312
    50  H    0.091925
    51  C    0.019595
    52  C   -0.096106
    53  C   -0.008609
    54  C    0.002221
    55  C    0.013751
    56  C    0.003680
    57  C    0.038346
    58  C   -0.021407
    59  C    0.147226
    60  N   -0.327817
    61  C    0.179713
    62  C   -0.018418
    63  H    0.039628
    64  H    0.054816
    65  H    0.039781
    66  H    0.052800
    67  H    0.101736
    68  H    0.079058
    69  C   -0.079952
    70  C   -0.000430
    71  C   -0.045317
    72  C    0.115804
    73  N   -0.122091
    74  C    0.120166
    75  C   -0.061598
    76  C   -0.041792
    77  C    0.051611
    78  C   -0.053939
    79  C    0.008991
    80  C    0.036663
    81  C   -0.023127
    82  H    0.028892
    83  H    0.020476
    84  H    0.164303
    85  H    0.018755
    86  H    0.030493
    87  H    0.013937
    88  H    0.011593
    89  C   -0.016521
    90  C    0.040554
    91  C   -0.026238
    92  C    0.137497
    93  N   -0.331900
    94  C    0.137035
    95  H    0.059881
    96  H    0.062366
    97  H    0.115343
    98  H    0.091935
    99  C    0.025644
   100  C   -0.097634
   101  C   -0.010766
   102  C    0.006001
   103  C    0.013377
   104  C    0.005913
   105  C    0.038549
   106  C   -0.024212
   107  C    0.149518
   108  N   -0.324677
   109  C    0.175966
   110  C   -0.023247
   111  H    0.039433
   112  H    0.055023
   113  H    0.040127
   114  H    0.052126
   115  H    0.088986
   116  H    0.086971
   117  C   -0.082879
   118  C   -0.006382
   119  C   -0.023623
   120  C    0.117002
   121  N   -0.119641
   122  C    0.113367
   123  C   -0.022574
   124  C   -0.046408
   125  C    0.059579
   126  C   -0.089178
   127  C    0.026577
   128  C    0.039750
   129  C   -0.052351
   130  H    0.029647
   131  H    0.018273
   132  H    0.163851
   133  H    0.017012
   134  H    0.028152
   135  H    0.014746
   136  H    0.013727
   137  C   -0.021827
   138  C    0.050306
   139  C   -0.029270
   140  C    0.135651
   141  N   -0.319620
   142  C    0.127298
   143  H    0.057575
   144  H    0.064087
   145  H    0.112006
   146  H    0.093479
   147  C    0.025648
   148  C   -0.097569
   149  C   -0.010909
   150  C    0.006083
   151  C    0.013400
   152  C    0.005896
   153  C    0.038569
   154  C   -0.024167
   155  C    0.149559
   156  N   -0.324686
   157  C    0.175953
   158  C   -0.023165
   159  H    0.039447
   160  H    0.054983
   161  H    0.040124
   162  H    0.052068
   163  H    0.088941
   164  H    0.086951
   165  C   -0.082964
   166  C   -0.006332
   167  C   -0.023495
   168  C    0.116912
   169  N   -0.119647
   170  C    0.113380
   171  C   -0.022595
   172  C   -0.046422
   173  C    0.059597
   174  C   -0.089206
   175  C    0.026604
   176  C    0.039689
   177  C   -0.052324
   178  H    0.029638
   179  H    0.018279
   180  H    0.163797
   181  H    0.017032
   182  H    0.028155
   183  H    0.014784
   184  H    0.013769
   185  C   -0.021904
   186  C    0.050259
   187  C   -0.029197
   188  C    0.135611
   189  N   -0.319572
   190  C    0.127325
   191  H    0.057585
   192  H    0.064063
   193  H    0.112001
   194  H    0.093454
 Sum of Mulliken charges =   4.00000

 Dipole moment (field-independent basis, Debye):
    X=             -0.0005    Y=              0.0015    Z=              0.3994  Tot=              0.3994
 Quadrupole moment (field-independent basis, Debye-Ang):
   XX=            -88.8828   YY=           -305.3206   ZZ=           -496.2392
   XY=             -0.3308   XZ=              0.0152   YZ=              0.0038

 Normal termination of Gaussian 16 at Fri Feb 26 12:20:50 2021.
