 Gaussian 16, Revision C.01,
 Gaussian 16:  ES64L-G16RevC.01  3-Jul-2019

 ----------------------------------------------------------------------
 #P PBE1PBE/Def2SVP SP SCF=(YQC,MaxCycle=900) int=(Grid=Superfinegrid)
 EmpiricalDispersion=GD3BJ SCRF=(PCM,Solvent=DiMethylSulfoxide)
 ----------------------------------------------------------------------

 --------
 _s_5a3_a
 --------
 Symbolic Z-matrix:
 Charge =  4 Multiplicity = 1

                         Standard orientation:
 ---------------------------------------------------------------------
 Center     Atomic      Atomic             Coordinates (Angstroms)
 Number     Number       Type             X           Y           Z
 ---------------------------------------------------------------------
      1         46           0       -5.766557    0.000437   -0.002452
      2         46           0        7.359310   -0.000926   -0.000975
      3          6           0       -2.879786   -5.088280   -5.030618
      4          6           0       -4.016855   -4.795600   -4.739801
      5          6           0       -5.302342   -4.388214   -4.335487
      6          6           0       -6.450608   -4.938938   -4.875508
      7          6           0       -7.717292   -4.515517   -4.455467
      8          6           0       -7.859103   -3.543963   -3.497948
      9          6           0       -6.712781   -2.956142   -2.921424
     10          6           0       -6.786752   -1.954005   -1.933586
     11          7           0       -5.717194   -1.407081   -1.396844
     12          6           0       -4.481017   -1.802978   -1.790282
     13          6           0       -4.299644   -2.766246   -2.739954
     14          6           0       -5.418902   -3.377121   -3.339193
     15          1           0       -6.367264   -5.705523   -5.631010
     16          1           0       -8.590868   -4.967925   -4.899346
     17          1           0       -8.838769   -3.223939   -3.180300
     18          1           0       -7.753526   -1.600947   -1.583380
     19          1           0       -3.639629   -1.309668   -1.306342
     20          1           0       -3.311869   -3.072388   -3.044141
     21          6           0       -1.542783   -5.404076   -5.345394
     22          6           0       -1.250383   -6.390857   -6.317455
     23          6           0        0.045793   -6.692734   -6.619267
     24          6           0        1.116574   -6.034740   -5.975762
     25          6           0        2.465217   -6.329984   -6.271905
     26          6           0        3.482412   -5.680026   -5.636854
     27          6           0        3.198608   -4.690705   -4.661819
     28          6           0        1.890804   -4.381787   -4.351924
     29          6           0        0.828146   -5.042472   -4.997987
     30          6           0       -0.514817   -4.745808   -4.701119
     31          1           0       -2.064939   -6.897678   -6.813275
     32          1           0        0.270829   -7.445722   -7.361109
     33          1           0        2.679054   -7.084475   -7.015361
     34          1           0        4.511185   -5.910892   -5.868505
     35          1           0        1.671677   -3.629145   -3.610229
     36          1           0       -0.733750   -3.992883   -3.959372
     37          6           0        4.274618   -4.040165   -4.026826
     38          6           0        5.211541   -3.492618   -3.492548
     39          6           0        6.368082   -2.918490   -2.933371
     40          6           0        7.635247   -3.334140   -3.369451
     41          6           0        8.762421   -2.761938   -2.810365
     42          6           0        8.610350   -1.792049   -1.832425
     43          7           0        7.402420   -1.396517   -1.417607
     44          6           0        6.303120   -1.933391   -1.942454
     45          1           0        7.716916   -4.092188   -4.132625
     46          1           0        9.748207   -3.062278   -3.126528
     47          1           0        9.473270   -1.318232   -1.368023
     48          1           0        5.349758   -1.571731   -1.565487
     49          6           0       -2.877898    5.057650   -5.061509
     50          6           0       -4.014942    4.763566   -4.772303
     51          6           0       -5.300549    4.355623   -4.368927
     52          6           0       -6.448621    4.899684   -4.916043
     53          6           0       -7.715492    4.476363   -4.496209
     54          6           0       -7.857627    3.511856   -3.531697
     55          6           0       -6.711471    2.930980   -2.947799
     56          6           0       -6.785780    1.936570   -1.952330
     57          7           0       -5.716410    1.395923   -1.408823
     58          6           0       -4.480009    1.791199   -1.802506
     59          6           0       -4.298284    2.747457   -2.759157
     60          6           0       -5.417474    3.351581   -3.365548
     61          1           0       -6.365107    5.660913   -5.676886
     62          1           0       -8.588970    4.923520   -4.945765
     63          1           0       -8.837358    3.191977   -3.214239
     64          1           0       -7.752604    1.584244   -1.601613
     65          1           0       -3.638794    1.303151   -1.312918
     66          1           0       -3.310521    3.053194   -3.063461
     67          6           0       -1.540727    5.375838   -5.373625
     68          6           0       -1.248303    6.356154   -6.352323
     69          6           0        0.047962    6.660818   -6.651087
     70          6           0        1.118604    6.012325   -5.997891
     71          6           0        2.467275    6.311022   -6.290453
     72          6           0        3.484416    5.670448   -5.645703
     73          6           0        3.200420    4.687343   -4.664466
     74          6           0        1.892598    4.375019   -4.358097
     75          6           0        0.830136    5.026427   -5.013718
     76          6           0       -0.512984    4.726758   -4.720050
     77          1           0       -2.062772    6.855668   -6.855544
     78          1           0        0.273070    7.408923   -7.397878
     79          1           0        2.681210    7.060565   -7.038764
     80          1           0        4.513270    5.904016   -5.874530
     81          1           0        1.673380    3.627235   -3.611532
     82          1           0       -0.731996    3.978923   -3.973212
     83          6           0        4.276406    4.046489   -4.019444
     84          6           0        5.213249    3.507074   -3.477126
     85          6           0        6.369697    2.942375   -2.908014
     86          6           0        7.637031    3.378338   -3.323255
     87          6           0        8.764024    2.814020   -2.755637
     88          6           0        8.611560    1.831625   -1.790549
     89          7           0        7.403410    1.416822   -1.395427
     90          6           0        6.304328    1.946244   -1.928208
     91          1           0        7.719026    4.145434   -4.077304
     92          1           0        9.749898    3.130011   -3.055922
     93          1           0        9.474292    1.363368   -1.320199
     94          1           0        5.350763    1.568884   -1.567344
     95          6           0       -2.879474    5.083431    5.032009
     96          6           0       -4.016363    4.791405    4.739830
     97          6           0       -5.301801    4.385185    4.334345
     98          6           0       -6.450054    4.935888    4.874586
     99          6           0       -7.716867    4.513410    4.453545
    100          6           0       -7.858658    3.542999    3.494928
    101          6           0       -6.712371    2.955432    2.918040
    102          6           0       -6.786431    1.954456    1.929100
    103          7           0       -5.716859    1.407720    1.392077
    104          6           0       -4.480583    1.802841    1.786204
    105          6           0       -4.299206    2.764880    2.737065
    106          6           0       -5.418425    3.375433    3.336811
    107          1           0       -6.366664    5.701464    5.631042
    108          1           0       -8.590318    4.965752    4.897566
    109          1           0       -8.838269    3.223681    3.176624
    110          1           0       -7.753121    1.602109    1.578169
    111          1           0       -3.639287    1.309760    1.301821
    112          1           0       -3.311397    3.070323    3.041861
    113          6           0       -1.542409    5.398349    5.347737
    114          6           0       -1.250076    6.384666    6.320265
    115          6           0        0.046162    6.685880    6.622740
    116          6           0        1.116930    6.027745    5.979403
    117          6           0        2.465552    6.322409    6.276121
    118          6           0        3.482736    5.672503    5.640792
    119          6           0        3.198907    4.683895    4.665200
    120          6           0        1.891104    4.375203    4.354991
    121          6           0        0.828530    5.035896    5.001171
    122          6           0       -0.514572    4.739937    4.703616
    123          1           0       -2.064592    6.891594    6.816046
    124          1           0        0.271180    7.438575    7.364925
    125          1           0        2.679362    7.076470    7.019950
    126          1           0        4.511575    5.903076    5.872810
    127          1           0        1.671880    3.622963    3.612969
    128          1           0       -0.733487    3.987344    3.961587
    129          6           0        4.274917    4.033906    4.029533
    130          6           0        5.211655    3.487131    3.494318
    131          6           0        6.368306    2.913904    2.934177
    132          6           0        7.635407    3.329271    3.370579
    133          6           0        8.762584    2.758167    2.810311
    134          6           0        8.610430    1.789664    1.831047
    135          7           0        7.402559    1.394406    1.415965
    136          6           0        6.303331    1.930299    1.941771
    137          1           0        7.717077    4.086138    4.134828
    138          1           0        9.748361    3.058232    3.126694
    139          1           0        9.473390    1.316701    1.365679
    140          1           0        5.349863    1.568899    1.564546
    141          6           0       -2.882128   -5.052502    5.062651
    142          6           0       -4.019111   -4.758353    4.772830
    143          6           0       -5.304393   -4.350105    4.368973
    144          6           0       -6.452879   -4.891946    4.917346
    145          6           0       -7.719383   -4.467904    4.497257
    146          6           0       -7.860793   -3.504775    3.531275
    147          6           0       -6.714092   -2.926297    2.945889
    148          6           0       -6.787656   -1.933354    1.948776
    149          7           0       -5.717854   -1.394791    1.404090
    150          6           0       -4.481810   -1.790896    1.798019
    151          6           0       -4.300845   -2.745971    2.756063
    152          6           0       -5.420481   -3.347795    3.363867
    153          1           0       -6.369911   -5.651890    5.679545
    154          1           0       -8.593164   -4.913167    4.947939
    155          1           0       -8.840225   -3.184356    3.213630
    156          1           0       -7.754184   -1.580484    1.597802
    157          1           0       -3.640203   -1.304637    1.307283
    158          1           0       -3.313338   -3.052358    3.060345
    159          6           0       -1.545069   -5.370231    5.375555
    160          6           0       -1.252886   -6.349657    6.355144
    161          6           0        0.043338   -6.653929    6.654712
    162          6           0        1.114141   -6.005606    6.001465
    163          6           0        2.462811   -6.303828    6.294744
    164          6           0        3.480064   -5.663839    5.649657
    165          6           0        3.196264   -4.681687    4.667526
    166          6           0        1.888587   -4.369716    4.360506
    167          6           0        0.825908   -5.020697    5.016327
    168          6           0       -0.517108   -4.721464    4.721885
    169          1           0       -2.067490   -6.849063    6.858327
    170          1           0        0.268363   -7.401244    7.402210
    171          1           0        2.676505   -7.052803    7.043848
    172          1           0        4.508811   -5.897090    5.879047
    173          1           0        1.669475   -3.622609    3.613250
    174          1           0       -0.735927   -3.974238    3.974429
    175          6           0        4.272440   -4.041696    4.022044
    176          6           0        5.209610   -3.503580    3.478718
    177          6           0        6.366423   -2.940476    2.908851
    178          6           0        7.633365   -3.376806    3.324830
    179          6           0        8.760911   -2.814551    2.756319
    180          6           0        8.609215   -1.833457    1.789644
    181          7           0        7.401553   -1.418296    1.393843
    182          6           0        6.301932   -1.945873    1.927516
    183          1           0        7.714654   -4.142810    4.080131
    184          1           0        9.746507   -3.130931    3.057020
    185          1           0        9.472429   -1.366815    1.318400
    186          1           0        5.348757   -1.568165    1.565976
 ---------------------------------------------------------------------

 SCF Done:  E(RPBE1PBE) =  -4990.85396876     a.u. after   54 cycles
 SCF Done:  E(RPBE1PBE) =  -4990.85400954     A.U. after    9 cycles

 The electronic state is 1-A.
 Alpha  occ. eigenvalues --  -14.49171 -14.49162 -14.49162 -14.49159 -14.48534
 Alpha  occ. eigenvalues --  -14.48525 -14.48524 -14.48522 -10.32562 -10.32561
 Alpha  occ. eigenvalues --  -10.32561 -10.32558 -10.32457 -10.32457 -10.32456
 Alpha  occ. eigenvalues --  -10.32454 -10.32119 -10.32118 -10.32117 -10.32114
 Alpha  occ. eigenvalues --  -10.31146 -10.31145 -10.31144 -10.31142 -10.30875
 Alpha  occ. eigenvalues --  -10.30874 -10.30874 -10.30874 -10.29395 -10.29395
 Alpha  occ. eigenvalues --  -10.29394 -10.29394 -10.29358 -10.29358 -10.29357
 Alpha  occ. eigenvalues --  -10.29356 -10.29310 -10.29310 -10.29310 -10.29309
 Alpha  occ. eigenvalues --  -10.28867 -10.28867 -10.28866 -10.28866 -10.28287
 Alpha  occ. eigenvalues --  -10.28287 -10.28287 -10.28286 -10.28283 -10.28283
 Alpha  occ. eigenvalues --  -10.28283 -10.28282 -10.28186 -10.28185 -10.28185
 Alpha  occ. eigenvalues --  -10.28185 -10.27819 -10.27819 -10.27819 -10.27818
 Alpha  occ. eigenvalues --  -10.27528 -10.27526 -10.27526 -10.27526 -10.27336
 Alpha  occ. eigenvalues --  -10.27336 -10.27336 -10.27336 -10.26848 -10.26847
 Alpha  occ. eigenvalues --  -10.26846 -10.26845 -10.26839 -10.26838 -10.26838
 Alpha  occ. eigenvalues --  -10.26838 -10.26790 -10.26789 -10.26789 -10.26789
 Alpha  occ. eigenvalues --  -10.26789 -10.26789 -10.26789 -10.26788 -10.26595
 Alpha  occ. eigenvalues --  -10.26594 -10.26594 -10.26594 -10.26442 -10.26441
 Alpha  occ. eigenvalues --  -10.26441 -10.26441 -10.26364 -10.26364 -10.26363
 Alpha  occ. eigenvalues --  -10.26361 -10.26230 -10.26229 -10.26229 -10.26228
 Alpha  occ. eigenvalues --  -10.26104 -10.26104 -10.26103 -10.26103 -10.26062
 Alpha  occ. eigenvalues --  -10.26061 -10.26061 -10.26061 -10.25890 -10.25889
 Alpha  occ. eigenvalues --  -10.25889 -10.25888 -10.25718 -10.25717 -10.25717
 Alpha  occ. eigenvalues --  -10.25717 -10.25701 -10.25701 -10.25700 -10.25700
 Alpha  occ. eigenvalues --   -3.57682  -3.57314  -2.25594  -2.25591  -2.25223
 Alpha  occ. eigenvalues --   -2.25219  -2.21383  -2.21038  -1.04558  -1.03986
 Alpha  occ. eigenvalues --   -1.03837  -1.03833  -1.03769  -1.03245  -1.03241
 Alpha  occ. eigenvalues --   -1.03179  -0.92968  -0.92951  -0.92950  -0.92950
 Alpha  occ. eigenvalues --   -0.92806  -0.92722  -0.92716  -0.92715  -0.89166
 Alpha  occ. eigenvalues --   -0.89027  -0.89014  -0.89014  -0.88494  -0.88380
 Alpha  occ. eigenvalues --   -0.88360  -0.88360  -0.85566  -0.85522  -0.85521
 Alpha  occ. eigenvalues --   -0.85474  -0.84618  -0.84507  -0.84506  -0.84428
 Alpha  occ. eigenvalues --   -0.84061  -0.83882  -0.83854  -0.83853  -0.83110
 Alpha  occ. eigenvalues --   -0.83035  -0.83035  -0.83016  -0.81421  -0.81371
 Alpha  occ. eigenvalues --   -0.81371  -0.81314  -0.80938  -0.80883  -0.80882
 Alpha  occ. eigenvalues --   -0.80792  -0.79194  -0.79150  -0.79150  -0.79098
 Alpha  occ. eigenvalues --   -0.76699  -0.76633  -0.76632  -0.76555  -0.75497
 Alpha  occ. eigenvalues --   -0.75486  -0.75485  -0.75466  -0.71759  -0.71621
 Alpha  occ. eigenvalues --   -0.71620  -0.71608  -0.71327  -0.71288  -0.71286
 Alpha  occ. eigenvalues --   -0.71125  -0.69777  -0.69511  -0.69327  -0.69326
 Alpha  occ. eigenvalues --   -0.69239  -0.68941  -0.68931  -0.68930  -0.68748
 Alpha  occ. eigenvalues --   -0.68706  -0.68706  -0.68690  -0.67261  -0.67209
 Alpha  occ. eigenvalues --   -0.67209  -0.67182  -0.65897  -0.65856  -0.65856
 Alpha  occ. eigenvalues --   -0.65826  -0.63932  -0.63931  -0.63930  -0.63930
 Alpha  occ. eigenvalues --   -0.62267  -0.61569  -0.61006  -0.61005  -0.60734
 Alpha  occ. eigenvalues --   -0.60285  -0.60148  -0.60147  -0.58794  -0.58491
 Alpha  occ. eigenvalues --   -0.58287  -0.58276  -0.58276  -0.58045  -0.58024
 Alpha  occ. eigenvalues --   -0.58023  -0.57069  -0.56804  -0.56795  -0.56759
 Alpha  occ. eigenvalues --   -0.56759  -0.56563  -0.56339  -0.56339  -0.56267
 Alpha  occ. eigenvalues --   -0.56136  -0.56019  -0.56018  -0.55286  -0.55278
 Alpha  occ. eigenvalues --   -0.55278  -0.55276  -0.54824  -0.54475  -0.54474
 Alpha  occ. eigenvalues --   -0.54153  -0.52721  -0.52585  -0.51974  -0.51863
 Alpha  occ. eigenvalues --   -0.51863  -0.51691  -0.51634  -0.51485  -0.51328
 Alpha  occ. eigenvalues --   -0.51327  -0.51283  -0.51047  -0.50341  -0.50340
 Alpha  occ. eigenvalues --   -0.50340  -0.50303  -0.49763  -0.49513  -0.49511
 Alpha  occ. eigenvalues --   -0.49458  -0.49347  -0.49233  -0.49043  -0.49038
 Alpha  occ. eigenvalues --   -0.49012  -0.48999  -0.48833  -0.48710  -0.48707
 Alpha  occ. eigenvalues --   -0.48544  -0.48171  -0.48168  -0.48167  -0.48159
 Alpha  occ. eigenvalues --   -0.47980  -0.47970  -0.47325  -0.47316  -0.47316
 Alpha  occ. eigenvalues --   -0.47308  -0.47244  -0.47077  -0.46834  -0.46834
 Alpha  occ. eigenvalues --   -0.46091  -0.45537  -0.45528  -0.45525  -0.45525
 Alpha  occ. eigenvalues --   -0.45441  -0.45432  -0.45432  -0.45428  -0.45414
 Alpha  occ. eigenvalues --   -0.44680  -0.44604  -0.44603  -0.44536  -0.44536
 Alpha  occ. eigenvalues --   -0.44505  -0.44085  -0.44021  -0.43882  -0.43756
 Alpha  occ. eigenvalues --   -0.43490  -0.43488  -0.43192  -0.42985  -0.42978
 Alpha  occ. eigenvalues --   -0.42172  -0.42151  -0.42132  -0.42132  -0.42048
 Alpha  occ. eigenvalues --   -0.41927  -0.41885  -0.41848  -0.41847  -0.41796
 Alpha  occ. eigenvalues --   -0.40738  -0.40736  -0.40455  -0.40239  -0.40087
 Alpha  occ. eigenvalues --   -0.39945  -0.39601  -0.39600  -0.39508  -0.39405
 Alpha  occ. eigenvalues --   -0.38737  -0.38735  -0.38721  -0.38715  -0.38695
 Alpha  occ. eigenvalues --   -0.38693  -0.37980  -0.37395  -0.37363  -0.37362
 Alpha  occ. eigenvalues --   -0.37049  -0.37048  -0.37001  -0.37000  -0.36498
 Alpha  occ. eigenvalues --   -0.36461  -0.36456  -0.36228  -0.36226  -0.36105
 Alpha  occ. eigenvalues --   -0.35681  -0.34647  -0.34644  -0.34431  -0.34427
 Alpha  occ. eigenvalues --   -0.34381  -0.33955  -0.33952  -0.33808  -0.33528
 Alpha  occ. eigenvalues --   -0.33525  -0.33308  -0.32649  -0.32648  -0.32449
 Alpha  occ. eigenvalues --   -0.32277  -0.32071  -0.31691  -0.31646  -0.31562
 Alpha  occ. eigenvalues --   -0.31561  -0.31472  -0.31470  -0.31350  -0.31089
 Alpha  occ. eigenvalues --   -0.31069  -0.31052  -0.31052  -0.30707  -0.30570
 Alpha  occ. eigenvalues --   -0.30436  -0.30433  -0.30216  -0.29163  -0.28843
 Alpha  occ. eigenvalues --   -0.28262  -0.28170  -0.28168  -0.27975  -0.25280
 Alpha  occ. eigenvalues --   -0.25177  -0.25176  -0.25047  -0.24153  -0.24115
 Alpha  occ. eigenvalues --   -0.24114  -0.24052
 Alpha virt. eigenvalues --   -0.10232  -0.10129  -0.10124  -0.09741  -0.09634
 Alpha virt. eigenvalues --   -0.09360  -0.09356  -0.08804  -0.07558  -0.07550
 Alpha virt. eigenvalues --   -0.07389  -0.07230  -0.07223  -0.07172  -0.06882

 Mulliken charges:
               1
     1  Pd   0.506575
     2  Pd   0.506225
     3  C    0.006664
     4  C   -0.061562
     5  C   -0.016449
     6  C    0.019299
     7  C   -0.001798
     8  C    0.020113
     9  C   -0.062957
    10  C    0.181803
    11  N   -0.317436
    12  C    0.149673
    13  C   -0.011129
    14  C    0.065248
    15  H    0.043454
    16  H    0.054348
    17  H    0.043523
    18  H    0.087926
    19  H    0.090672
    20  H    0.045254
    21  C   -0.059801
    22  C    0.026831
    23  C   -0.011257
    24  C    0.005516
    25  C   -0.010811
    26  C    0.024657
    27  C   -0.069908
    28  C   -0.007243
    29  C    0.036571
    30  C   -0.024101
    31  H    0.033150
    32  H    0.030491
    33  H    0.030502
    34  H    0.033655
    35  H    0.025493
    36  H    0.028030
    37  C    0.016667
    38  C   -0.014941
    39  C   -0.120281
    40  C    0.102313
    41  C   -0.029660
    42  C    0.146356
    43  N   -0.311653
    44  C    0.193449
    45  H    0.064665
    46  H    0.071654
    47  H    0.107633
    48  H    0.092185
    49  C    0.006656
    50  C   -0.061610
    51  C   -0.016432
    52  C    0.019288
    53  C   -0.001858
    54  C    0.020168
    55  C   -0.062908
    56  C    0.181796
    57  N   -0.317526
    58  C    0.149707
    59  C   -0.011003
    60  C    0.065182
    61  H    0.043446
    62  H    0.054393
    63  H    0.043499
    64  H    0.087908
    65  H    0.090693
    66  H    0.045189
    67  C   -0.059727
    68  C    0.026862
    69  C   -0.011302
    70  C    0.005562
    71  C   -0.010799
    72  C    0.024619
    73  C   -0.069867
    74  C   -0.007260
    75  C    0.036527
    76  C   -0.024083
    77  H    0.033132
    78  H    0.030511
    79  H    0.030466
    80  H    0.033692
    81  H    0.025501
    82  H    0.028021
    83  C    0.016596
    84  C   -0.014943
    85  C   -0.120254
    86  C    0.102297
    87  C   -0.029674
    88  C    0.146405
    89  N   -0.311706
    90  C    0.193436
    91  H    0.064679
    92  H    0.071666
    93  H    0.107606
    94  H    0.092235
    95  C    0.006652
    96  C   -0.061588
    97  C   -0.016492
    98  C    0.019325
    99  C   -0.001759
   100  C    0.020184
   101  C   -0.062933
   102  C    0.181844
   103  N   -0.317569
   104  C    0.149736
   105  C   -0.011138
   106  C    0.065262
   107  H    0.043443
   108  H    0.054319
   109  H    0.043485
   110  H    0.087880
   111  H    0.090708
   112  H    0.045277
   113  C   -0.059709
   114  C    0.026809
   115  C   -0.011301
   116  C    0.005541
   117  C   -0.010815
   118  C    0.024574
   119  C   -0.069823
   120  C   -0.007221
   121  C    0.036478
   122  C   -0.024057
   123  H    0.033158
   124  H    0.030509
   125  H    0.030478
   126  H    0.033706
   127  H    0.025479
   128  H    0.028005
   129  C    0.016640
   130  C   -0.014968
   131  C   -0.120234
   132  C    0.102345
   133  C   -0.029628
   134  C    0.146305
   135  N   -0.311611
   136  C    0.193343
   137  H    0.064626
   138  H    0.071641
   139  H    0.107668
   140  H    0.092235
   141  C    0.006650
   142  C   -0.061582
   143  C   -0.016419
   144  C    0.019302
   145  C   -0.001811
   146  C    0.020228
   147  C   -0.062998
   148  C    0.181819
   149  N   -0.317532
   150  C    0.149689
   151  C   -0.010965
   152  C    0.065203
   153  H    0.043442
   154  H    0.054354
   155  H    0.043472
   156  H    0.087912
   157  H    0.090704
   158  H    0.045133
   159  C   -0.059724
   160  C    0.026828
   161  C   -0.011229
   162  C    0.005458
   163  C   -0.010822
   164  C    0.024632
   165  C   -0.069816
   166  C   -0.007223
   167  C    0.036505
   168  C   -0.024076
   169  H    0.033159
   170  H    0.030475
   171  H    0.030523
   172  H    0.033664
   173  H    0.025491
   174  H    0.028002
   175  C    0.016625
   176  C   -0.014933
   177  C   -0.120224
   178  C    0.102228
   179  C   -0.029621
   180  C    0.146347
   181  N   -0.311708
   182  C    0.193388
   183  H    0.064704
   184  H    0.071651
   185  H    0.107688
   186  H    0.092206
 Sum of Mulliken charges =   4.00000

 Dipole moment (field-independent basis, Debye):
    X=             13.2305    Y=              0.0003    Z=             -0.0097  Tot=             13.2305
 Quadrupole moment (field-independent basis, Debye-Ang):
   XX=            337.4268   YY=           -471.4821   ZZ=           -473.8194
   XY=             -0.1011   XZ=              0.0289   YZ=             -0.0025

 Normal termination of Gaussian 16 at Fri Feb 26 16:04:57 2021.
