 Gaussian 16, Revision C.01,
 Gaussian 16:  ES64L-G16RevC.01  3-Jul-2019

 ----------------------------------------------------------------------
 #P PBE1PBE/Def2SVP SP SCF=(YQC,MaxCycle=900) int=(Grid=Superfinegrid)
 EmpiricalDispersion=GD3BJ SCRF=(PCM,Solvent=DiMethylSulfoxide)
 ----------------------------------------------------------------------

 --------
 _s_4d2_b
 --------
 Symbolic Z-matrix:
 Charge =  4 Multiplicity = 1

                         Standard orientation:
 ---------------------------------------------------------------------
 Center     Atomic      Atomic             Coordinates (Angstroms)
 Number     Number       Type             X           Y           Z
 ---------------------------------------------------------------------
      1         46           0        3.820353   -1.117551   -1.615018
      2         46           0       -5.127167    0.663039    1.126051
      3          6           0       -5.189495   -2.670685   -3.652155
      4          6           0       -6.267764   -2.331213   -3.220346
      5          6           0       -7.542557   -1.971474   -2.737365
      6          6           0       -8.678777   -2.376300   -3.412526
      7          6           0       -9.954272   -2.046142   -2.938941
      8          6           0      -10.118662   -1.314890   -1.789225
      9          6           0       -8.992595   -0.878768   -1.065847
     10          6           0       -9.086368   -0.122921    0.125211
     11          6           0       -7.950789    0.274891    0.774691
     12          7           0       -6.724542   -0.038329    0.304856
     13          6           0       -6.591454   -0.744123   -0.799830
     14          6           0       -7.688612   -1.203994   -1.541444
     15          1           0       -8.581941   -2.955884   -4.317834
     16          1           0      -10.818546   -2.379212   -3.493168
     17          1           0      -11.105210   -1.068099   -1.429305
     18          1           0      -10.059831    0.135993    0.509823
     19          1           0       -7.978137    0.856262    1.692550
     20          1           0       -5.580161   -0.974737   -1.141847
     21          6           0       -3.949743   -3.134276   -4.147385
     22          6           0       -3.933525   -4.151623   -5.107440
     23          6           0       -2.725065   -4.639499   -5.568477
     24          6           0       -1.529762   -4.132857   -5.087417
     25          6           0       -1.527243   -3.113719   -4.131506
     26          6           0       -2.746003   -2.616150   -3.671754
     27          1           0       -4.863947   -4.553308   -5.478404
     28          1           0       -2.714127   -5.428032   -6.305629
     29          1           0       -0.601052   -4.556455   -5.435562
     30          1           0       -2.770097   -1.799451   -2.968707
     31          6           0       -0.261012   -2.600187   -3.595534
     32          6           0        0.900896   -2.528725   -4.370672
     33          6           0        2.077110   -2.074108   -3.805906
     34          7           0        2.149215   -1.675493   -2.533928
     35          6           0        1.044092   -1.716897   -1.775720
     36          6           0       -0.159971   -2.175252   -2.264263
     37          1           0        0.888609   -2.815434   -5.409624
     38          1           0        2.990968   -2.020714   -4.388643
     39          1           0        1.156618   -1.376460   -0.745454
     40          1           0       -1.014322   -2.238219   -1.611333
     41          6           0        1.761903   -3.866188    3.836957
     42          6           0        2.717213   -4.204349    3.175520
     43          6           0        3.775386   -4.804561    2.466079
     44          6           0        4.422056   -5.887660    3.037272
     45          6           0        5.383670   -6.613641    2.329083
     46          6           0        5.692556   -6.290218    1.031010
     47          6           0        5.076968   -5.184780    0.418649
     48          6           0        5.343433   -4.811556   -0.918491
     49          6           0        4.761100   -3.695053   -1.439054
     50          7           0        3.949759   -2.891189   -0.698977
     51          6           0        3.636986   -3.235410    0.534213
     52          6           0        4.137677   -4.397009    1.147077
     53          1           0        4.161504   -6.187917    4.040729
     54          1           0        5.865730   -7.452501    2.807441
     55          1           0        6.405213   -6.874756    0.470695
     56          1           0        6.011004   -5.415469   -1.512234
     57          1           0        4.917799   -3.400053   -2.479038
     58          1           0        2.979990   -2.569460    1.083416
     59          6           0        0.579213   -3.553641    4.541256
     60          6           0        0.444279   -3.897849    5.889716
     61          6           0       -0.758342   -3.673995    6.535146
     62          6           0       -1.833375   -3.121358    5.858788
     63          6           0       -1.711710   -2.771792    4.512415
     64          6           0       -0.495039   -2.978884    3.865411
     65          1           0        1.273623   -4.343206    6.417455
     66          1           0       -0.864188   -3.945920    7.574517
     67          1           0       -2.774124   -2.998539    6.371751
     68          1           0       -0.366960   -2.691333    2.834504
     69          6           0       -2.829460   -2.193121    3.761268
     70          6           0       -2.977186   -2.460676    2.393523
     71          6           0       -3.927856   -1.779448    1.665783
     72          7           0       -4.748219   -0.890577    2.234931
     73          6           0       -4.700230   -0.701862    3.556249
     74          6           0       -3.759594   -1.329255    4.348418
     75          1           0       -2.351218   -3.193578    1.910658
     76          1           0       -4.066435   -1.954342    0.600648
     77          1           0       -5.439802   -0.023558    3.972329
     78          1           0       -3.719217   -1.112775    5.403531
     79          6           0        3.813266    2.693765    2.913739
     80          6           0        4.877485    2.190985    2.636852
     81          6           0        6.146469    1.664689    2.328185
     82          6           0        7.252711    2.054979    3.059668
     83          6           0        8.529327    1.573309    2.748986
     84          6           0        8.723223    0.710952    1.699125
     85          6           0        7.626996    0.288439    0.924548
     86          6           0        7.759560   -0.581879   -0.179797
     87          6           0        6.655433   -0.950834   -0.891504
     88          7           0        5.413721   -0.523328   -0.563854
     89          6           0        5.247716    0.293452    0.459887
     90          6           0        6.317383    0.752439    1.242690
     91          1           0        7.129245    2.743356    3.881769
     92          1           0        9.369859    1.896445    3.344053
     93          1           0        9.710503    0.351736    1.454558
     94          1           0        8.736849   -0.944521   -0.454942
     95          1           0        6.726356   -1.608190   -1.751236
     96          1           0        4.229041    0.608781    0.680783
     97          6           0        2.568120    3.296552    3.194240
     98          6           0        2.521633    4.560838    3.789571
     99          6           0        1.298025    5.157173    4.033173
    100          6           0        0.120499    4.514148    3.693814
    101          6           0        0.152203    3.249975    3.097660
    102          6           0        1.384228    2.645045    2.854955
    103          1           0        3.439545    5.064131    4.051602
    104          1           0        1.262011    6.134512    4.489705
    105          1           0       -0.819975    5.012974    3.863982
    106          1           0        1.437354    1.648932    2.445318
    107          6           0       -1.089478    2.582151    2.701710
    108          6           0       -2.275724    2.740392    3.424980
    109          6           0       -3.428642    2.138412    2.979955
    110          7           0       -3.449055    1.381576    1.877115
    111          6           0       -2.317487    1.176554    1.192074
    112          6           0       -1.134566    1.765593    1.564671
    113          1           0       -2.295396    3.321619    4.332244
    114          1           0       -4.376789    2.245499    3.492773
    115          1           0       -2.404620    0.525484    0.326814
    116          1           0       -0.251437    1.618914    0.965143
    117          6           0        1.463103    4.945420   -1.661471
    118          6           0        2.461098    4.522495   -2.199457
    119          6           0        3.601737    4.222938   -2.970459
    120          6           0        4.236917    5.273535   -3.612448
    121          6           0        5.311955    5.054370   -4.477479
    122          6           0        5.758747    3.781368   -4.730076
    123          6           0        5.156480    2.686848   -4.085842
    124          6           0        5.573489    1.355706   -4.312877
    125          6           0        4.986655    0.336039   -3.626286
    126          7           0        4.015354    0.552363   -2.697345
    127          6           0        3.571339    1.775417   -2.488715
    128          6           0        4.082936    2.894777   -3.170042
    129          1           0        3.880679    6.279766   -3.452888
    130          1           0        5.778261    5.898788   -4.961442
    131          1           0        6.570425    3.606648   -5.418537
    132          1           0        6.358433    1.162423   -5.026509
    133          1           0        5.278490   -0.703585   -3.795931
    134          1           0        2.786331    1.896893   -1.750671
    135          6           0        0.260185    5.454656   -1.126042
    136          6           0        0.165973    6.811043   -0.797263
    137          6           0       -1.039384    7.327795   -0.359367
    138          6           0       -2.155231    6.516090   -0.241499
    139          6           0       -2.073122    5.158825   -0.558302
    140          6           0       -0.857484    4.634241   -0.994295
    141          1           0        1.030659    7.449025   -0.895965
    142          1           0       -1.114202    8.377042   -0.117188
    143          1           0       -3.095259    6.948680    0.062452
    144          1           0       -0.766480    3.585535   -1.228120
    145          6           0       -3.224345    4.263942   -0.414008
    146          6           0       -4.162747    4.424676    0.610815
    147          6           0       -5.098778    3.435503    0.834940
    148          7           0       -5.141317    2.325370    0.093902
    149          6           0       -4.337824    2.211842   -0.969441
    150          6           0       -3.384920    3.162109   -1.265303
    151          1           0       -4.123173    5.281409    1.263586
    152          1           0       -5.831390    3.504514    1.633499
    153          1           0       -4.489081    1.336522   -1.597946
    154          1           0       -2.758357    3.045348   -2.134835
 ---------------------------------------------------------------------

 SCF Done:  E(RPBE1PBE) =  -4073.31556306     a.u. after   20 cycles
 SCF Done:  E(RPBE1PBE) =  -4073.31581730     A.U. after   10 cycles

 The electronic state is 1-A.
 Alpha  occ. eigenvalues --  -14.48735 -14.48589 -14.48573 -14.48554 -14.48527
 Alpha  occ. eigenvalues --  -14.48502 -14.48022 -14.47427 -10.32645 -10.32634
 Alpha  occ. eigenvalues --  -10.32553 -10.32512 -10.32304 -10.32190 -10.32040
 Alpha  occ. eigenvalues --  -10.32002 -10.32000 -10.31974 -10.31950 -10.31922
 Alpha  occ. eigenvalues --  -10.31137 -10.31121 -10.31082 -10.31061 -10.30634
 Alpha  occ. eigenvalues --  -10.30539 -10.30418 -10.30292 -10.29996 -10.29989
 Alpha  occ. eigenvalues --  -10.29936 -10.29920 -10.29359 -10.29336 -10.29252
 Alpha  occ. eigenvalues --  -10.29247 -10.29219 -10.29215 -10.29211 -10.29203
 Alpha  occ. eigenvalues --  -10.28809 -10.28775 -10.28772 -10.28736 -10.28373
 Alpha  occ. eigenvalues --  -10.28356 -10.28291 -10.28275 -10.28243 -10.28204
 Alpha  occ. eigenvalues --  -10.28178 -10.28128 -10.28005 -10.27989 -10.27965
 Alpha  occ. eigenvalues --  -10.27926 -10.27916 -10.27913 -10.27908 -10.27906
 Alpha  occ. eigenvalues --  -10.27385 -10.27383 -10.27367 -10.27364 -10.27269
 Alpha  occ. eigenvalues --  -10.27230 -10.27186 -10.27174 -10.27174 -10.27151
 Alpha  occ. eigenvalues --  -10.27151 -10.27136 -10.26957 -10.26953 -10.26949
 Alpha  occ. eigenvalues --  -10.26945 -10.26781 -10.26769 -10.26752 -10.26747
 Alpha  occ. eigenvalues --  -10.26739 -10.26719 -10.26710 -10.26706 -10.26701
 Alpha  occ. eigenvalues --  -10.26682 -10.26667 -10.26656 -10.26396 -10.26375
 Alpha  occ. eigenvalues --  -10.26353 -10.26329 -10.26167 -10.26145 -10.26114
 Alpha  occ. eigenvalues --  -10.26072  -3.57990  -3.57554  -2.26065  -2.25849
 Alpha  occ. eigenvalues --   -2.25472  -2.25377  -2.21809  -2.21321  -1.04746
 Alpha  occ. eigenvalues --   -1.03949  -1.03690  -1.03492  -1.03289  -1.03165
 Alpha  occ. eigenvalues --   -1.03150  -1.03092  -0.92919  -0.92841  -0.92838
 Alpha  occ. eigenvalues --   -0.92828  -0.92666  -0.92596  -0.92564  -0.92492
 Alpha  occ. eigenvalues --   -0.88452  -0.88253  -0.88175  -0.88138  -0.86179
 Alpha  occ. eigenvalues --   -0.86114  -0.86106  -0.86089  -0.83914  -0.83373
 Alpha  occ. eigenvalues --   -0.83338  -0.83292  -0.83272  -0.83169  -0.83076
 Alpha  occ. eigenvalues --   -0.82985  -0.82921  -0.82838  -0.82786  -0.82713
 Alpha  occ. eigenvalues --   -0.80969  -0.80883  -0.80867  -0.80772  -0.79879
 Alpha  occ. eigenvalues --   -0.79797  -0.79713  -0.79704  -0.76439  -0.76415
 Alpha  occ. eigenvalues --   -0.76371  -0.76350  -0.71670  -0.71466  -0.71380
 Alpha  occ. eigenvalues --   -0.71314  -0.71218  -0.70894  -0.70710  -0.70506
 Alpha  occ. eigenvalues --   -0.70394  -0.70174  -0.70047  -0.69980  -0.69479
 Alpha  occ. eigenvalues --   -0.69443  -0.69301  -0.69196  -0.67967  -0.67915
 Alpha  occ. eigenvalues --   -0.67851  -0.67840  -0.65594  -0.65558  -0.65535
 Alpha  occ. eigenvalues --   -0.65484  -0.64401  -0.64184  -0.64140  -0.64100
 Alpha  occ. eigenvalues --   -0.61484  -0.60757  -0.60711  -0.60587  -0.60310
 Alpha  occ. eigenvalues --   -0.59647  -0.59501  -0.59350  -0.58462  -0.58225
 Alpha  occ. eigenvalues --   -0.58173  -0.57995  -0.57612  -0.57371  -0.57040
 Alpha  occ. eigenvalues --   -0.56827  -0.56290  -0.56284  -0.56105  -0.56009
 Alpha  occ. eigenvalues --   -0.55819  -0.55777  -0.55582  -0.55171  -0.53512
 Alpha  occ. eigenvalues --   -0.53411  -0.53301  -0.53202  -0.53134  -0.52873
 Alpha  occ. eigenvalues --   -0.52653  -0.52329  -0.52250  -0.51536  -0.51464
 Alpha  occ. eigenvalues --   -0.51372  -0.51175  -0.50975  -0.50951  -0.50772
 Alpha  occ. eigenvalues --   -0.50761  -0.50660  -0.50643  -0.50558  -0.50535
 Alpha  occ. eigenvalues --   -0.50490  -0.50313  -0.50182  -0.50009  -0.49790
 Alpha  occ. eigenvalues --   -0.49510  -0.49364  -0.49157  -0.49021  -0.48794
 Alpha  occ. eigenvalues --   -0.48756  -0.48679  -0.48537  -0.48435  -0.48399
 Alpha  occ. eigenvalues --   -0.48328  -0.48277  -0.47957  -0.47772  -0.47301
 Alpha  occ. eigenvalues --   -0.47216  -0.47172  -0.46893  -0.46716  -0.46625
 Alpha  occ. eigenvalues --   -0.46407  -0.45899  -0.45604  -0.45051  -0.44948
 Alpha  occ. eigenvalues --   -0.44486  -0.44233  -0.43956  -0.43855  -0.43811
 Alpha  occ. eigenvalues --   -0.43741  -0.43607  -0.43485  -0.43319  -0.42861
 Alpha  occ. eigenvalues --   -0.42534  -0.42411  -0.42252  -0.42166  -0.42063
 Alpha  occ. eigenvalues --   -0.41905  -0.41839  -0.41618  -0.41071  -0.40983
 Alpha  occ. eigenvalues --   -0.40206  -0.40176  -0.40042  -0.39947  -0.39890
 Alpha  occ. eigenvalues --   -0.39825  -0.39691  -0.39688  -0.39504  -0.39425
 Alpha  occ. eigenvalues --   -0.39148  -0.39081  -0.38985  -0.38853  -0.38239
 Alpha  occ. eigenvalues --   -0.38023  -0.38009  -0.37646  -0.37308  -0.36950
 Alpha  occ. eigenvalues --   -0.36670  -0.36421  -0.36174  -0.36011  -0.35616
 Alpha  occ. eigenvalues --   -0.35578  -0.35105  -0.34844  -0.34486  -0.34268
 Alpha  occ. eigenvalues --   -0.34005  -0.33705  -0.33546  -0.33503  -0.33169
 Alpha  occ. eigenvalues --   -0.32656  -0.32140  -0.32095  -0.31954  -0.31743
 Alpha  occ. eigenvalues --   -0.31696  -0.31580  -0.31395  -0.31354  -0.31180
 Alpha  occ. eigenvalues --   -0.30844  -0.30652  -0.29662  -0.29626  -0.29581
 Alpha  occ. eigenvalues --   -0.29410  -0.29336  -0.29076  -0.28906  -0.28819
 Alpha  occ. eigenvalues --   -0.28702  -0.28386  -0.25316  -0.25233  -0.25153
 Alpha  occ. eigenvalues --   -0.25114
 Alpha virt. eigenvalues --   -0.10941  -0.10657  -0.10569  -0.10451  -0.10071
 Alpha virt. eigenvalues --   -0.09654  -0.08936  -0.08575  -0.07585  -0.06788
 Alpha virt. eigenvalues --   -0.06680  -0.06322  -0.06106  -0.06006  -0.05918

 Mulliken charges:
               1
     1  Pd   0.490826
     2  Pd   0.405785
     3  C    0.012372
     4  C   -0.067088
     5  C   -0.005435
     6  C    0.003460
     7  C    0.014561
     8  C    0.007421
     9  C    0.032146
    10  C   -0.019275
    11  C    0.159436
    12  N   -0.311384
    13  C    0.170717
    14  C   -0.009971
    15  H    0.042909
    16  H    0.056467
    17  H    0.042037
    18  H    0.054799
    19  H    0.103991
    20  H    0.087600
    21  C   -0.072945
    22  C    0.025100
    23  C   -0.010402
    24  C   -0.016625
    25  C    0.035092
    26  C   -0.010103
    27  H    0.039629
    28  H    0.047136
    29  H    0.042063
    30  H    0.033705
    31  C    0.066507
    32  C   -0.044460
    33  C    0.164702
    34  N   -0.316956
    35  C    0.162308
    36  C   -0.040655
    37  H    0.061062
    38  H    0.092429
    39  H    0.103066
    40  H    0.056954
    41  C    0.027855
    42  C   -0.076864
    43  C   -0.016051
    44  C    0.006182
    45  C    0.015441
    46  C    0.007257
    47  C    0.028776
    48  C   -0.005737
    49  C    0.121391
    50  N   -0.322917
    51  C    0.179568
    52  C   -0.010615
    53  H    0.043160
    54  H    0.056684
    55  H    0.042491
    56  H    0.054535
    57  H    0.113087
    58  H    0.076639
    59  C   -0.073567
    60  C    0.027467
    61  C   -0.011768
    62  C   -0.011056
    63  C    0.029332
    64  C   -0.008124
    65  H    0.039691
    66  H    0.047621
    67  H    0.042170
    68  H    0.033146
    69  C    0.062067
    70  C   -0.031132
    71  C    0.144719
    72  N   -0.319256
    73  C    0.143295
    74  C   -0.021671
    75  H    0.063126
    76  H    0.095488
    77  H    0.102822
    78  H    0.061731
    79  C    0.013346
    80  C   -0.065465
    81  C   -0.011040
    82  C    0.005683
    83  C    0.015557
    84  C    0.008235
    85  C    0.029908
    86  C   -0.015176
    87  C    0.147475
    88  N   -0.324146
    89  C    0.178611
    90  C   -0.005823
    91  H    0.042737
    92  H    0.056628
    93  H    0.042057
    94  H    0.053439
    95  H    0.089865
    96  H    0.088588
    97  C   -0.073674
    98  C    0.028362
    99  C   -0.009882
   100  C   -0.014202
   101  C    0.033372
   102  C   -0.013129
   103  H    0.039913
   104  H    0.047467
   105  H    0.041633
   106  H    0.035954
   107  C    0.071540
   108  C   -0.027462
   109  C    0.163807
   110  N   -0.347710
   111  C    0.155699
   112  C   -0.029475
   113  H    0.059547
   114  H    0.103500
   115  H    0.117121
   116  H    0.058351
   117  C    0.029905
   118  C   -0.080229
   119  C   -0.017267
   120  C    0.004798
   121  C    0.015676
   122  C    0.007352
   123  C    0.027667
   124  C   -0.008328
   125  C    0.127589
   126  N   -0.324075
   127  C    0.178059
   128  C   -0.005648
   129  H    0.043126
   130  H    0.056404
   131  H    0.042492
   132  H    0.054831
   133  H    0.110369
   134  H    0.077023
   135  C   -0.073598
   136  C    0.027632
   137  C   -0.010270
   138  C   -0.012950
   139  C    0.032892
   140  C   -0.005976
   141  H    0.040084
   142  H    0.047952
   143  H    0.042981
   144  H    0.034132
   145  C    0.048330
   146  C   -0.012268
   147  C    0.138405
   148  N   -0.314085
   149  C    0.127442
   150  C   -0.018960
   151  H    0.062348
   152  H    0.104668
   153  H    0.099983
   154  H    0.064343
 Sum of Mulliken charges =   4.00000

 Dipole moment (field-independent basis, Debye):
    X=             -2.0009    Y=             -1.1964    Z=             -1.5213  Tot=              2.7838
 Quadrupole moment (field-independent basis, Debye-Ang):
   XX=            -13.2863   YY=           -347.7568   ZZ=           -372.2976
   XY=            -46.3686   XZ=            -69.3994   YZ=             31.4678

 Normal termination of Gaussian 16 at Fri Feb 26 16:34:09 2021.
