 Gaussian 16, Revision C.01,
 Gaussian 16:  ES64L-G16RevC.01  3-Jul-2019

 ------------------------------------------------------------------
 # SP PBE1PBE/def2svp empiricaldispersion=GD3BJ scrf=(solvent=dmso)
 ------------------------------------------------------------------

 ---------
 cis_l1_lb
 ---------
 Symbolic Z-matrix:
 Charge =  4 Multiplicity = 1

                         Standard orientation:
 ---------------------------------------------------------------------
 Center     Atomic      Atomic             Coordinates (Angstroms)
 Number     Number       Type             X           Y           Z
 ---------------------------------------------------------------------
      1         46           0        7.220296   -1.723101    0.302204
      2         46           0       -7.200004   -1.765001    0.161604
      3          6           0        4.884196   -2.349001   -1.341496
      4          7           0        5.984296   -2.895001   -0.802696
      5          6           0        6.198796   -4.210901   -0.942596
      6          6           0        5.300496   -5.033701   -1.602996
      7          6           0        4.122796   -4.493801   -2.139996
      8          6           0        3.092296   -5.333401   -2.777096
      9          6           0        3.440596   -6.484101   -3.517896
     10          6           0        2.479996   -7.298101   -4.111296
     11          6           0        1.151796   -6.935001   -3.930696
     12          8           0        0.065596   -7.605301   -4.403696
     13          6           0       -1.033404   -6.924801   -3.976896
     14          6           0       -2.356204   -7.276301   -4.212096
     15          6           0       -3.333204   -6.455501   -3.656196
     16          6           0       -3.005704   -5.307201   -2.901996
     17          6           0       -4.053104   -4.469301   -2.290696
     18          6           0       -3.875004   -3.085501   -2.140196
     19          6           0       -4.828604   -2.334401   -1.477896
     20          7           0       -5.940004   -2.886701   -0.969996
     21          6           0       -6.155304   -4.199201   -1.137996
     22          6           0       -5.245004   -5.014001   -1.791096
     23          6           0       -1.662704   -4.970601   -2.694396
     24          6           0       -0.673804   -5.790701   -3.227096
     25          6           0        0.771396   -5.798101   -3.195496
     26          6           0        1.744596   -4.988601   -2.619196
     27          6           0        3.943196   -3.107901   -2.011996
     28          1           0        4.759596   -1.269901   -1.227996
     29          1           0        7.108596   -4.612701   -0.492096
     30          1           0        5.508896   -6.102701   -1.657196
     31          1           0        4.494496   -6.735901   -3.651996
     32          1           0        2.755996   -8.179801   -4.690696
     33          1           0       -2.615804   -8.155601   -4.802496
     34          1           0       -4.382904   -6.700401   -3.830296
     35          1           0       -2.995504   -2.581601   -2.541596
     36          1           0       -4.702704   -1.258001   -1.343296
     37          1           0       -7.076304   -4.604601   -0.714596
     38          1           0       -5.454504   -6.081601   -1.865796
     39          1           0       -1.390104   -4.101501   -2.093296
     40          1           0        1.455196   -4.121401   -2.022796
     41          1           0        3.074396   -2.608201   -2.441096
     42          6           0        4.917496   -1.278401    2.057604
     43          7           0        6.003696   -2.048501    1.895704
     44          6           0        6.187096   -3.101501    2.705104
     45          6           0        5.265296   -3.444901    3.680804
     46          6           0        4.094596   -2.687301    3.834604
     47          6           0        3.034996   -3.076301    4.783604
     48          6           0        3.356196   -3.682201    6.017904
     49          6           0        2.374496   -4.095701    6.912404
     50          6           0        1.054496   -3.902201    6.527804
     51          8           0       -0.043504   -4.270201    7.241104
     52          6           0       -1.129004   -3.933601    6.493404
     53          6           0       -2.453904   -4.165301    6.837004
     54          6           0       -3.419104   -3.775201    5.914404
     55          6           0       -3.077004   -3.155901    4.692604
     56          6           0       -4.120904   -2.779001    3.721404
     57          6           0       -3.998104   -1.623001    2.935504
     58          6           0       -4.951104   -1.338301    1.974004
     59          7           0       -6.005504   -2.140301    1.760304
     60          6           0       -6.168804   -3.228101    2.526104
     61          6           0       -5.258804   -3.572001    3.512904
     62          6           0       -1.731804   -2.923301    4.378804
     63          6           0       -0.750904   -3.323801    5.282904
     64          6           0        0.697096   -3.303401    5.305704
     65          6           0        1.693796   -2.877401    4.431504
     66          6           0        3.953296   -1.562201    3.008104
     67          1           0        4.815896   -0.413501    1.397804
     68          1           0        7.088596   -3.695001    2.540604
     69          1           0        5.446596   -4.334901    4.284504
     70          1           0        4.404696   -3.814801    6.292104
     71          1           0        2.626996   -4.555301    7.868604
     72          1           0       -2.722504   -4.634301    7.784204
     73          1           0       -4.471704   -3.935401    6.156204
     74          1           0       -3.163904   -0.933901    3.071504
     75          1           0       -4.870104   -0.444701    1.350804
     76          1           0       -7.043904   -3.848201    2.321404
     77          1           0       -5.422604   -4.486701    4.083804
     78          1           0       -1.452704   -2.473201    3.424104
     79          1           0        1.430196   -2.433601    3.469804
     80          1           0        3.093096   -0.898401    3.099504
     81          6           0       10.472596   -0.089402    2.490304
     82          6           0        9.587596   -0.935801    1.879904
     83          7           0        8.413396   -0.480001    1.365804
     84          6           0        8.078296    0.792099    1.487404
     85          6           0        8.892496    1.736599    2.148604
     86          6           0        8.512397    3.108599    2.305304
     87          6           0        7.165997    3.611899    1.954204
     88          6           0        7.024397    4.825299    1.262404
     89          6           0        5.771597    5.381499    1.042404
     90          6           0        4.612097    4.731299    1.504004
     91          6           0        3.335397    5.346199    1.362004
     92          6           0        2.256197    5.908099    1.306204
     93          6           0        1.028297    6.644899    1.300204
     94          7           0       -0.116203    5.952099    1.295204
     95          6           0       -1.266303    6.636399    1.311404
     96          6           0       -2.487403    5.888899    1.340804
     97          6           0       -3.557803    5.313599    1.422804
     98          6           0       -4.818203    4.671199    1.585704
     99          6           0       -6.002403    5.302199    1.161304
    100          6           0       -7.236303    4.707599    1.387904
    101          6           0       -7.332503    3.473299    2.049104
    102          6           0       -8.656503    2.911600    2.396604
    103          6           0       -9.604003    3.718700    3.001604
    104          6           0      -10.845103    3.207600    3.438104
    105          6           0      -11.152404    1.875100    3.290704
    106          6           0      -10.229704    1.012700    2.654104
    107          6           0      -10.488604   -0.366100    2.453804
    108          6           0       -9.581404   -1.145400    1.788604
    109          7           0       -8.435604   -0.616900    1.278504
    110          6           0       -8.149404    0.659500    1.458104
    111          6           0       -8.988104    1.536000    2.178704
    112          6           0       -6.146603    2.837299    2.453504
    113          6           0       -4.908103    3.419299    2.220704
    114          6           0       -1.321303    8.041599    1.330804
    115          6           0       -0.126903    8.750899    1.340504
    116          6           0        1.072397    8.050499    1.324004
    117          6           0        4.746297    3.496599    2.164004
    118          6           0        6.003897    2.953299    2.390404
    119          6           0        9.437497    3.977999    2.857104
    120          6           0       10.703497    3.536698    3.297404
    121          6           0       11.059596    2.211498    3.207604
    122          6           0       10.161196    1.285799    2.627704
    123          1           0       11.420896   -0.476202    2.866304
    124          1           0        9.789696   -2.001501    1.766904
    125          1           0        7.137196    1.098899    1.027004
    126          1           0        7.913197    5.342799    0.895204
    127          1           0        5.680697    6.332899    0.515404
    128          1           0       -5.945403    6.267999    0.656104
    129          1           0       -8.145003    5.209900    1.049304
    130          1           0       -9.369603    4.769500    3.183604
    131          1           0      -11.555303    3.881700    3.921604
    132          1           0      -12.099504    1.470800    3.653104
    133          1           0      -11.414104   -0.808800    2.825204
    134          1           0       -9.741504   -2.211700    1.622804
    135          1           0       -7.231004    1.028799    0.998104
    136          1           0       -6.193604    1.892999    3.000504
    137          1           0       -3.998503    2.921499    2.561104
    138          1           0       -2.286503    8.549099    1.342804
    139          1           0       -0.130803    9.842599    1.358804
    140          1           0        2.033797    8.565299    1.329004
    141          1           0        3.856497    2.983199    2.532604
    142          1           0        6.083296    2.025599    2.961204
    143          1           0        9.165897    5.026599    2.993904
    144          1           0       11.393597    4.259798    3.737304
    145          1           0       12.026496    1.860498    3.573304
    146          6           0       10.277096   -1.641701   -2.680196
    147          6           0        9.499196   -1.984001   -1.605896
    148          7           0        8.349396   -1.313301   -1.323796
    149          6           0        7.965696   -0.301201   -2.079096
    150          6           0        8.710396    0.152899   -3.185696
    151          6           0        8.279896    1.258699   -3.984296
    152          6           0        7.055996    2.017499   -3.637396
    153          6           0        6.013596    2.125799   -4.568196
    154          6           0        4.847097    2.810299   -4.253496
    155          6           0        4.694997    3.417899   -2.994396
    156          6           0        3.492897    4.123099   -2.687896
    157          6           0        2.453297    4.721599   -2.478096
    158          6           0        1.242397    5.467499   -2.287496
    159          7           0        0.087197    4.802899   -2.409096
    160          6           0       -1.054703    5.486299   -2.272896
    161          6           0       -2.280203    4.761299   -2.451296
    162          6           0       -3.332203    4.182199   -2.653396
    163          6           0       -4.548703    3.501999   -2.960896
    164          6           0       -4.724203    2.934399   -4.235496
    165          6           0       -5.905404    2.279699   -4.557496
    166          6           0       -6.940304    2.161599   -3.619396
    167          6           0       -8.184404    1.445700   -3.986796
    168          6           0       -8.930404    1.844600   -5.079496
    169          6           0      -10.122104    1.177500   -5.441996
    170          6           0      -10.580604    0.099400   -4.720796
    171          6           0       -9.839104   -0.362900   -3.608096
    172          6           0      -10.229904   -1.484200   -2.834296
    173          6           0       -9.456804   -1.897700   -1.782096
    174          7           0       -8.298304   -1.260300   -1.461396
    175          6           0       -7.897604   -0.214700   -2.161296
    176          6           0       -8.633004    0.308600   -3.243896
    177          6           0       -6.766904    2.735199   -2.349696
    178          6           0       -5.590003    3.397399   -2.021996
    179          6           0       -1.091003    6.865899   -2.008396
    180          6           0        0.113297    7.548299   -1.890796
    181          6           0        1.304697    6.845899   -2.025196
    182          6           0        5.745797    3.326099   -2.064796
    183          6           0        6.907496    2.634899   -2.384796
    184          6           0        9.025896    1.583699   -5.100896
    185          6           0       10.202196    0.874099   -5.432396
    186          6           0       10.646296   -0.170802   -4.654996
    187          6           0        9.902996   -0.558901   -3.515396
    188          1           0       11.184796   -2.208902   -2.892196
    189          1           0        9.757696   -2.809501   -0.941296
    190          1           0        7.024696    0.184599   -1.816196
    191          1           0        6.112996    1.647299   -5.544996
    192          1           0        4.038497    2.877399   -4.983596
    193          1           0       -3.922903    3.010899   -4.972496
    194          1           0       -6.024104    1.834399   -5.547796
    195          1           0       -8.602304    2.707900   -5.662396
    196          1           0      -10.687604    1.535100   -6.305196
    197          1           0      -11.505504   -0.410600   -4.996896
    198          1           0      -11.146904   -2.024000   -3.075796
    199          1           0       -9.728204   -2.754700   -1.164296
    200          1           0       -6.951404    0.243499   -1.868396
    201          1           0       -7.570604    2.680400   -1.610596
    202          1           0       -5.475103    3.844399   -1.033396
    203          1           0       -2.048403    7.378199   -1.907096
    204          1           0        0.123597    8.621599   -1.693496
    205          1           0        2.271797    7.341899   -1.935096
    206          1           0        5.648997    3.806299   -1.089996
    207          1           0        7.718896    2.588599   -1.653696
    208          1           0        8.712396    2.421799   -5.726996
    209          1           0       10.769296    1.173198   -6.316596
    210          1           0       11.561096   -0.710402   -4.907296
 ---------------------------------------------------------------------

 SCF Done:  E(RPBE1PBE) =  -5637.04445896     A.U. after   23 cycles

 The electronic state is 1-A.
 Alpha  occ. eigenvalues --  -19.30228 -19.30206 -14.48216 -14.48197 -14.48183
 Alpha  occ. eigenvalues --  -14.48177 -14.48085 -14.48077 -14.48048 -14.48048
 Alpha  occ. eigenvalues --  -14.41354 -14.41199 -10.32277 -10.32271 -10.32269
 Alpha  occ. eigenvalues --  -10.32260 -10.32257 -10.32251 -10.32133 -10.32111
 Alpha  occ. eigenvalues --  -10.31710 -10.31690 -10.31664 -10.31653 -10.31647
 Alpha  occ. eigenvalues --  -10.31634 -10.31626 -10.31613 -10.31526 -10.31516
 Alpha  occ. eigenvalues --  -10.31328 -10.31311 -10.30851 -10.30849 -10.30822
 Alpha  occ. eigenvalues --  -10.30818 -10.30106 -10.30104 -10.30089 -10.30084
 Alpha  occ. eigenvalues --  -10.29023 -10.29017 -10.28986 -10.28977 -10.28956
 Alpha  occ. eigenvalues --  -10.28931 -10.28791 -10.28773 -10.28769 -10.28768
 Alpha  occ. eigenvalues --  -10.28622 -10.28604 -10.28516 -10.28513 -10.28461
 Alpha  occ. eigenvalues --  -10.28457 -10.27979 -10.27970 -10.27968 -10.27960
 Alpha  occ. eigenvalues --  -10.27949 -10.27948 -10.27917 -10.27909 -10.27887
 Alpha  occ. eigenvalues --  -10.27864 -10.27795 -10.27788 -10.27771 -10.27769
 Alpha  occ. eigenvalues --  -10.27645 -10.27639 -10.27639 -10.27636 -10.27574
 Alpha  occ. eigenvalues --  -10.27571 -10.27303 -10.27291 -10.27279 -10.27241
 Alpha  occ. eigenvalues --  -10.27228 -10.27198 -10.27197 -10.27179 -10.27117
 Alpha  occ. eigenvalues --  -10.27100 -10.27098 -10.27091 -10.27089 -10.27084
 Alpha  occ. eigenvalues --  -10.27009 -10.27007 -10.26980 -10.26976 -10.26925
 Alpha  occ. eigenvalues --  -10.26918 -10.26865 -10.26859 -10.26839 -10.26834
 Alpha  occ. eigenvalues --  -10.26769 -10.26763 -10.26758 -10.26743 -10.26739
 Alpha  occ. eigenvalues --  -10.26736 -10.26733 -10.26732 -10.26731 -10.26728
 Alpha  occ. eigenvalues --  -10.26724 -10.26719 -10.26689 -10.26683 -10.26637
 Alpha  occ. eigenvalues --  -10.26615 -10.26472 -10.26465 -10.26462 -10.26449
 Alpha  occ. eigenvalues --  -10.26448 -10.26438 -10.26436 -10.26427 -10.26389
 Alpha  occ. eigenvalues --  -10.26380 -10.26303 -10.26293 -10.26222 -10.26206
 Alpha  occ. eigenvalues --  -10.25941 -10.25936 -10.25789 -10.25787  -3.56655
 Alpha  occ. eigenvalues --   -3.56651  -2.24559  -2.24557  -2.24404  -2.24400
 Alpha  occ. eigenvalues --   -2.20362  -2.20357  -1.16398  -1.16354  -1.03139
 Alpha  occ. eigenvalues --   -1.03136  -1.02578  -1.02578  -1.02451  -1.02450
 Alpha  occ. eigenvalues --   -1.02426  -1.02425  -0.99729  -0.99483  -0.92579
 Alpha  occ. eigenvalues --   -0.92575  -0.92456  -0.92445  -0.92020  -0.91978
 Alpha  occ. eigenvalues --   -0.91511  -0.91489  -0.90574  -0.90565  -0.90378
 Alpha  occ. eigenvalues --   -0.90369  -0.87626  -0.87537  -0.87241  -0.87153
 Alpha  occ. eigenvalues --   -0.85717  -0.85549  -0.85531  -0.85399  -0.84615
 Alpha  occ. eigenvalues --   -0.84480  -0.84349  -0.84160  -0.82964  -0.82929
 Alpha  occ. eigenvalues --   -0.82790  -0.82668  -0.82534  -0.82531  -0.82452
 Alpha  occ. eigenvalues --   -0.82426  -0.82358  -0.82294  -0.82183  -0.81986
 Alpha  occ. eigenvalues --   -0.81933  -0.81698  -0.80520  -0.80475  -0.79518
 Alpha  occ. eigenvalues --   -0.79340  -0.79027  -0.78934  -0.78796  -0.78673
 Alpha  occ. eigenvalues --   -0.78506  -0.78401  -0.78373  -0.78342  -0.77127
 Alpha  occ. eigenvalues --   -0.77109  -0.76467  -0.76292  -0.74916  -0.74777
 Alpha  occ. eigenvalues --   -0.70997  -0.70894  -0.70876  -0.70752  -0.70671
 Alpha  occ. eigenvalues --   -0.70582  -0.70416  -0.70375  -0.69790  -0.69639
 Alpha  occ. eigenvalues --   -0.69500  -0.69393  -0.69356  -0.69282  -0.69120
 Alpha  occ. eigenvalues --   -0.69078  -0.68432  -0.68421  -0.68310  -0.68293
 Alpha  occ. eigenvalues --   -0.67278  -0.67196  -0.66882  -0.66746  -0.66651
 Alpha  occ. eigenvalues --   -0.66494  -0.64679  -0.64659  -0.64527  -0.64521
 Alpha  occ. eigenvalues --   -0.64493  -0.64410  -0.63266  -0.63205  -0.63155
 Alpha  occ. eigenvalues --   -0.63085  -0.62985  -0.62891  -0.62533  -0.62497
 Alpha  occ. eigenvalues --   -0.59894  -0.59780  -0.59670  -0.59331  -0.59045
 Alpha  occ. eigenvalues --   -0.58431  -0.58215  -0.58142  -0.58040  -0.57992
 Alpha  occ. eigenvalues --   -0.57553  -0.57468  -0.57250  -0.57194  -0.57106
 Alpha  occ. eigenvalues --   -0.57100  -0.57050  -0.56900  -0.56654  -0.56551
 Alpha  occ. eigenvalues --   -0.56353  -0.56231  -0.55834  -0.55751  -0.55681
 Alpha  occ. eigenvalues --   -0.55638  -0.54823  -0.54723  -0.54044  -0.53870
 Alpha  occ. eigenvalues --   -0.53812  -0.53705  -0.52969  -0.52885  -0.51884
 Alpha  occ. eigenvalues --   -0.51826  -0.51700  -0.51676  -0.51448  -0.51360
 Alpha  occ. eigenvalues --   -0.51237  -0.51183  -0.51181  -0.51118  -0.51057
 Alpha  occ. eigenvalues --   -0.50926  -0.50907  -0.50754  -0.50708  -0.50590
 Alpha  occ. eigenvalues --   -0.50543  -0.50387  -0.50193  -0.50083  -0.50077
 Alpha  occ. eigenvalues --   -0.49918  -0.49798  -0.49676  -0.49333  -0.49249
 Alpha  occ. eigenvalues --   -0.49221  -0.49105  -0.49054  -0.48924  -0.48675
 Alpha  occ. eigenvalues --   -0.48607  -0.48539  -0.48375  -0.48275  -0.48076
 Alpha  occ. eigenvalues --   -0.47966  -0.47806  -0.47781  -0.47670  -0.47641
 Alpha  occ. eigenvalues --   -0.47575  -0.47522  -0.47405  -0.47345  -0.47185
 Alpha  occ. eigenvalues --   -0.47160  -0.46929  -0.46802  -0.46757  -0.46657
 Alpha  occ. eigenvalues --   -0.46626  -0.46561  -0.46548  -0.46331  -0.45878
 Alpha  occ. eigenvalues --   -0.45816  -0.45742  -0.45732  -0.45589  -0.45555
 Alpha  occ. eigenvalues --   -0.45514  -0.45453  -0.44713  -0.44621  -0.44558
 Alpha  occ. eigenvalues --   -0.44376  -0.44094  -0.43985  -0.43891  -0.43449
 Alpha  occ. eigenvalues --   -0.43407  -0.43382  -0.43344  -0.42706  -0.42615
 Alpha  occ. eigenvalues --   -0.42485  -0.42440  -0.42320  -0.42181  -0.42134
 Alpha  occ. eigenvalues --   -0.41968  -0.41896  -0.41816  -0.41803  -0.41641
 Alpha  occ. eigenvalues --   -0.41508  -0.41447  -0.41429  -0.41345  -0.41314
 Alpha  occ. eigenvalues --   -0.41280  -0.41156  -0.41108  -0.40979  -0.40751
 Alpha  occ. eigenvalues --   -0.40630  -0.40605  -0.40430  -0.40199  -0.39817
 Alpha  occ. eigenvalues --   -0.39754  -0.39726  -0.39617  -0.38669  -0.38664
 Alpha  occ. eigenvalues --   -0.38467  -0.38316  -0.38251  -0.38177  -0.37916
 Alpha  occ. eigenvalues --   -0.37908  -0.37700  -0.37685  -0.37515  -0.37463
 Alpha  occ. eigenvalues --   -0.37351  -0.37215  -0.36995  -0.36509  -0.36277
 Alpha  occ. eigenvalues --   -0.36074  -0.36025  -0.35820  -0.35470  -0.35054
 Alpha  occ. eigenvalues --   -0.34899  -0.34846  -0.34739  -0.34596  -0.34180
 Alpha  occ. eigenvalues --   -0.33930  -0.33727  -0.33608  -0.33459  -0.33307
 Alpha  occ. eigenvalues --   -0.33241  -0.33221  -0.33119  -0.33047  -0.32610
 Alpha  occ. eigenvalues --   -0.32461  -0.32257  -0.32143  -0.31879  -0.31871
 Alpha  occ. eigenvalues --   -0.31322  -0.31314  -0.31004  -0.30989  -0.30919
 Alpha  occ. eigenvalues --   -0.30695  -0.30517  -0.30181  -0.30000  -0.29900
 Alpha  occ. eigenvalues --   -0.29846  -0.29596  -0.29588  -0.29193  -0.29175
 Alpha  occ. eigenvalues --   -0.29162  -0.29004  -0.28482  -0.28471  -0.28306
 Alpha  occ. eigenvalues --   -0.28202  -0.27954  -0.27208  -0.26779  -0.26144
 Alpha  occ. eigenvalues --   -0.26128  -0.26117  -0.26101  -0.25696  -0.25480
 Alpha  occ. eigenvalues --   -0.24974  -0.24356
 Alpha virt. eigenvalues --   -0.09705  -0.09687  -0.09185  -0.09176  -0.08756
 Alpha virt. eigenvalues --   -0.08453  -0.08244  -0.08029  -0.07551  -0.07449
 Alpha virt. eigenvalues --   -0.07261  -0.07163  -0.06788  -0.06710  -0.06433

 Mulliken charges:
               1
     1  Pd   0.511525
     2  Pd   0.510554
     3  C    0.145594
     4  N   -0.320546
     5  C    0.151896
     6  C   -0.045620
     7  C    0.059235
     8  C    0.022502
     9  C   -0.032339
    10  C   -0.073529
    11  C    0.207300
    12  O   -0.264993
    13  C    0.207391
    14  C   -0.073404
    15  C   -0.032867
    16  C    0.022760
    17  C    0.059048
    18  C   -0.053208
    19  C    0.146760
    20  N   -0.319714
    21  C    0.151192
    22  C   -0.044970
    23  C   -0.050812
    24  C    0.017552
    25  C    0.017809
    26  C   -0.051518
    27  C   -0.052227
    28  H    0.100567
    29  H    0.104922
    30  H    0.065136
    31  H    0.052080
    32  H    0.048113
    33  H    0.048072
    34  H    0.052207
    35  H    0.066098
    36  H    0.099681
    37  H    0.105765
    38  H    0.065058
    39  H    0.039905
    40  H    0.040353
    41  H    0.065983
    42  C    0.144956
    43  N   -0.320202
    44  C    0.152137
    45  C   -0.044717
    46  C    0.057169
    47  C    0.020080
    48  C   -0.032875
    49  C   -0.072061
    50  C    0.204293
    51  O   -0.263484
    52  C    0.204043
    53  C   -0.072344
    54  C   -0.031031
    55  C    0.016696
    56  C    0.054657
    57  C   -0.049285
    58  C    0.144437
    59  N   -0.321076
    60  C    0.152394
    61  C   -0.043781
    62  C   -0.046447
    63  C    0.018369
    64  C    0.018021
    65  C   -0.047853
    66  C   -0.051988
    67  H    0.098389
    68  H    0.104626
    69  H    0.065622
    70  H    0.052442
    71  H    0.048025
    72  H    0.048040
    73  H    0.052237
    74  H    0.065672
    75  H    0.100147
    76  H    0.103758
    77  H    0.065599
    78  H    0.040052
    79  H    0.039724
    80  H    0.065749
    81  C   -0.031614
    82  C    0.138650
    83  N   -0.316917
    84  C    0.138791
    85  C   -0.019104
    86  C    0.056747
    87  C   -0.025205
    88  C   -0.026633
    89  C   -0.007355
    90  C   -0.089148
    91  C    0.009643
    92  C    0.020377
    93  C   -0.060622
    94  N   -0.177437
    95  C   -0.061494
    96  C    0.028258
    97  C    0.005149
    98  C   -0.100518
    99  C   -0.006957
   100  C   -0.017140
   101  C   -0.031760
   102  C    0.055535
   103  C   -0.029534
   104  C    0.005407
   105  C   -0.004541
   106  C    0.026190
   107  C   -0.031216
   108  C    0.137391
   109  N   -0.316940
   110  C    0.138690
   111  C   -0.020474
   112  C   -0.033995
   113  C    0.013180
   114  C    0.012443
   115  C    0.033824
   116  C    0.009523
   117  C    0.011271
   118  C   -0.035085
   119  C   -0.031850
   120  C    0.005738
   121  C   -0.004414
   122  C    0.024954
   123  H    0.060154
   124  H    0.097051
   125  H    0.095990
   126  H    0.046578
   127  H    0.045544
   128  H    0.045544
   129  H    0.045891
   130  H    0.049437
   131  H    0.060136
   132  H    0.047453
   133  H    0.060386
   134  H    0.098308
   135  H    0.097833
   136  H    0.053577
   137  H    0.042078
   138  H    0.049448
   139  H    0.062489
   140  H    0.049407
   141  H    0.041970
   142  H    0.053556
   143  H    0.049776
   144  H    0.060016
   145  H    0.047445
   146  C   -0.033999
   147  C    0.138650
   148  N   -0.318191
   149  C    0.143183
   150  C   -0.013562
   151  C    0.041228
   152  C   -0.055939
   153  C   -0.001646
   154  C    0.002197
   155  C   -0.069278
   156  C   -0.033867
   157  C    0.039112
   158  C   -0.059011
   159  N   -0.182748
   160  C   -0.062373
   161  C    0.038415
   162  C   -0.033388
   163  C   -0.069094
   164  C    0.001774
   165  C   -0.001792
   166  C   -0.057112
   167  C    0.037951
   168  C   -0.024239
   169  C    0.003976
   170  C   -0.005069
   171  C    0.029570
   172  C   -0.033877
   173  C    0.139510
   174  N   -0.318356
   175  C    0.144463
   176  C   -0.012474
   177  C   -0.030763
   178  C    0.005917
   179  C    0.028859
   180  C    0.024426
   181  C    0.022725
   182  C    0.007543
   183  C   -0.033912
   184  C   -0.025025
   185  C    0.003802
   186  C   -0.005298
   187  C    0.030409
   188  H    0.060078
   189  H    0.095147
   190  H    0.105937
   191  H    0.042531
   192  H    0.041708
   193  H    0.041709
   194  H    0.042651
   195  H    0.046546
   196  H    0.060114
   197  H    0.046905
   198  H    0.060081
   199  H    0.094740
   200  H    0.104285
   201  H    0.047742
   202  H    0.044068
   203  H    0.048412
   204  H    0.062766
   205  H    0.047966
   206  H    0.041076
   207  H    0.047982
   208  H    0.046446
   209  H    0.060197
   210  H    0.046841
 Sum of Mulliken charges =   4.00000

 Dipole moment (field-independent basis, Debye):
    X=              0.0468    Y=            -21.6025    Z=              3.6751  Tot=             21.9129
 Quadrupole moment (field-independent basis, Debye-Ang):
   XX=            427.1968   YY=           -481.4598   ZZ=           -604.5560
   XY=              1.8304   XZ=              3.9007   YZ=              2.5982

 Normal termination of Gaussian 16 at Fri Jun  2 05:18:46 2023.
