 Gaussian 16, Revision C.01,
 Gaussian 16:  ES64L-G16RevC.01  3-Jul-2019

 -----------------------------------------
 # SP HSEH1PBE/def2svp scrf=(solvent=dmso)
 -----------------------------------------

 -----
 m2_lb
 -----
 Symbolic Z-matrix:
 Charge =  4 Multiplicity = 1

                         Standard orientation:
 ---------------------------------------------------------------------
 Center     Atomic      Atomic             Coordinates (Angstroms)
 Number     Number       Type             X           Y           Z
 ---------------------------------------------------------------------
      1          6           0       -9.411724   -1.884725    2.127767
      2          6           0       -9.335970   -2.604785    3.290712
      3          6           0       -8.279164   -2.374409    4.206453
      4          6           0       -8.109955   -3.131380    5.389302
      5          6           0       -7.035727   -2.875266    6.210806
      6          6           0       -6.112871   -1.848193    5.906860
      7          6           0       -6.252726   -1.060175    4.779986
      8          6           0       -7.341780   -1.341183    3.893341
      9          6           0       -7.500562   -0.668123    2.664275
     10          6           0       -5.290733    0.033306    4.497668
     11          6           0       -3.936172   -0.256058    4.280049
     12          6           0       -3.025544    0.756012    4.001982
     13          6           0       -3.448407    2.097075    3.952319
     14          6           0       -4.802557    2.392727    4.199482
     15          6           0       -5.710074    1.372879    4.458961
     16          6           0       -2.528419    3.134778    3.623316
     17          6           0       -1.750063    4.010064    3.288296
     18          6           0       -0.847294    5.028356    2.837100
     19          6           0       -0.890577    6.321638    3.388068
     20          6           0       -0.004746    7.277047    2.901750
     21          6           0        0.887361    6.924949    1.894666
     22          6           0        0.856590    5.606628    1.405585
     23          6           0        1.763404    5.185207    0.378228
     24          6           0        2.542718    4.783606   -0.467677
     25          6           0        3.462888    4.260541   -1.422233
     26          6           0        4.815648    4.650152   -1.401643
     27          6           0        5.722515    4.092511   -2.294845
     28          6           0        5.303918    3.145159   -3.242876
     29          6           0        3.950792    2.779975   -3.280301
     30          6           0        3.040570    3.320269   -2.379996
     31          6           0        6.266916    2.547111   -4.200166
     32          6           0        6.134228    2.758114   -5.559547
     33          6           0        7.059436    2.222445   -6.485005
     34          6           0        8.128975    1.465618   -6.063641
     35          6           0        8.291127    1.194761   -4.684775
     36          6           0        9.343647    0.393546   -4.176665
     37          6           0        9.413645    0.111844   -2.837934
     38          6           0        7.503554    1.366240   -2.393874
     39          6           0        7.351134    1.727738   -3.748634
     40          6           0       -9.423497    2.122070    1.878296
     41          6           0       -9.358478    3.288523    2.593770
     42          6           0       -8.307604    4.210810    2.363172
     43          6           0       -8.150337    5.398825    3.114644
     44          6           0       -7.081121    6.226902    2.859106
     45          6           0       -6.151515    5.924710    1.837473
     46          6           0       -6.279362    4.792639    1.054949
     47          6           0       -7.363240    3.899296    1.335811
     48          6           0       -7.510449    2.665950    0.667957
     49          6           0       -5.310330    4.509843   -0.032165
     50          6           0       -3.955234    4.306156    0.264414
     51          6           0       -3.038455    4.023695   -0.741004
     52          6           0       -3.455839    3.955661   -2.082875
     53          6           0       -4.810609    4.189828   -2.386333
     54          6           0       -5.723916    4.454153   -1.372944
     55          6           0       -2.530640    3.621257   -3.114263
     56          6           0       -1.749268    3.282180   -3.985278
     57          6           0       -0.845115    2.826722   -5.000520
     58          6           0       -0.885880    3.375775   -6.294766
     59          6           0       -0.000132    2.886044   -7.248466
     60          6           0        0.889638    1.877931   -6.893484
     61          6           0        0.856975    1.391532   -5.574194
     62          6           0        1.763747    0.364449   -5.151724
     63          6           0        2.545587   -0.481294   -4.754689
     64          6           0        3.470935   -1.435310   -4.239611
     65          6           0        3.055264   -2.405325   -3.308889
     66          6           0        3.972087   -3.303651   -2.776184
     67          6           0        5.325523   -3.251680   -3.138809
     68          6           0        5.736959   -2.292287   -4.077884
     69          6           0        4.823623   -1.401475   -4.628386
     70          6           0        6.296767   -4.203291   -2.545233
     71          6           0        6.174272   -5.563305   -2.758528
     72          6           0        7.108358   -6.482425   -2.227335
     73          6           0        8.176676   -6.054368   -1.472479
     74          6           0        8.328347   -4.674885   -1.198547
     75          6           0        9.378733   -4.160208   -0.398488
     76          6           0        9.438781   -2.821611   -0.113297
     77          6           0        7.521849   -2.390476   -1.362103
     78          6           0        7.379428   -3.745264   -1.727082
     79          6           0       -9.425074    1.879618   -2.120236
     80          6           0       -9.358126    2.599349   -3.283973
     81          6           0       -8.306518    2.370883   -4.206044
     82          6           0       -8.146315    3.126971   -5.390734
     83          6           0       -7.076546    2.872680   -6.218524
     84          6           0       -6.149205    1.847964   -5.919197
     85          6           0       -6.280250    1.061192   -4.790468
     86          6           0       -7.364761    1.340327   -3.897697
     87          6           0       -7.514758    0.667014   -2.667700
     88          6           0       -5.313982   -0.029135   -4.509681
     89          6           0       -5.728691   -1.370179   -4.472527
     90          6           0       -4.818728   -2.386760   -4.208946
     91          6           0       -3.466643   -2.086189   -3.956192
     92          6           0       -3.048235   -0.743724   -4.004869
     93          6           0       -3.961402    0.265044   -4.287062
     94          6           0       -2.544305   -3.120576   -3.623150
     95          6           0       -1.763139   -3.992568   -3.286156
     96          6           0       -0.856832   -5.007506   -2.834427
     97          6           0       -0.893887   -6.300226   -3.387308
     98          6           0       -0.004153   -7.252308   -2.901616
     99          6           0        0.885827   -6.897380   -1.893631
    100          6           0        0.849285   -5.579673   -1.403331
    101          6           0        1.755876   -5.155938   -0.376642
    102          6           0        2.536687   -4.755410    0.468402
    103          6           0        3.459488   -4.236034    1.422445
    104          6           0        3.038661   -3.308648    2.393346
    105          6           0        3.952279   -2.772223    3.292579
    106          6           0        5.307672   -3.127294    3.240744
    107          6           0        5.724507   -4.062220    2.279619
    108          6           0        4.814411   -4.616941    1.388073
    109          6           0        6.274187   -2.532163    4.196005
    110          6           0        6.143982   -2.742922    5.555768
    111          6           0        7.073120   -2.210663    6.479234
    112          6           0        8.144390   -1.457335    6.055801
    113          6           0        8.304174   -1.186321    4.676703
    114          6           0        9.358381   -0.388492    4.166476
    115          6           0        9.425666   -0.105217    2.827865
    116          6           0        7.509239   -1.351741    2.388346
    117          6           0        7.359838   -1.715444    3.742700
    118          6           0       -9.418594   -2.121465   -1.883029
    119          6           0       -9.351570   -3.284896   -2.603160
    120          6           0       -8.302306   -4.208845   -2.371982
    121          6           0       -8.142251   -5.393655   -3.127852
    122          6           0       -7.074840   -6.223613   -2.870805
    123          6           0       -6.149786   -5.926338   -1.843536
    124          6           0       -6.280837   -4.797544   -1.057027
    125          6           0       -7.362692   -3.902417   -1.338870
    126          6           0       -7.512434   -2.672441   -0.665406
    127          6           0       -5.316914   -4.519696    0.036204
    128          6           0       -5.735038   -4.484136    1.376173
    129          6           0       -4.827097   -4.224406    2.395685
    130          6           0       -3.473641   -3.974727    2.098848
    131          6           0       -3.051805   -4.022478    0.757407
    132          6           0       -3.963050   -4.300183   -0.254295
    133          6           0       -2.552668   -3.644718    3.135441
    134          6           0       -1.770662   -3.309139    4.007227
    135          6           0       -0.859798   -2.859044    5.018805
    136          6           0       -0.884852   -3.420081    6.308278
    137          6           0        0.009847   -2.936405    7.256736
    138          6           0        0.892504   -1.922092    6.901628
    139          6           0        0.844186   -1.423824    5.587278
    140          6           0        1.744774   -0.392100    5.163059
    141          6           0        2.522916    0.455374    4.762384
    142          6           0        3.444364    1.411071    4.243622
    143          6           0        3.023409    2.380139    3.314408
    144          6           0        3.936133    3.281201    2.779581
    145          6           0        5.290759    3.233029    3.138195
    146          6           0        5.707897    2.273666    4.074833
    147          6           0        4.798464    1.380325    4.627881
    148          6           0        6.255552    4.191938    2.545970
    149          6           0        6.122454    5.550416    2.762847
    150          6           0        7.048115    6.478435    2.232746
    151          6           0        8.118794    6.060946    1.475344
    152          6           0        8.281862    4.683345    1.198604
    153          6           0        9.336440    4.179507    0.397155
    154          6           0        9.408320    2.841994    0.109674
    155          6           0        7.495665    2.391657    1.358697
    156          6           0        7.341255    3.744522    1.725998
    157          1           0      -10.209177   -2.049633    1.402261
    158          1           0      -10.088182   -3.366981    3.500010
    159          1           0       -8.829147   -3.916194    5.631164
    160          1           0       -6.894935   -3.462598    7.120572
    161          1           0       -5.285462   -1.654067    6.592965
    162          1           0       -6.781763    0.100357    2.371538
    163          1           0       -3.594031   -1.293254    4.299707
    164          1           0       -1.979220    0.506140    3.812904
    165          1           0       -5.138275    3.431742    4.184392
    166          1           0       -6.756151    1.620339    4.658451
    167          1           0       -1.604241    6.558217    4.178453
    168          1           0       -0.009931    8.291555    3.305356
    169          1           0        1.595665    7.646393    1.484917
    170          1           0        5.151003    5.393831   -0.675768
    171          1           0        6.767750    4.412497   -2.271882
    172          1           0        3.609112    2.040343   -4.007965
    173          1           0        1.995061    3.005636   -2.411626
    174          1           0        5.310307    3.375410   -5.924468
    175          1           0        6.924454    2.427371   -7.549114
    176          1           0        8.849826    1.063184   -6.777745
    177          1           0       10.098304   -0.014431   -4.851032
    178          1           0       10.208826   -0.508989   -2.423691
    179          1           0        6.782862    1.722666   -1.654596
    180          1           0      -10.216255    1.391427    2.043364
    181          1           0      -10.114393    3.495552    3.352796
    182          1           0       -8.874500    5.639153    3.895369
    183          1           0       -6.949405    7.140433    3.442724
    184          1           0       -5.328305    6.615897    1.643488
    185          1           0       -6.786379    2.374244   -0.095878
    186          1           0       -3.616990    4.339857    1.302508
    187          1           0       -1.991757    3.844378   -0.485269
    188          1           0       -5.142034    4.160109   -3.426391
    189          1           0       -6.770474    4.643375   -1.626385
    190          1           0       -1.597640    4.167332   -6.533303
    191          1           0       -0.003350    3.287989   -8.263645
    192          1           0        1.598250    1.465836   -7.613266
    193          1           0        2.009885   -2.447526   -2.994944
    194          1           0        3.635325   -4.039985   -2.042889
    195          1           0        6.782099   -2.258782   -4.397252
    196          1           0        5.153533   -0.666711   -5.365715
    197          1           0        5.352259   -5.933558   -3.375195
    198          1           0        6.981690   -7.547040   -2.434859
    199          1           0        8.904544   -6.763734   -1.074282
    200          1           0       10.139549   -4.829790    0.005865
    201          1           0       10.231658   -2.402360    0.507325
    202          1           0        6.794574   -1.655901   -1.714710
    203          1           0      -10.218641    2.043377   -1.390069
    204          1           0      -10.113697    3.359258   -3.489224
    205          1           0       -8.868662    3.910100   -5.628707
    206          1           0       -6.942723    3.459693   -7.129544
    207          1           0       -5.325128    1.655272   -6.609811
    208          1           0       -6.792961   -0.100331   -2.379418
    209          1           0       -6.773308   -1.621123   -4.675097
    210          1           0       -5.150973   -3.426892   -4.194334
    211          1           0       -2.003577   -0.490362   -3.810932
    212          1           0       -3.622634    1.303353   -4.305695
    213          1           0       -1.605745   -6.538914   -4.178712
    214          1           0       -0.004450   -8.266288   -3.306579
    215          1           0        1.597442   -7.615976   -1.484661
    216          1           0        1.991599   -3.000552    2.435990
    217          1           0        3.611505   -2.041749    4.029756
    218          1           0        6.771387   -4.375422    2.245802
    219          1           0        5.148485   -5.351851    0.652708
    220          1           0        5.319401   -3.358304    5.922401
    221          1           0        6.940101   -2.415905    7.543532
    222          1           0        8.868174   -1.057573    6.768454
    223          1           0       10.115987    0.016396    4.839424
    224          1           0       10.221581    0.513577    2.411770
    225          1           0        6.784656   -1.703222    1.650579
    226          1           0      -10.209677   -1.389425   -2.049200
    227          1           0      -10.104706   -3.488361   -3.365868
    228          1           0       -8.863024   -5.630152   -3.912867
    229          1           0       -6.941241   -7.134827   -3.457600
    230          1           0       -5.327709   -6.618590   -1.648463
    231          1           0       -6.792193   -2.385741    0.104025
    232          1           0       -6.781062   -4.684113    1.623494
    233          1           0       -5.161897   -4.209861    3.435031
    234          1           0       -2.005802   -3.831749    0.507288
    235          1           0       -3.621588   -4.318453   -1.291780
    236          1           0       -1.590818   -4.216794    6.546934
    237          1           0        0.019392   -3.348131    8.267940
    238          1           0        1.607757   -1.514599    7.617445
    239          1           0        1.976967    2.420727    3.003986
    240          1           0        3.595211    4.017515    2.048242
    241          1           0        6.753915    2.242829    4.391444
    242          1           0        5.132449    0.646594    5.364396
    243          1           0        5.298484    5.912919    3.381525
    244          1           0        6.912458    7.541334    2.443268
    245          1           0        8.839884    6.777226    1.077061
    246          1           0       10.091899    4.856152   -0.005675
    247          1           0       10.204591    2.430493   -0.511816
    248          1           0        6.775508    1.649855    1.710882
    249          7           0       -8.482499   -0.935155    1.815589
    250          7           0        0.007821    4.681399    1.868176
    251          7           0        8.482019    0.585082   -1.960127
    252          7           0       -8.488239    1.812220    0.934069
    253          7           0        0.007764    1.856878   -4.650731
    254          7           0        8.498407   -1.950655   -0.581991
    255          7           0       -8.492105    0.932119   -1.813149
    256          7           0       -0.003744   -4.657835   -1.864735
    257          7           0        8.489224   -0.573655    1.952719
    258          7           0       -8.487594   -1.816227   -0.932870
    259          7           0       -0.013623   -1.883305    4.668879
    260          7           0        8.475920    1.962008    0.577412
    261         46           0       -8.526799   -0.002030    0.001298
    262         46           0        8.522935    0.006278   -0.003339
 ---------------------------------------------------------------------

 SCF Done:  E(RHSEH1PBE) =  -6900.17751551     A.U. after   21 cycles

 The electronic state is 1-A.
 Alpha  occ. eigenvalues --  -14.46780 -14.46779 -14.46776 -14.46775 -14.46757
 Alpha  occ. eigenvalues --  -14.46756 -14.46752 -14.46751 -14.40083 -14.40082
 Alpha  occ. eigenvalues --  -14.40079 -14.40078 -10.30824 -10.30822 -10.30820
 Alpha  occ. eigenvalues --  -10.30817 -10.30803 -10.30802 -10.30800 -10.30798
 Alpha  occ. eigenvalues --  -10.30154 -10.30153 -10.30152 -10.30152 -10.30151
 Alpha  occ. eigenvalues --  -10.30151 -10.30149 -10.30149 -10.29437 -10.29436
 Alpha  occ. eigenvalues --  -10.29434 -10.29427 -10.29424 -10.29424 -10.29422
 Alpha  occ. eigenvalues --  -10.29417 -10.27584 -10.27583 -10.27582 -10.27577
 Alpha  occ. eigenvalues --  -10.27574 -10.27573 -10.27572 -10.27567 -10.27410
 Alpha  occ. eigenvalues --  -10.27408 -10.27404 -10.27401 -10.27399 -10.27396
 Alpha  occ. eigenvalues --  -10.27392 -10.27389 -10.27072 -10.27070 -10.27069
 Alpha  occ. eigenvalues --  -10.27066 -10.27066 -10.27066 -10.27065 -10.27064
 Alpha  occ. eigenvalues --  -10.27064 -10.27064 -10.27063 -10.27062 -10.27062
 Alpha  occ. eigenvalues --  -10.27061 -10.27061 -10.27057 -10.26359 -10.26358
 Alpha  occ. eigenvalues --  -10.26357 -10.26351 -10.26347 -10.26347 -10.26346
 Alpha  occ. eigenvalues --  -10.26341 -10.26091 -10.26091 -10.26090 -10.26088
 Alpha  occ. eigenvalues --  -10.26087 -10.26085 -10.26085 -10.26082 -10.25974
 Alpha  occ. eigenvalues --  -10.25973 -10.25973 -10.25973 -10.25737 -10.25733
 Alpha  occ. eigenvalues --  -10.25732 -10.25731 -10.25731 -10.25730 -10.25728
 Alpha  occ. eigenvalues --  -10.25727 -10.25503 -10.25503 -10.25502 -10.25502
 Alpha  occ. eigenvalues --  -10.25502 -10.25502 -10.25501 -10.25500 -10.25480
 Alpha  occ. eigenvalues --  -10.25477 -10.25475 -10.25474 -10.25474 -10.25471
 Alpha  occ. eigenvalues --  -10.25469 -10.25467 -10.25343 -10.25342 -10.25340
 Alpha  occ. eigenvalues --  -10.25339 -10.25338 -10.25337 -10.25336 -10.25333
 Alpha  occ. eigenvalues --  -10.25097 -10.25096 -10.25093 -10.25092 -10.25090
 Alpha  occ. eigenvalues --  -10.25090 -10.25087 -10.25086 -10.25078 -10.25077
 Alpha  occ. eigenvalues --  -10.25077 -10.25076 -10.25075 -10.25074 -10.25074
 Alpha  occ. eigenvalues --  -10.25074 -10.24947 -10.24945 -10.24944 -10.24943
 Alpha  occ. eigenvalues --  -10.24943 -10.24942 -10.24942 -10.24938 -10.24902
 Alpha  occ. eigenvalues --  -10.24901 -10.24900 -10.24898 -10.24897 -10.24897
 Alpha  occ. eigenvalues --  -10.24894 -10.24893 -10.24594 -10.24588 -10.24587
 Alpha  occ. eigenvalues --  -10.24587 -10.24587 -10.24585 -10.24585 -10.24578
 Alpha  occ. eigenvalues --  -10.24524 -10.24524 -10.24520 -10.24520 -10.24520
 Alpha  occ. eigenvalues --  -10.24519 -10.24517 -10.24516  -3.55357  -3.55302
 Alpha  occ. eigenvalues --   -2.23164  -2.23162  -2.23112  -2.23111  -2.18954
 Alpha  occ. eigenvalues --   -2.18888  -1.01403  -1.01383  -1.00725  -1.00721
 Alpha  occ. eigenvalues --   -1.00704  -1.00703  -1.00538  -1.00517  -0.98175
 Alpha  occ. eigenvalues --   -0.98175  -0.98175  -0.98175  -0.90824  -0.90816
 Alpha  occ. eigenvalues --   -0.90741  -0.90739  -0.90733  -0.90732  -0.90720
 Alpha  occ. eigenvalues --   -0.90712  -0.88727  -0.88714  -0.88693  -0.88692
 Alpha  occ. eigenvalues --   -0.88689  -0.88681  -0.88680  -0.88679  -0.83979
 Alpha  occ. eigenvalues --   -0.83962  -0.83955  -0.83955  -0.83766  -0.83763
 Alpha  occ. eigenvalues --   -0.83743  -0.83743  -0.82940  -0.82928  -0.82925
 Alpha  occ. eigenvalues --   -0.82924  -0.82801  -0.82800  -0.82799  -0.82799
 Alpha  occ. eigenvalues --   -0.81140  -0.81072  -0.81050  -0.81050  -0.80935
 Alpha  occ. eigenvalues --   -0.80807  -0.80795  -0.80795  -0.80419  -0.80374
 Alpha  occ. eigenvalues --   -0.80359  -0.80358  -0.80127  -0.80078  -0.80077
 Alpha  occ. eigenvalues --   -0.80057  -0.77771  -0.77756  -0.77755  -0.77750
 Alpha  occ. eigenvalues --   -0.77086  -0.77080  -0.77079  -0.77072  -0.77034
 Alpha  occ. eigenvalues --   -0.76998  -0.76997  -0.76961  -0.76873  -0.76810
 Alpha  occ. eigenvalues --   -0.76809  -0.76767  -0.74773  -0.74732  -0.74730
 Alpha  occ. eigenvalues --   -0.74709  -0.73356  -0.73323  -0.73322  -0.73305
 Alpha  occ. eigenvalues --   -0.68977  -0.68945  -0.68910  -0.68896  -0.68836
 Alpha  occ. eigenvalues --   -0.68836  -0.68783  -0.68782  -0.67856  -0.67825
 Alpha  occ. eigenvalues --   -0.67822  -0.67805  -0.67635  -0.67623  -0.67615
 Alpha  occ. eigenvalues --   -0.67614  -0.66797  -0.66796  -0.66767  -0.66762
 Alpha  occ. eigenvalues --   -0.66692  -0.66692  -0.66657  -0.66656  -0.65239
 Alpha  occ. eigenvalues --   -0.65219  -0.65219  -0.65197  -0.65027  -0.64999
 Alpha  occ. eigenvalues --   -0.64998  -0.64971  -0.62977  -0.62959  -0.62897
 Alpha  occ. eigenvalues --   -0.62895  -0.62886  -0.62884  -0.62849  -0.62844
 Alpha  occ. eigenvalues --   -0.61570  -0.61447  -0.61427  -0.61426  -0.61379
 Alpha  occ. eigenvalues --   -0.61305  -0.61304  -0.61274  -0.58314  -0.58272
 Alpha  occ. eigenvalues --   -0.58271  -0.58246  -0.56742  -0.56731  -0.56442
 Alpha  occ. eigenvalues --   -0.56392  -0.56372  -0.56371  -0.56318  -0.56317
 Alpha  occ. eigenvalues --   -0.55994  -0.55917  -0.55692  -0.55692  -0.55665
 Alpha  occ. eigenvalues --   -0.55649  -0.55648  -0.55583  -0.55550  -0.55375
 Alpha  occ. eigenvalues --   -0.55345  -0.55344  -0.55018  -0.54809  -0.54587
 Alpha  occ. eigenvalues --   -0.54587  -0.54540  -0.54513  -0.54313  -0.54260
 Alpha  occ. eigenvalues --   -0.53736  -0.53736  -0.53711  -0.53711  -0.52533
 Alpha  occ. eigenvalues --   -0.52530  -0.52528  -0.52524  -0.50382  -0.50305
 Alpha  occ. eigenvalues --   -0.50292  -0.50291  -0.50271  -0.50037  -0.49966
 Alpha  occ. eigenvalues --   -0.49957  -0.49956  -0.49786  -0.49644  -0.49643
 Alpha  occ. eigenvalues --   -0.49391  -0.49317  -0.49133  -0.49009  -0.49008
 Alpha  occ. eigenvalues --   -0.49006  -0.48984  -0.48983  -0.48684  -0.48635
 Alpha  occ. eigenvalues --   -0.48579  -0.48491  -0.48412  -0.48411  -0.48362
 Alpha  occ. eigenvalues --   -0.48361  -0.48177  -0.48103  -0.48036  -0.47976
 Alpha  occ. eigenvalues --   -0.47974  -0.47796  -0.47791  -0.47650  -0.47518
 Alpha  occ. eigenvalues --   -0.47517  -0.47438  -0.47438  -0.47357  -0.47331
 Alpha  occ. eigenvalues --   -0.46272  -0.46266  -0.46198  -0.46197  -0.46188
 Alpha  occ. eigenvalues --   -0.46186  -0.46093  -0.46085  -0.45609  -0.45603
 Alpha  occ. eigenvalues --   -0.45593  -0.45589  -0.45249  -0.45214  -0.45175
 Alpha  occ. eigenvalues --   -0.45158  -0.45063  -0.45061  -0.45011  -0.45010
 Alpha  occ. eigenvalues --   -0.44723  -0.44687  -0.44663  -0.44578  -0.44577
 Alpha  occ. eigenvalues --   -0.44504  -0.44083  -0.43975  -0.43974  -0.43953
 Alpha  occ. eigenvalues --   -0.43840  -0.43823  -0.43639  -0.43582  -0.43581
 Alpha  occ. eigenvalues --   -0.43568  -0.43239  -0.43223  -0.42551  -0.42550
 Alpha  occ. eigenvalues --   -0.42549  -0.42546  -0.42497  -0.42496  -0.42488
 Alpha  occ. eigenvalues --   -0.42487  -0.41830  -0.41821  -0.41744  -0.41736
 Alpha  occ. eigenvalues --   -0.40794  -0.40792  -0.40744  -0.40724  -0.40721
 Alpha  occ. eigenvalues --   -0.40615  -0.40606  -0.40494  -0.40415  -0.40412
 Alpha  occ. eigenvalues --   -0.40351  -0.40348  -0.40258  -0.40211  -0.40204
 Alpha  occ. eigenvalues --   -0.40156  -0.40025  -0.39992  -0.39954  -0.39953
 Alpha  occ. eigenvalues --   -0.39787  -0.39756  -0.39689  -0.39688  -0.39665
 Alpha  occ. eigenvalues --   -0.39664  -0.39149  -0.39148  -0.39105  -0.39104
 Alpha  occ. eigenvalues --   -0.38803  -0.38783  -0.38065  -0.37964  -0.37677
 Alpha  occ. eigenvalues --   -0.37654  -0.36936  -0.36933  -0.36924  -0.36754
 Alpha  occ. eigenvalues --   -0.36753  -0.36746  -0.36727  -0.36658  -0.36301
 Alpha  occ. eigenvalues --   -0.36300  -0.36292  -0.36292  -0.36131  -0.36046
 Alpha  occ. eigenvalues --   -0.36044  -0.36040  -0.35382  -0.35377  -0.35281
 Alpha  occ. eigenvalues --   -0.35262  -0.34599  -0.34596  -0.34450  -0.34321
 Alpha  occ. eigenvalues --   -0.34317  -0.34199  -0.33434  -0.33433  -0.33394
 Alpha  occ. eigenvalues --   -0.33335  -0.33162  -0.33160  -0.33158  -0.32684
 Alpha  occ. eigenvalues --   -0.32675  -0.32671  -0.32561  -0.32232  -0.31891
 Alpha  occ. eigenvalues --   -0.31886  -0.31765  -0.31762  -0.31537  -0.31515
 Alpha  occ. eigenvalues --   -0.31401  -0.31391  -0.31379  -0.31331  -0.31306
 Alpha  occ. eigenvalues --   -0.31299  -0.29707  -0.29701  -0.29341  -0.29339
 Alpha  occ. eigenvalues --   -0.29318  -0.29312  -0.29178  -0.29165  -0.29146
 Alpha  occ. eigenvalues --   -0.29017  -0.29016  -0.28877  -0.28746  -0.28723
 Alpha  occ. eigenvalues --   -0.28722  -0.28716  -0.28017  -0.27895  -0.27885
 Alpha  occ. eigenvalues --   -0.27867  -0.27705  -0.27698  -0.27688  -0.27687
 Alpha  occ. eigenvalues --   -0.27686  -0.27674  -0.27673  -0.27633  -0.27270
 Alpha  occ. eigenvalues --   -0.27125  -0.26373  -0.26300  -0.26298  -0.26201
 Alpha  occ. eigenvalues --   -0.25917  -0.25719  -0.25719  -0.25552  -0.24478
 Alpha  occ. eigenvalues --   -0.24432  -0.24431  -0.24385  -0.23538  -0.23491
 Alpha  occ. eigenvalues --   -0.23485  -0.23439
 Alpha virt. eigenvalues --   -0.10776  -0.10765  -0.10701  -0.10700  -0.10681
 Alpha virt. eigenvalues --   -0.10678  -0.10613  -0.10587  -0.09491  -0.09457
 Alpha virt. eigenvalues --   -0.08925  -0.08911  -0.08908  -0.08867  -0.08710

 Mulliken charges:
               1
     1  C    0.126946
     2  C   -0.029960
     3  C    0.038217
     4  C   -0.007630
     5  C    0.006605
     6  C   -0.019071
     7  C    0.032973
     8  C   -0.007558
     9  C    0.144273
    10  C   -0.064168
    11  C    0.004908
    12  C    0.009131
    13  C   -0.074871
    14  C    0.009031
    15  C   -0.019784
    16  C   -0.024702
    17  C    0.040215
    18  C   -0.054469
    19  C    0.015410
    20  C    0.038540
    21  C    0.015453
    22  C   -0.054826
    23  C    0.040181
    24  C   -0.024710
    25  C   -0.074814
    26  C    0.009290
    27  C   -0.019164
    28  C   -0.066493
    29  C    0.005560
    30  C    0.009033
    31  C    0.032205
    32  C   -0.018089
    33  C    0.006463
    34  C   -0.007223
    35  C    0.038777
    36  C   -0.030103
    37  C    0.126888
    38  C    0.144935
    39  C   -0.008208
    40  C    0.127221
    41  C   -0.029946
    42  C    0.038050
    43  C   -0.007537
    44  C    0.006648
    45  C   -0.019201
    46  C    0.033468
    47  C   -0.007880
    48  C    0.143844
    49  C   -0.063695
    50  C    0.004675
    51  C    0.008922
    52  C   -0.074607
    53  C    0.008876
    54  C   -0.020384
    55  C   -0.024547
    56  C    0.039945
    57  C   -0.054508
    58  C    0.015247
    59  C    0.038640
    60  C    0.015197
    61  C   -0.054638
    62  C    0.039161
    63  C   -0.023872
    64  C   -0.074514
    65  C    0.008934
    66  C    0.005214
    67  C   -0.065445
    68  C   -0.019976
    69  C    0.008999
    70  C    0.032980
    71  C   -0.018505
    72  C    0.006513
    73  C   -0.007253
    74  C    0.038815
    75  C   -0.030350
    76  C    0.127037
    77  C    0.144139
    78  C   -0.008250
    79  C    0.127014
    80  C   -0.030000
    81  C    0.038345
    82  C   -0.007439
    83  C    0.006572
    84  C   -0.018686
    85  C    0.032274
    86  C   -0.007977
    87  C    0.144848
    88  C   -0.065821
    89  C   -0.019229
    90  C    0.009185
    91  C   -0.074788
    92  C    0.009004
    93  C    0.005739
    94  C   -0.024684
    95  C    0.040017
    96  C   -0.054538
    97  C    0.015300
    98  C    0.038625
    99  C    0.015332
   100  C   -0.054368
   101  C    0.039910
   102  C   -0.024398
   103  C   -0.074514
   104  C    0.009047
   105  C    0.004680
   106  C   -0.063722
   107  C   -0.020679
   108  C    0.008751
   109  C    0.033713
   110  C   -0.019172
   111  C    0.006621
   112  C   -0.007291
   113  C    0.038809
   114  C   -0.030169
   115  C    0.126883
   116  C    0.143355
   117  C   -0.008275
   118  C    0.127136
   119  C   -0.029932
   120  C    0.038203
   121  C   -0.007539
   122  C    0.006576
   123  C   -0.018423
   124  C    0.032251
   125  C   -0.007831
   126  C    0.144997
   127  C   -0.066085
   128  C   -0.018859
   129  C    0.009512
   130  C   -0.074988
   131  C    0.008976
   132  C    0.005546
   133  C   -0.025536
   134  C    0.040867
   135  C   -0.054951
   136  C    0.015450
   137  C    0.038539
   138  C    0.015327
   139  C   -0.054500
   140  C    0.039542
   141  C   -0.023968
   142  C   -0.074603
   143  C    0.009055
   144  C    0.004736
   145  C   -0.064432
   146  C   -0.020047
   147  C    0.008857
   148  C    0.033270
   149  C   -0.018784
   150  C    0.006535
   151  C   -0.007290
   152  C    0.038495
   153  C   -0.030195
   154  C    0.126946
   155  C    0.143842
   156  C   -0.007673
   157  H    0.108653
   158  H    0.058671
   159  H    0.045016
   160  H    0.058451
   161  H    0.044143
   162  H    0.112464
   163  H    0.033942
   164  H    0.030676
   165  H    0.038564
   166  H    0.044169
   167  H    0.049877
   168  H    0.061292
   169  H    0.049895
   170  H    0.038467
   171  H    0.044160
   172  H    0.034300
   173  H    0.030844
   174  H    0.044066
   175  H    0.058541
   176  H    0.045052
   177  H    0.058703
   178  H    0.108886
   179  H    0.111977
   180  H    0.108826
   181  H    0.058630
   182  H    0.045032
   183  H    0.058461
   184  H    0.044168
   185  H    0.112690
   186  H    0.034162
   187  H    0.030709
   188  H    0.038553
   189  H    0.044307
   190  H    0.049942
   191  H    0.061314
   192  H    0.049925
   193  H    0.030755
   194  H    0.034302
   195  H    0.044339
   196  H    0.038517
   197  H    0.044140
   198  H    0.058548
   199  H    0.045104
   200  H    0.058754
   201  H    0.109043
   202  H    0.112466
   203  H    0.108743
   204  H    0.058635
   205  H    0.045021
   206  H    0.058480
   207  H    0.044107
   208  H    0.112693
   209  H    0.044091
   210  H    0.038516
   211  H    0.030765
   212  H    0.033731
   213  H    0.049888
   214  H    0.061294
   215  H    0.049910
   216  H    0.030783
   217  H    0.034072
   218  H    0.044268
   219  H    0.038735
   220  H    0.044186
   221  H    0.058559
   222  H    0.045114
   223  H    0.058786
   224  H    0.109193
   225  H    0.112516
   226  H    0.108593
   227  H    0.058565
   228  H    0.044983
   229  H    0.058450
   230  H    0.044056
   231  H    0.112345
   232  H    0.044093
   233  H    0.038290
   234  H    0.030804
   235  H    0.034071
   236  H    0.049911
   237  H    0.061300
   238  H    0.049919
   239  H    0.030741
   240  H    0.034425
   241  H    0.044242
   242  H    0.038551
   243  H    0.044184
   244  H    0.058510
   245  H    0.045119
   246  H    0.058800
   247  H    0.109146
   248  H    0.111958
   249  N   -0.321549
   250  N   -0.179807
   251  N   -0.321050
   252  N   -0.321613
   253  N   -0.179534
   254  N   -0.321188
   255  N   -0.321593
   256  N   -0.179896
   257  N   -0.321043
   258  N   -0.321482
   259  N   -0.179561
   260  N   -0.321157
   261  Pd   0.446491
   262  Pd   0.442440
 Sum of Mulliken charges =   4.00000

 Dipole moment (field-independent basis, Debye):
    X=              0.0251    Y=             -0.0002    Z=             -0.0502  Tot=              0.0562
 Quadrupole moment (field-independent basis, Debye-Ang):
   XX=            396.9784   YY=           -625.2075   ZZ=           -625.8876
   XY=             -0.4022   XZ=              0.4302   YZ=              0.1071

 Normal termination of Gaussian 16 at Fri Dec  1 11:21:49 2023.
