 Gaussian 16, Revision C.01,
 Gaussian 16:  ES64L-G16RevC.01  3-Jul-2019

 ----------------------------------------------------------------------
 #P PBE1PBE/Def2SVP SP SCF=(YQC,MaxCycle=900) int=(Grid=Superfinegrid)
 EmpiricalDispersion=GD3BJ SCRF=(PCM,Solvent=DiMethylSulfoxide)
 ----------------------------------------------------------------------

 --------
 _s_5b4_b
 --------
 Symbolic Z-matrix:
 Charge =  4 Multiplicity = 1

                         Standard orientation:
 ---------------------------------------------------------------------
 Center     Atomic      Atomic             Coordinates (Angstroms)
 Number     Number       Type             X           Y           Z
 ---------------------------------------------------------------------
      1         46           0        7.190449    0.071123    0.013420
      2         46           0       -6.751475    1.046049   -0.082645
      3          6           0       -0.447512    5.752066   -0.595344
      4          6           0       -1.654486    5.827757   -0.633891
      5          6           0       -3.054400    5.968517   -0.681844
      6          6           0       -3.617325    7.222083   -0.855687
      7          6           0       -5.004971    7.392432   -0.904083
      8          6           0       -5.850500    6.320327   -0.779049
      9          6           0       -5.317378    5.026222   -0.600469
     10          6           0       -6.136701    3.888847   -0.464003
     11          7           0       -5.650866    2.678790   -0.297455
     12          6           0       -4.307186    2.484917   -0.253118
     13          6           0       -3.425567    3.522360   -0.374095
     14          6           0       -3.906888    4.836175   -0.551333
     15          1           0       -2.971839    8.081646   -0.955152
     16          1           0       -5.405506    8.384991   -1.041282
     17          1           0       -6.919783    6.454533   -0.815626
     18          1           0       -7.217801    3.996029   -0.495322
     19          1           0       -3.983163    1.452224   -0.114916
     20          1           0       -2.360747    3.356589   -0.336040
     21          6           0        0.957977    5.676297   -0.551460
     22          6           0        1.603552    4.445149   -0.388892
     23          6           0        2.978340    4.386729   -0.347864
     24          6           0        3.741583    5.554347   -0.467461
     25          6           0        3.095376    6.785717   -0.628906
     26          6           0        1.719960    6.845249   -0.670694
     27          1           0        1.015449    3.545989   -0.296327
     28          1           0        3.478402    3.439677   -0.221064
     29          1           0        3.682147    7.687399   -0.720901
     30          1           0        1.222086    7.795380   -0.795428
     31          6           0        5.147619    5.490666   -0.427531
     32          6           0        6.355933    5.425663   -0.394683
     33          6           0        7.759546    5.337702   -0.358229
     34          6           0        8.546520    6.472619   -0.426389
     35          6           0        9.942262    6.381647   -0.391732
     36          6           0       10.574589    5.166822   -0.290483
     37          6           0        9.816785    3.983542   -0.218790
     38          6           0       10.397282    2.698134   -0.115082
     39          6           0        9.598435    1.591179   -0.050135
     40          7           0        8.249944    1.688335   -0.081215
     41          6           0        7.668895    2.865164   -0.177330
     42          6           0        8.394394    4.062658   -0.251433
     43          1           0        8.077214    7.441182   -0.507312
     44          1           0       10.525641    7.288223   -0.446713
     45          1           0       11.651299    5.106466   -0.265222
     46          1           0       11.471233    2.605031   -0.088559
     47          1           0       10.005244    0.584243    0.029627
     48          1           0        6.579288    2.894285   -0.199380
     49          6           0        2.347343   -2.100870   -4.857191
     50          6           0        3.546131   -2.264486   -4.851732
     51          6           0        4.933518   -2.456077   -4.713407
     52          6           0        5.596864   -3.487684   -5.354339
     53          6           0        6.957676   -3.720360   -5.123327
     54          6           0        7.663758   -2.959716   -4.226236
     55          6           0        7.024745   -1.895083   -3.556237
     56          6           0        7.654478   -1.140057   -2.546341
     57          7           0        7.052380   -0.149237   -1.926604
     58          6           0        5.799887    0.226517   -2.289390
     59          6           0        5.082531   -0.474925   -3.215771
     60          6           0        5.660204   -1.602269   -3.836330
     61          1           0        5.053629   -4.127685   -6.032744
     62          1           0        7.445002   -4.528767   -5.646293
     63          1           0        8.702359   -3.166983   -4.023644
     64          1           0        8.670245   -1.370144   -2.237991
     65          1           0        5.411869    1.127889   -1.813273
     66          1           0        4.074491   -0.193103   -3.474789
     67          6           0        0.954850   -1.894069   -4.843614
     68          6           0        0.129298   -2.524960   -5.780674
     69          6           0       -1.229223   -2.299453   -5.766109
     70          6           0       -1.792823   -1.443485   -4.811124
     71          6           0       -0.969553   -0.827161   -3.862344
     72          6           0        0.389285   -1.048077   -3.881384
     73          1           0        0.564452   -3.179926   -6.520860
     74          1           0       -1.866690   -2.777051   -6.495077
     75          1           0       -1.405510   -0.164586   -3.131554
     76          1           0        1.029941   -0.567585   -3.158725
     77          6           0       -3.173587   -1.175255   -4.860506
     78          6           0       -4.352064   -0.914369   -4.952877
     79          6           0       -5.687098   -0.575349   -5.236427
     80          6           0       -6.174688   -0.811943   -6.511686
     81          6           0       -7.462853   -0.416706   -6.879700
     82          6           0       -8.278761    0.237060   -5.989345
     83          6           0       -7.831575    0.483709   -4.680044
     84          6           0       -8.620557    1.160663   -3.722383
     85          6           0       -8.146033    1.337211   -2.457337
     86          7           0       -6.935993    0.856859   -2.062649
     87          6           0       -6.157450    0.252376   -2.936311
     88          6           0       -6.534056    0.053125   -4.275844
     89          1           0       -5.539141   -1.297178   -7.236411
     90          1           0       -7.807189   -0.616415   -7.882864
     91          1           0       -9.263878    0.565702   -6.280772
     92          1           0       -9.593698    1.529917   -4.004135
     93          1           0       -8.724738    1.876360   -1.703953
     94          1           0       -5.196580   -0.105328   -2.580973
     95          6           0        1.234183   -4.965526    0.298670
     96          6           0        2.440209   -5.062969    0.288557
     97          6           0        3.846114   -5.124608    0.280750
     98          6           0        4.517218   -6.334156    0.330876
     99          6           0        5.916166   -6.383498    0.327823
    100          6           0        6.665181   -5.235913    0.276207
    101          6           0        6.019849   -3.981603    0.222820
    102          6           0        6.727156   -2.768876    0.165926
    103          7           0        6.123257   -1.599519    0.110475
    104          6           0        4.769926   -1.526689    0.109550
    105          6           0        3.992610   -2.645690    0.165564
    106          6           0        4.597030   -3.916010    0.223356
    107          1           0        3.951524   -7.252581    0.373590
    108          1           0        6.404233   -7.345137    0.367740
    109          1           0        7.742458   -5.279583    0.275463
    110          1           0        7.814512   -2.756811    0.165865
    111          1           0        4.350888   -0.527202    0.062207
    112          1           0        2.917153   -2.575222    0.164916
    113          6           0       -0.166844   -4.829179    0.313999
    114          6           0       -0.991701   -5.958579    0.369625
    115          6           0       -2.361259   -5.814120    0.389873
    116          6           0       -2.937092   -4.537763    0.353621
    117          6           0       -2.111824   -3.408933    0.295320
    118          6           0       -0.743243   -3.553497    0.276885
    119          1           0       -0.548499   -6.942816    0.397857
    120          1           0       -2.998896   -6.684508    0.434232
    121          1           0       -2.557964   -2.427940    0.267846
    122          1           0       -0.104116   -2.686325    0.234506
    123          6           0       -4.338131   -4.407939    0.381163
    124          6           0       -5.543988   -4.307144    0.410112
    125          6           0       -6.949231   -4.283786    0.454688
    126          6           0       -7.646236   -5.472391    0.587984
    127          6           0       -9.043163   -5.489636    0.638194
    128          6           0       -9.767163   -4.326071    0.555943
    129          6           0       -9.102752   -3.094085    0.418374
    130          6           0       -9.787845   -1.862238    0.326186
    131          6           0       -9.084160   -0.701185    0.190890
    132          7           0       -7.731091   -0.680109    0.141553
    133          6           0       -7.054128   -1.810484    0.226536
    134          6           0       -7.678353   -3.059113    0.366301
    135          1           0       -7.099500   -6.400609    0.654889
    136          1           0       -9.552175   -6.435600    0.743470
    137          1           0      -10.844996   -4.341686    0.594926
    138          1           0      -10.865360   -1.850749    0.362809
    139          1           0       -9.584636    0.259130    0.117460
    140          1           0       -5.967796   -1.743188    0.182635
    141          6           0        2.319711   -1.272275    5.193587
    142          6           0        3.513212   -1.470794    5.204004
    143          6           0        4.893578   -1.717423    5.083196
    144          6           0        5.542841   -2.654160    5.867764
    145          6           0        6.894475   -2.952743    5.659821
    146          6           0        7.604800   -2.355056    4.649859
    147          6           0        6.980760   -1.388714    3.832647
    148          6           0        7.616046   -0.805994    2.717643
    149          7           0        7.028871    0.095876    1.962570
    150          6           0        5.787337    0.546871    2.272449
    151          6           0        5.065303    0.007554    3.298449
    152          6           0        5.626571   -1.025521    4.077715
    153          1           0        4.995449   -3.169383    6.642282
    154          1           0        7.370936   -3.683848    6.294742
    155          1           0        8.635590   -2.615935    4.470677
    156          1           0        8.623741   -1.101758    2.440269
    157          1           0        5.412014    1.374430    1.668874
    158          1           0        4.066160    0.347462    3.519622
    159          6           0        0.935421   -1.019634    5.149168
    160          6           0        0.102027   -1.393164    6.208980
    161          6           0       -1.245888   -1.114274    6.157882
    162          6           0       -1.790646   -0.462807    5.043988
    163          6           0       -0.960767   -0.109061    3.974300
    164          6           0        0.387537   -0.381303    4.029310
    165          1           0        0.523026   -1.889039    7.070854
    166          1           0       -1.888877   -1.390763    6.980119
    167          1           0       -1.382342    0.396753    3.120310
    168          1           0        1.034487   -0.101144    3.212987
    169          6           0       -3.156405   -0.122314    5.046515
    170          6           0       -4.318374    0.214735    5.087251
    171          6           0       -5.628911    0.679817    5.297040
    172          6           0       -6.094831    0.784732    6.597709
    173          6           0       -7.354490    1.320928    6.875085
    174          6           0       -8.162535    1.777151    5.862791
    175          6           0       -7.737470    1.675299    4.527227
    176          6           0       -8.520206    2.134489    3.443454
    177          6           0       -8.069708    1.974359    2.167493
    178          7           0       -6.890348    1.357300    1.886201
    179          6           0       -6.117553    0.947556    2.870882
    180          6           0       -6.470216    1.097327    4.223293
    181          1           0       -5.463938    0.459156    7.410537
    182          1           0       -7.682240    1.388621    7.901110
    183          1           0       -9.124822    2.214365    6.078005
    184          1           0       -9.469771    2.606509    3.639394
    185          1           0       -8.643401    2.340201    1.312735
    186          1           0       -5.181638    0.469083    2.601309
 ---------------------------------------------------------------------

 SCF Done:  E(RPBE1PBE) =  -4990.83741849     a.u. after   41 cycles
 SCF Done:  E(RPBE1PBE) =  -4990.83751373     A.U. after    9 cycles

 The electronic state is 1-A.
 Alpha  occ. eigenvalues --  -14.48644 -14.48618 -14.48529 -14.48474 -14.48463
 Alpha  occ. eigenvalues --  -14.48438 -14.48004 -14.47921 -10.32722 -10.32625
 Alpha  occ. eigenvalues --  -10.32614 -10.32500 -10.32442 -10.32436 -10.32384
 Alpha  occ. eigenvalues --  -10.32370 -10.31292 -10.31251 -10.31250 -10.31188
 Alpha  occ. eigenvalues --  -10.31025 -10.31023 -10.31001 -10.30997 -10.29841
 Alpha  occ. eigenvalues --  -10.29839 -10.29822 -10.29811 -10.29626 -10.29608
 Alpha  occ. eigenvalues --  -10.29587 -10.29515 -10.29486 -10.29475 -10.29439
 Alpha  occ. eigenvalues --  -10.29403 -10.29173 -10.29170 -10.29134 -10.29130
 Alpha  occ. eigenvalues --  -10.29095 -10.29092 -10.29088 -10.29084 -10.29043
 Alpha  occ. eigenvalues --  -10.29030 -10.28988 -10.28899 -10.28525 -10.28522
 Alpha  occ. eigenvalues --  -10.28518 -10.28518 -10.28517 -10.28517 -10.28514
 Alpha  occ. eigenvalues --  -10.28512 -10.27972 -10.27967 -10.27950 -10.27885
 Alpha  occ. eigenvalues --  -10.27866 -10.27809 -10.27806 -10.27805 -10.27741
 Alpha  occ. eigenvalues --  -10.27728 -10.27694 -10.27607 -10.27521 -10.27508
 Alpha  occ. eigenvalues --  -10.27491 -10.27411 -10.27291 -10.27275 -10.27263
 Alpha  occ. eigenvalues --  -10.27262 -10.27074 -10.27072 -10.27069 -10.27066
 Alpha  occ. eigenvalues --  -10.26946 -10.26935 -10.26884 -10.26862 -10.26858
 Alpha  occ. eigenvalues --  -10.26856 -10.26854 -10.26814 -10.26589 -10.26539
 Alpha  occ. eigenvalues --  -10.26533 -10.26531 -10.26511 -10.26510 -10.26503
 Alpha  occ. eigenvalues --  -10.26502 -10.26456 -10.26448 -10.26445 -10.26440
 Alpha  occ. eigenvalues --  -10.26421 -10.26421 -10.26417 -10.26416 -10.26412
 Alpha  occ. eigenvalues --  -10.26409 -10.26392 -10.26364 -10.26364 -10.26359
 Alpha  occ. eigenvalues --  -10.26353 -10.26351 -10.26244 -10.26203 -10.26193
 Alpha  occ. eigenvalues --  -10.26190 -10.26120 -10.26114 -10.26106 -10.26079
 Alpha  occ. eigenvalues --   -3.57874  -3.57392  -2.25893  -2.25763  -2.25304
 Alpha  occ. eigenvalues --   -2.25225  -2.21686  -2.21162  -1.04493  -1.03832
 Alpha  occ. eigenvalues --   -1.03537  -1.03410  -1.03224  -1.03146  -1.03061
 Alpha  occ. eigenvalues --   -1.03004  -0.93026  -0.92925  -0.92896  -0.92851
 Alpha  occ. eigenvalues --   -0.92754  -0.92729  -0.92696  -0.92684  -0.91877
 Alpha  occ. eigenvalues --   -0.91872  -0.91864  -0.91855  -0.86236  -0.86203
 Alpha  occ. eigenvalues --   -0.86188  -0.86170  -0.85855  -0.85727  -0.85644
 Alpha  occ. eigenvalues --   -0.85592  -0.84726  -0.84638  -0.84612  -0.84598
 Alpha  occ. eigenvalues --   -0.83807  -0.83653  -0.83637  -0.83602  -0.83102
 Alpha  occ. eigenvalues --   -0.83034  -0.82939  -0.82938  -0.81731  -0.81576
 Alpha  occ. eigenvalues --   -0.81499  -0.81381  -0.81053  -0.80906  -0.80835
 Alpha  occ. eigenvalues --   -0.80700  -0.79509  -0.79504  -0.79496  -0.79485
 Alpha  occ. eigenvalues --   -0.78039  -0.78003  -0.77989  -0.77947  -0.75484
 Alpha  occ. eigenvalues --   -0.75459  -0.75452  -0.75432  -0.71831  -0.71541
 Alpha  occ. eigenvalues --   -0.71529  -0.71517  -0.71392  -0.71283  -0.71236
 Alpha  occ. eigenvalues --   -0.71050  -0.69856  -0.69766  -0.69753  -0.69665
 Alpha  occ. eigenvalues --   -0.69363  -0.69083  -0.69032  -0.69023  -0.68769
 Alpha  occ. eigenvalues --   -0.68758  -0.68623  -0.68612  -0.67081  -0.67014
 Alpha  occ. eigenvalues --   -0.67004  -0.66963  -0.65682  -0.65605  -0.65600
 Alpha  occ. eigenvalues --   -0.65572  -0.65358  -0.65355  -0.65348  -0.65336
 Alpha  occ. eigenvalues --   -0.60869  -0.60519  -0.60310  -0.60191  -0.60162
 Alpha  occ. eigenvalues --   -0.60027  -0.59940  -0.59902  -0.58825  -0.58517
 Alpha  occ. eigenvalues --   -0.58309  -0.58223  -0.58214  -0.58198  -0.58154
 Alpha  occ. eigenvalues --   -0.58138  -0.58112  -0.58011  -0.57981  -0.57836
 Alpha  occ. eigenvalues --   -0.57348  -0.57256  -0.57115  -0.57037  -0.56356
 Alpha  occ. eigenvalues --   -0.56314  -0.56159  -0.56122  -0.55380  -0.55280
 Alpha  occ. eigenvalues --   -0.55250  -0.55184  -0.52980  -0.52958  -0.52734
 Alpha  occ. eigenvalues --   -0.52659  -0.52394  -0.52381  -0.52263  -0.51947
 Alpha  occ. eigenvalues --   -0.51815  -0.51729  -0.51625  -0.51602  -0.51460
 Alpha  occ. eigenvalues --   -0.51392  -0.51238  -0.51225  -0.51171  -0.51149
 Alpha  occ. eigenvalues --   -0.50917  -0.50685  -0.50632  -0.50450  -0.50356
 Alpha  occ. eigenvalues --   -0.49983  -0.49811  -0.49680  -0.49450  -0.49294
 Alpha  occ. eigenvalues --   -0.49251  -0.49209  -0.49069  -0.48878  -0.48774
 Alpha  occ. eigenvalues --   -0.48676  -0.48420  -0.48359  -0.48335  -0.48315
 Alpha  occ. eigenvalues --   -0.48254  -0.48228  -0.48114  -0.47984  -0.47401
 Alpha  occ. eigenvalues --   -0.47385  -0.47383  -0.47371  -0.47242  -0.46842
 Alpha  occ. eigenvalues --   -0.46326  -0.46302  -0.46280  -0.46275  -0.46027
 Alpha  occ. eigenvalues --   -0.45954  -0.45664  -0.45523  -0.44790  -0.44653
 Alpha  occ. eigenvalues --   -0.44541  -0.44536  -0.44393  -0.44242  -0.44056
 Alpha  occ. eigenvalues --   -0.43984  -0.43879  -0.43865  -0.43713  -0.43632
 Alpha  occ. eigenvalues --   -0.43622  -0.43208  -0.43053  -0.42816  -0.42601
 Alpha  occ. eigenvalues --   -0.42512  -0.42018  -0.41835  -0.41800  -0.41743
 Alpha  occ. eigenvalues --   -0.41713  -0.41632  -0.41608  -0.41545  -0.41535
 Alpha  occ. eigenvalues --   -0.41388  -0.40253  -0.40199  -0.40103  -0.40046
 Alpha  occ. eigenvalues --   -0.39716  -0.39713  -0.39620  -0.39551  -0.39497
 Alpha  occ. eigenvalues --   -0.39451  -0.39404  -0.39363  -0.39079  -0.39061
 Alpha  occ. eigenvalues --   -0.39020  -0.39003  -0.38988  -0.38554  -0.38422
 Alpha  occ. eigenvalues --   -0.38285  -0.37539  -0.37196  -0.36874  -0.36610
 Alpha  occ. eigenvalues --   -0.36585  -0.36445  -0.36370  -0.36360  -0.36183
 Alpha  occ. eigenvalues --   -0.35760  -0.35216  -0.35103  -0.34843  -0.34736
 Alpha  occ. eigenvalues --   -0.34553  -0.34219  -0.34126  -0.33861  -0.32928
 Alpha  occ. eigenvalues --   -0.32852  -0.32592  -0.32338  -0.31863  -0.31745
 Alpha  occ. eigenvalues --   -0.31580  -0.31463  -0.31399  -0.31361  -0.31345
 Alpha  occ. eigenvalues --   -0.31325  -0.31266  -0.31195  -0.31167  -0.31162
 Alpha  occ. eigenvalues --   -0.31115  -0.30933  -0.30524  -0.30305  -0.29882
 Alpha  occ. eigenvalues --   -0.29809  -0.29785  -0.29770  -0.29687  -0.29557
 Alpha  occ. eigenvalues --   -0.29499  -0.29040  -0.28972  -0.28917  -0.26933
 Alpha  occ. eigenvalues --   -0.26689  -0.26636  -0.26371  -0.23939  -0.23901
 Alpha  occ. eigenvalues --   -0.23776  -0.23703
 Alpha virt. eigenvalues --   -0.11256  -0.11183  -0.10821  -0.10631  -0.10440
 Alpha virt. eigenvalues --   -0.10122  -0.09423  -0.09121  -0.08444  -0.07771
 Alpha virt. eigenvalues --   -0.07193  -0.07023  -0.06765  -0.06593  -0.06405

 Mulliken charges:
               1
     1  Pd   0.425724
     2  Pd   0.496774
     3  C    0.013387
     4  C   -0.062565
     5  C   -0.025663
     6  C    0.019604
     7  C   -0.000944
     8  C    0.020945
     9  C   -0.068325
    10  C    0.183883
    11  N   -0.315923
    12  C    0.151853
    13  C   -0.013650
    14  C    0.077198
    15  H    0.044300
    16  H    0.054612
    17  H    0.044804
    18  H    0.084334
    19  H    0.105739
    20  H    0.049076
    21  C   -0.071188
    22  C    0.013087
    23  C    0.004000
    24  C   -0.069110
    25  C    0.013842
    26  C    0.013167
    27  H    0.035008
    28  H    0.038484
    29  H    0.038646
    30  H    0.038810
    31  C    0.013311
    32  C   -0.063847
    33  C   -0.003303
    34  C    0.004267
    35  C    0.014344
    36  C    0.005879
    37  C    0.034044
    38  C   -0.017944
    39  C    0.153803
    40  N   -0.309641
    41  C    0.182716
    42  C   -0.018796
    43  H    0.042118
    44  H    0.056021
    45  H    0.041374
    46  H    0.053986
    47  H    0.108624
    48  H    0.080844
    49  C    0.015417
    50  C   -0.061821
    51  C   -0.021427
    52  C    0.025986
    53  C   -0.001460
    54  C    0.023407
    55  C   -0.053489
    56  C    0.168682
    57  N   -0.312361
    58  C    0.118443
    59  C    0.007990
    60  C    0.060465
    61  H    0.044820
    62  H    0.055878
    63  H    0.045319
    64  H    0.089672
    65  H    0.100286
    66  H    0.051139
    67  C   -0.070999
    68  C    0.015965
    69  C    0.013229
    70  C   -0.075605
    71  C    0.017628
    72  C    0.006212
    73  H    0.038728
    74  H    0.039414
    75  H    0.034128
    76  H    0.037020
    77  C    0.028351
    78  C   -0.076345
    79  C   -0.015463
    80  C    0.005141
    81  C    0.015239
    82  C    0.005936
    83  C    0.029910
    84  C   -0.011052
    85  C    0.130610
    86  N   -0.324036
    87  C    0.181945
    88  C   -0.010902
    89  H    0.042167
    90  H    0.055849
    91  H    0.041624
    92  H    0.053726
    93  H    0.109049
    94  H    0.079300
    95  C    0.008055
    96  C   -0.054927
    97  C   -0.021340
    98  C    0.023425
    99  C   -0.001958
   100  C    0.020509
   101  C   -0.049146
   102  C    0.174170
   103  N   -0.342060
   104  C    0.164361
   105  C   -0.004172
   106  C    0.071603
   107  H    0.044056
   108  H    0.055020
   109  H    0.043961
   110  H    0.100254
   111  H    0.099783
   112  H    0.044042
   113  C   -0.068617
   114  C    0.015635
   115  C    0.012712
   116  C   -0.072147
   117  C    0.013130
   118  C    0.005230
   119  H    0.038548
   120  H    0.039214
   121  H    0.035154
   122  H    0.036387
   123  C    0.019226
   124  C   -0.069609
   125  C   -0.010571
   126  C    0.003295
   127  C    0.015648
   128  C    0.006526
   129  C    0.030403
   130  C   -0.018566
   131  C    0.148415
   132  N   -0.320850
   133  C    0.177685
   134  C   -0.005033
   135  H    0.042027
   136  H    0.055924
   137  H    0.041392
   138  H    0.053201
   139  H    0.083139
   140  H    0.092912
   141  C    0.013965
   142  C   -0.060337
   143  C   -0.021736
   144  C    0.026156
   145  C   -0.001749
   146  C    0.023463
   147  C   -0.055594
   148  C    0.172400
   149  N   -0.313278
   150  C    0.119000
   151  C    0.005982
   152  C    0.061318
   153  H    0.044691
   154  H    0.055795
   155  H    0.045333
   156  H    0.089512
   157  H    0.100519
   158  H    0.051070
   159  C   -0.071213
   160  C    0.016338
   161  C    0.013333
   162  C   -0.075847
   163  C    0.017821
   164  C    0.006470
   165  H    0.038628
   166  H    0.039458
   167  H    0.034068
   168  H    0.036693
   169  C    0.027974
   170  C   -0.076124
   171  C   -0.015462
   172  C    0.005177
   173  C    0.015238
   174  C    0.006115
   175  C    0.029702
   176  C   -0.010643
   177  C    0.128855
   178  N   -0.323960
   179  C    0.182301
   180  C   -0.011074
   181  H    0.042138
   182  H    0.055862
   183  H    0.041712
   184  H    0.053822
   185  H    0.109549
   186  H    0.079089
 Sum of Mulliken charges =   4.00000

 Dipole moment (field-independent basis, Debye):
    X=             -0.1399    Y=              2.3618    Z=             -0.1372  Tot=              2.3699
 Quadrupole moment (field-independent basis, Debye-Ang):
   XX=            406.1395   YY=           -450.3118   ZZ=           -519.9933
   XY=            -72.7476   XZ=              6.2181   YZ=             -1.8414

 Normal termination of Gaussian 16 at Fri Feb 26 16:19:08 2021.
