 Gaussian 16, Revision C.01,
 Gaussian 16:  ES64L-G16RevC.01  3-Jul-2019

 ----------------------------------------------------------------------
 #P PBE1PBE/Def2SVP SP SCF=(YQC,MaxCycle=900) int=(Grid=Superfinegrid)
 EmpiricalDispersion=GD3BJ SCRF=(PCM,Solvent=DiMethylSulfoxide)
 ----------------------------------------------------------------------

 --------
 _s_3d1_a
 --------
 Symbolic Z-matrix:
 Charge =  4 Multiplicity = 1

                         Standard orientation:
 ---------------------------------------------------------------------
 Center     Atomic      Atomic             Coordinates (Angstroms)
 Number     Number       Type             X           Y           Z
 ---------------------------------------------------------------------
      1         46           0       -5.159329    0.000077   -0.001282
      2         46           0        4.438315   -0.000918   -0.003045
      3          6           0       -1.363545   -3.613877    3.368710
      4          6           0       -2.496340   -3.343234    3.046851
      5          6           0       -3.787371   -2.953296    2.639640
      6          6           0       -4.953351   -3.539820    3.149917
      7          6           0       -6.182099   -3.081586    2.707641
      8          6           0       -6.232986   -2.053641    1.777306
      9          7           0       -5.119498   -1.498699    1.294377
     10          6           0       -3.926087   -1.928084    1.701685
     11          1           0       -4.885610   -4.334967    3.875966
     12          1           0       -7.096021   -3.513996    3.081671
     13          1           0       -7.174939   -1.659964    1.406106
     14          1           0       -3.048687   -1.441809    1.275311
     15          6           0       -0.036478   -3.886921    3.762655
     16          6           0        0.220211   -4.515959    4.983283
     17          6           0        1.528095   -4.734001    5.374809
     18          6           0        2.579328   -4.339291    4.564997
     19          6           0        2.335597   -3.720014    3.336457
     20          6           0        1.021167   -3.494919    2.940520
     21          1           0       -0.599258   -4.821315    5.615198
     22          1           0        1.732260   -5.212640    6.320317
     23          1           0        3.591888   -4.492607    4.903968
     24          1           0        0.801535   -3.049417    1.983231
     25          6           0        3.467985   -3.306022    2.492018
     26          6           0        4.634710   -4.074109    2.420201
     27          6           0        5.702977   -3.632379    1.658118
     28          6           0        5.589328   -2.436524    0.971219
     29          7           0        4.466690   -1.713089    1.016327
     30          6           0        3.432522   -2.124967    1.751929
     31          1           0        4.697829   -5.013008    2.947432
     32          1           0        6.612078   -4.208453    1.597655
     33          1           0        6.405054   -2.044594    0.367589
     34          1           0        2.563780   -1.471586    1.760522
     35          6           0       -1.364414   -3.379154   -3.607477
     36          6           0       -2.497081   -3.055491   -3.338247
     37          6           0       -3.787981   -2.646066   -2.950142
     38          6           0       -4.953940   -3.157279   -3.535690
     39          6           0       -6.182630   -2.712908   -3.079149
     40          6           0       -6.233265   -1.779898   -2.053599
     41          7           0       -5.119652   -1.296090   -1.499604
     42          6           0       -3.926448   -1.705144   -1.927583
     43          1           0       -4.886415   -3.885599   -4.328735
     44          1           0       -7.096619   -3.087399   -3.510897
     45          1           0       -7.175168   -1.407027   -1.661391
     46          1           0       -3.048930   -1.277797   -1.442381
     47          6           0       -0.037456   -3.774533   -3.878788
     48          6           0        0.219185   -4.997685   -4.502813
     49          6           0        1.527053   -5.390084   -4.719380
     50          6           0        2.578386   -4.578695   -4.328142
     51          6           0        2.334628   -3.347798   -3.713676
     52          6           0        1.020275   -2.950869   -3.490120
     53          1           0       -0.600324   -5.630830   -4.805567
     54          1           0        1.731151   -6.337601   -5.194203
     55          1           0        3.590916   -4.918316   -4.480185
     56          1           0        0.800819   -1.991722   -3.048547
     57          6           0        3.466954   -2.501673   -3.302948
     58          6           0        4.633494   -2.431996   -4.071609
     59          6           0        5.701497   -1.667938   -3.632680
     60          6           0        5.588145   -0.977509   -2.438898
     61          7           0        4.465931   -1.020985   -1.714706
     62          6           0        3.431740   -1.758028   -2.124154
     63          1           0        4.696555   -2.962424   -5.008808
     64          1           0        6.610397   -1.608780   -4.209373
     65          1           0        6.403752   -0.372299   -2.049227
     66          1           0        2.563120   -1.764825   -1.470523
     67          6           0       -1.362741    3.621034   -3.364264
     68          6           0       -2.495422    3.348471   -3.043565
     69          6           0       -3.786502    2.957254   -2.637611
     70          6           0       -4.952357    3.545191   -3.146515
     71          6           0       -6.181110    3.085859   -2.705757
     72          6           0       -6.232278    2.055604   -1.777945
     73          7           0       -5.118839    1.499293   -1.296267
     74          6           0       -3.925366    1.929512   -1.702517
     75          1           0       -4.884447    4.342339   -3.870469
     76          1           0       -7.095074    3.519239   -3.078719
     77          1           0       -7.174252    1.661281   -1.407724
     78          1           0       -3.048094    1.441798   -1.277566
     79          6           0       -0.035891    3.896340   -3.757202
     80          6           0        0.220139    4.531551   -4.974786
     81          6           0        1.527764    4.751913   -5.365662
     82          6           0        2.579420    4.353490   -4.558242
     83          6           0        2.336435    3.728100   -3.332701
     84          6           0        1.022258    3.500794   -2.937291
     85          1           0       -0.599640    4.839744   -5.604882
     86          1           0        1.731490    5.235304   -6.308960
     87          1           0        3.591793    4.508656   -4.897065
     88          1           0        0.802997    3.050705   -1.982108
     89          6           0        3.469254    3.310313   -2.490766
     90          6           0        4.636514    4.077614   -2.417083
     91          6           0        5.705336    3.632355   -1.657746
     92          6           0        5.591591    2.434198   -0.975075
     93          7           0        4.468361    1.711684   -1.021493
     94          6           0        3.433839    2.126607   -1.754935
     95          1           0        4.699668    5.018440   -2.940740
     96          1           0        6.614851    4.207580   -1.596233
     97          1           0        6.407708    2.039675   -0.373645
     98          1           0        2.564961    1.473482   -1.765282
     99          6           0       -1.361659    3.372879    3.608570
    100          6           0       -2.494653    3.050754    3.338474
    101          6           0       -3.785850    2.643082    2.949536
    102          6           0       -4.951445    3.154740    3.535440
    103          6           0       -6.180436    2.712155    3.078087
    104          6           0       -6.231823    1.780266    2.051578
    105          7           0       -5.118594    1.296059    1.497204
    106          6           0       -3.924925    1.703551    1.925902
    107          1           0       -4.883444    3.882191    4.329313
    108          1           0       -7.094247    3.087142    3.509970
    109          1           0       -7.173936    1.408649    1.658789
    110          1           0       -3.047856    1.276016    1.440156
    111          6           0       -0.034605    3.766906    3.881157
    112          6           0        0.222262    4.988074    4.509089
    113          6           0        1.530201    5.379527    4.726793
    114          6           0        2.581365    4.569244    4.332854
    115          6           0        2.337420    3.340316    3.714599
    116          6           0        1.022963    2.944236    3.489811
    117          1           0       -0.597083    5.620442    4.813927
    118          1           0        1.734589    6.325410    5.204661
    119          1           0        3.593974    4.908149    4.485833
    120          1           0        0.803131    1.986604    3.045287
    121          6           0        3.469609    2.495285    3.301136
    122          6           0        4.636515    2.423892    4.069102
    123          6           0        5.704518    1.661254    3.627697
    124          6           0        5.590629    0.973553    2.432349
    125          7           0        4.467910    1.018394    1.709035
    126          6           0        3.433798    1.754449    2.120616
    127          1           0        4.699879    2.951915    5.007510
    128          1           0        6.613808    1.601077    4.203676
    129          1           0        6.406080    0.369495    2.040787
    130          1           0        2.565033    1.762584    1.467374
 ---------------------------------------------------------------------

 SCF Done:  E(RPBE1PBE) =  -3459.87333525     a.u. after   27 cycles
 SCF Done:  E(RPBE1PBE) =  -3459.87334568     A.U. after    9 cycles

 The electronic state is 1-A.
 Alpha  occ. eigenvalues --  -14.49257 -14.49248 -14.49248 -14.49245 -14.48902
 Alpha  occ. eigenvalues --  -14.48898 -14.48897 -14.48896 -10.32730 -10.32729
 Alpha  occ. eigenvalues --  -10.32729 -10.32726 -10.32167 -10.32167 -10.32166
 Alpha  occ. eigenvalues --  -10.32165 -10.32164 -10.32163 -10.32163 -10.32162
 Alpha  occ. eigenvalues --  -10.31867 -10.31867 -10.31864 -10.31864 -10.31002
 Alpha  occ. eigenvalues --  -10.31001 -10.31001 -10.31000 -10.29525 -10.29524
 Alpha  occ. eigenvalues --  -10.29524 -10.29524 -10.29505 -10.29505 -10.29504
 Alpha  occ. eigenvalues --  -10.29503 -10.28996 -10.28996 -10.28995 -10.28995
 Alpha  occ. eigenvalues --  -10.28697 -10.28697 -10.28696 -10.28696 -10.28414
 Alpha  occ. eigenvalues --  -10.28414 -10.28413 -10.28413 -10.28114 -10.28114
 Alpha  occ. eigenvalues --  -10.28112 -10.28112 -10.27942 -10.27941 -10.27941
 Alpha  occ. eigenvalues --  -10.27940 -10.27079 -10.27079 -10.27078 -10.27077
 Alpha  occ. eigenvalues --  -10.27052 -10.27050 -10.27050 -10.27049 -10.26599
 Alpha  occ. eigenvalues --  -10.26597 -10.26597 -10.26597 -10.26588 -10.26587
 Alpha  occ. eigenvalues --  -10.26586 -10.26586 -10.26526 -10.26525 -10.26525
 Alpha  occ. eigenvalues --  -10.26525 -10.26027 -10.26027 -10.26027 -10.26027
 Alpha  occ. eigenvalues --   -3.57835  -3.57510  -2.25759  -2.25756  -2.25414
 Alpha  occ. eigenvalues --   -2.25410  -2.21540  -2.21187  -1.04759  -1.04307
 Alpha  occ. eigenvalues --   -1.04015  -1.04012  -1.03951  -1.03556  -1.03552
 Alpha  occ. eigenvalues --   -1.03444  -0.92424  -0.92393  -0.92393  -0.92392
 Alpha  occ. eigenvalues --   -0.89123  -0.88893  -0.88853  -0.88852  -0.87983
 Alpha  occ. eigenvalues --   -0.87759  -0.87730  -0.87730  -0.84891  -0.84746
 Alpha  occ. eigenvalues --   -0.84745  -0.84670  -0.84318  -0.84226  -0.84225
 Alpha  occ. eigenvalues --   -0.84150  -0.82371  -0.82329  -0.82329  -0.82282
 Alpha  occ. eigenvalues --   -0.79174  -0.79120  -0.79119  -0.79064  -0.77601
 Alpha  occ. eigenvalues --   -0.77533  -0.77531  -0.77442  -0.71940  -0.71813
 Alpha  occ. eigenvalues --   -0.71811  -0.71523  -0.70813  -0.70759  -0.70758
 Alpha  occ. eigenvalues --   -0.70560  -0.69955  -0.69765  -0.69668  -0.69558
 Alpha  occ. eigenvalues --   -0.69553  -0.69552  -0.69331  -0.69330  -0.66225
 Alpha  occ. eigenvalues --   -0.66098  -0.66024  -0.66023  -0.64804  -0.64683
 Alpha  occ. eigenvalues --   -0.64649  -0.64648  -0.62488  -0.61707  -0.61092
 Alpha  occ. eigenvalues --   -0.61076  -0.61075  -0.60278  -0.59828  -0.59828
 Alpha  occ. eigenvalues --   -0.57443  -0.57017  -0.57016  -0.56888  -0.56543
 Alpha  occ. eigenvalues --   -0.56502  -0.56501  -0.56285  -0.55901  -0.55900
 Alpha  occ. eigenvalues --   -0.55854  -0.55824  -0.55085  -0.54820  -0.54819
 Alpha  occ. eigenvalues --   -0.54583  -0.52554  -0.52548  -0.52232  -0.52197
 Alpha  occ. eigenvalues --   -0.52196  -0.51575  -0.51523  -0.51357  -0.50820
 Alpha  occ. eigenvalues --   -0.50805  -0.50804  -0.50746  -0.50576  -0.50518
 Alpha  occ. eigenvalues --   -0.50184  -0.50183  -0.50140  -0.49905  -0.49846
 Alpha  occ. eigenvalues --   -0.49568  -0.49566  -0.49174  -0.49161  -0.49133
 Alpha  occ. eigenvalues --   -0.48597  -0.48588  -0.48587  -0.48297  -0.48295
 Alpha  occ. eigenvalues --   -0.48028  -0.47209  -0.47030  -0.47015  -0.47014
 Alpha  occ. eigenvalues --   -0.46876  -0.46875  -0.46745  -0.46315  -0.46313
 Alpha  occ. eigenvalues --   -0.46252  -0.43890  -0.43650  -0.43604  -0.43603
 Alpha  occ. eigenvalues --   -0.43435  -0.43434  -0.43381  -0.43275  -0.42949
 Alpha  occ. eigenvalues --   -0.42767  -0.42746  -0.42746  -0.42308  -0.42144
 Alpha  occ. eigenvalues --   -0.41929  -0.41650  -0.41347  -0.39825  -0.39824
 Alpha  occ. eigenvalues --   -0.39731  -0.39698  -0.39688  -0.39686  -0.39677
 Alpha  occ. eigenvalues --   -0.39320  -0.39316  -0.39022  -0.38727  -0.38513
 Alpha  occ. eigenvalues --   -0.37534  -0.37532  -0.36967  -0.36966  -0.36659
 Alpha  occ. eigenvalues --   -0.36001  -0.35999  -0.35541  -0.34707  -0.34704
 Alpha  occ. eigenvalues --   -0.34527  -0.34526  -0.34173  -0.34052  -0.33589
 Alpha  occ. eigenvalues --   -0.33586  -0.33180  -0.33069  -0.33067  -0.32555
 Alpha  occ. eigenvalues --   -0.32348  -0.32323  -0.32322  -0.32307  -0.32213
 Alpha  occ. eigenvalues --   -0.31268  -0.31170  -0.31115  -0.31111  -0.29285
 Alpha  occ. eigenvalues --   -0.29154  -0.28562  -0.28520  -0.28519  -0.28399
 Alpha  occ. eigenvalues --   -0.26449  -0.26307  -0.26306  -0.26151
 Alpha virt. eigenvalues --   -0.09502  -0.09222  -0.09218  -0.08667  -0.08200
 Alpha virt. eigenvalues --   -0.08196  -0.08045  -0.07671  -0.07662  -0.07464
 Alpha virt. eigenvalues --   -0.07455  -0.07160  -0.06696  -0.06559  -0.06554

 Mulliken charges:
               1
     1  Pd   0.503773
     2  Pd   0.482255
     3  C    0.011400
     4  C   -0.006808
     5  C   -0.119037
     6  C    0.112315
     7  C   -0.035452
     8  C    0.158058
     9  N   -0.312270
    10  C    0.177040
    11  H    0.064848
    12  H    0.073134
    13  H    0.109453
    14  H    0.093004
    15  C   -0.078492
    16  C    0.025927
    17  C   -0.011252
    18  C   -0.017067
    19  C    0.031741
    20  C   -0.005077
    21  H    0.038607
    22  H    0.046701
    23  H    0.041645
    24  H    0.032694
    25  C   -0.031597
    26  C    0.063866
    27  C   -0.029382
    28  C    0.145602
    29  N   -0.321434
    30  C    0.157006
    31  H    0.064767
    32  H    0.068429
    33  H    0.112805
    34  H    0.092326
    35  C    0.011424
    36  C   -0.006824
    37  C   -0.119060
    38  C    0.112311
    39  C   -0.035441
    40  C    0.158018
    41  N   -0.312179
    42  C    0.177098
    43  H    0.064834
    44  H    0.073108
    45  H    0.109438
    46  H    0.093029
    47  C   -0.078520
    48  C    0.025918
    49  C   -0.011314
    50  C   -0.017001
    51  C    0.031673
    52  C   -0.005054
    53  H    0.038606
    54  H    0.046729
    55  H    0.041636
    56  H    0.032707
    57  C   -0.031754
    58  C    0.063945
    59  C   -0.029552
    60  C    0.145755
    61  N   -0.321425
    62  C    0.157126
    63  H    0.064798
    64  H    0.068480
    65  H    0.112612
    66  H    0.092356
    67  C    0.011282
    68  C   -0.006734
    69  C   -0.119025
    70  C    0.112297
    71  C   -0.035488
    72  C    0.158116
    73  N   -0.312311
    74  C    0.177105
    75  H    0.064892
    76  H    0.073162
    77  H    0.109406
    78  H    0.093017
    79  C   -0.078519
    80  C    0.025939
    81  C   -0.011282
    82  C   -0.017215
    83  C    0.031946
    84  C   -0.005121
    85  H    0.038595
    86  H    0.046745
    87  H    0.041671
    88  H    0.032672
    89  C   -0.031496
    90  C    0.063791
    91  C   -0.029370
    92  C    0.145712
    93  N   -0.321473
    94  C    0.157010
    95  H    0.064751
    96  H    0.068399
    97  H    0.112734
    98  H    0.092319
    99  C    0.011372
   100  C   -0.006782
   101  C   -0.118995
   102  C    0.112300
   103  C   -0.035473
   104  C    0.158056
   105  N   -0.312330
   106  C    0.177105
   107  H    0.064874
   108  H    0.073151
   109  H    0.109431
   110  H    0.092978
   111  C   -0.078565
   112  C    0.025940
   113  C   -0.011269
   114  C   -0.017042
   115  C    0.031758
   116  C   -0.005031
   117  H    0.038626
   118  H    0.046713
   119  H    0.041631
   120  H    0.032684
   121  C   -0.031594
   122  C    0.063925
   123  C   -0.029499
   124  C    0.145731
   125  N   -0.321481
   126  C    0.157077
   127  H    0.064754
   128  H    0.068489
   129  H    0.112624
   130  H    0.092311
 Sum of Mulliken charges =   4.00000

 Dipole moment (field-independent basis, Debye):
    X=             -1.6718    Y=              0.0012    Z=             -0.0028  Tot=              1.6718
 Quadrupole moment (field-independent basis, Debye-Ang):
   XX=             79.7124   YY=           -302.7088   ZZ=           -303.7025
   XY=             -0.0563   XZ=             -0.0060   YZ=             -0.0120

 Normal termination of Gaussian 16 at Fri Feb 26 11:29:35 2021.
