 Gaussian 16, Revision C.01,
 Gaussian 16:  ES64L-G16RevC.01  3-Jul-2019

 --------------------------------------
 # SP B97D3/def2svp scrf=(solvent=dmso)
 --------------------------------------

 ---------
 cis_l1_lb
 ---------
 Symbolic Z-matrix:
 Charge =  4 Multiplicity = 1

                         Standard orientation:
 ---------------------------------------------------------------------
 Center     Atomic      Atomic             Coordinates (Angstroms)
 Number     Number       Type             X           Y           Z
 ---------------------------------------------------------------------
      1         46           0        7.220013   -1.722995    0.301972
      2         46           0       -7.199986   -1.765048    0.161972
      3          6           0        4.884016   -2.349003   -1.342028
      4          7           0        5.984018   -2.894999   -0.803028
      5          6           0        6.199023   -4.210999   -0.943028
      6          6           0        5.300026   -5.034002   -1.603028
      7          6           0        4.123024   -4.494006   -2.140028
      8          6           0        3.092027   -5.333010   -2.777028
      9          6           0        3.441031   -6.484009   -3.518028
     10          6           0        2.480034   -7.298012   -4.111028
     11          6           0        1.152033   -6.935017   -3.931028
     12          8           0        0.066035   -7.605021   -4.404028
     13          6           0       -1.032967   -6.925025   -3.977028
     14          6           0       -2.355966   -7.276030   -4.212028
     15          6           0       -3.332969   -6.456034   -3.656028
     16          6           0       -3.005973   -5.307032   -2.902028
     17          6           0       -4.052976   -4.469036   -2.291028
     18          6           0       -3.874982   -3.086036   -2.140028
     19          6           0       -4.828984   -2.334039   -1.478028
     20          7           0       -5.939982   -2.887043   -0.970028
     21          6           0       -6.154977   -4.199044   -1.138028
     22          6           0       -5.244974   -5.014041   -1.791028
     23          6           0       -1.662975   -4.971027   -2.694028
     24          6           0       -0.673972   -5.791024   -3.227028
     25          6           0        0.771028   -5.798019   -3.195028
     26          6           0        1.745025   -4.989015   -2.619028
     27          6           0        3.943019   -3.108007   -2.012028
     28          1           0        4.760012   -1.270004   -1.228028
     29          1           0        7.109024   -4.612995   -0.492028
     30          1           0        5.509030   -6.103001   -1.657028
     31          1           0        4.495032   -6.736005   -3.652028
     32          1           0        2.756037   -8.180011   -4.691028
     33          1           0       -2.615963   -8.156031   -4.802028
     34          1           0       -4.382968   -6.700037   -3.830028
     35          1           0       -2.995983   -2.582032   -2.542028
     36          1           0       -4.702988   -1.258039   -1.343028
     37          1           0       -7.075976   -4.605047   -0.715028
     38          1           0       -5.454970   -6.082041   -1.866028
     39          1           0       -1.389978   -4.102026   -2.093028
     40          1           0        1.455022   -4.121016   -2.023028
     41          1           0        3.074017   -2.608010   -2.441028
     42          6           0        4.918012   -1.278003    2.057972
     43          7           0        6.004015   -2.048999    1.895972
     44          6           0        6.187019   -3.101999    2.704972
     45          6           0        5.265020   -3.445002    3.680972
     46          6           0        4.095017   -2.687006    3.834972
     47          6           0        3.035018   -3.076010    4.783972
     48          6           0        3.356021   -3.682009    6.017972
     49          6           0        2.375022   -4.096013    6.911972
     50          6           0        1.054021   -3.902017    6.527972
     51          8           0       -0.042977   -4.270021    7.240972
     52          6           0       -1.128978   -3.934026    6.492972
     53          6           0       -2.453978   -4.165030    6.836972
     54          6           0       -3.418979   -3.775034    5.913972
     55          6           0       -3.076981   -3.156033    4.692972
     56          6           0       -4.120983   -2.779037    3.720972
     57          6           0       -3.997987   -1.623036    2.934972
     58          6           0       -4.950988   -1.338040    1.973972
     59          7           0       -6.004985   -2.140043    1.759972
     60          6           0       -6.168981   -3.228044    2.525972
     61          6           0       -5.258980   -3.572041    3.512972
     62          6           0       -1.731982   -2.923028    4.378972
     63          6           0       -0.750981   -3.324024    5.282972
     64          6           0        0.697019   -3.303019    5.305972
     65          6           0        1.694018   -2.877015    4.430972
     66          6           0        3.953013   -1.562007    3.007972
     67          1           0        4.816009   -0.414004    1.397972
     68          1           0        7.089021   -3.694995    2.540972
     69          1           0        5.447023   -4.335001    4.284972
     70          1           0        4.405021   -3.815005    6.291972
     71          1           0        2.627024   -4.555012    7.868972
     72          1           0       -2.722976   -4.634031    7.783972
     73          1           0       -4.471978   -3.935038    6.155972
     74          1           0       -3.163989   -0.934033    3.071972
     75          1           0       -4.869991   -0.445039    1.350972
     76          1           0       -7.043979   -3.848047    2.320972
     77          1           0       -5.422976   -4.487041    4.083972
     78          1           0       -1.452984   -2.473027    3.423972
     79          1           0        1.430016   -2.434016    3.469972
     80          1           0        3.093010   -0.898010    3.098972
     81          6           0       10.473007   -0.088983    2.489972
     82          6           0        9.588011   -0.935986    1.879972
     83          7           0        8.413009   -0.479990    1.365972
     84          6           0        8.078004    0.792008    1.486972
     85          6           0        8.892001    1.737011    2.148972
     86          6           0        8.511996    3.109010    2.304972
     87          6           0        7.165994    3.612005    1.953972
     88          6           0        7.023989    4.825005    1.261972
     89          6           0        5.771987    5.381000    1.041972
     90          6           0        4.611990    4.730996    1.503972
     91          6           0        3.334987    5.345991    1.361972
     92          6           0        2.255985    5.907987    1.305972
     93          6           0        1.027983    6.644982    1.299972
     94          7           0       -0.116015    5.951978    1.294972
     95          6           0       -1.266017    6.635974    1.310972
     96          6           0       -2.487015    5.888969    1.340972
     97          6           0       -3.558012    5.313966    1.422972
     98          6           0       -4.818010    4.670961    1.585972
     99          6           0       -6.002012    5.301957    1.160972
    100          6           0       -7.236010    4.707952    1.387972
    101          6           0       -7.332006    3.472952    2.048972
    102          6           0       -8.656004    2.911947    2.396972
    103          6           0       -9.604007    3.718943    3.001972
    104          6           0      -10.845005    3.207939    3.437972
    105          6           0      -11.152000    1.874938    3.290972
    106          6           0      -10.229997    1.012941    2.653972
    107          6           0      -10.488992   -0.366060    2.453972
    108          6           0       -9.580989   -1.145057    1.788972
    109          7           0       -8.435991   -0.617052    1.277972
    110          6           0       -8.148995    0.659949    1.457972
    111          6           0       -8.987999    1.535946    2.178972
    112          6           0       -6.147003    2.836956    2.453972
    113          6           0       -4.908005    3.418961    2.220972
    114          6           0       -1.321023    8.041974    1.330972
    115          6           0       -0.127025    8.750978    1.339972
    116          6           0        1.071977    8.049983    1.323972
    117          6           0        4.745994    3.496996    2.163972
    118          6           0        6.003996    2.953001    2.389972
    119          6           0        9.437992    3.978013    2.856972
    120          6           0       10.702994    3.537018    3.296972
    121          6           0       11.059999    2.211019    3.207972
    122          6           0       10.161002    1.286016    2.627972
    123          1           0       11.421009   -0.475979    2.865972
    124          1           0        9.790014   -2.000985    1.766972
    125          1           0        7.137003    1.099005    1.026972
    126          1           0        7.912987    5.343008    0.894972
    127          1           0        5.680984    6.333000    0.514972
    128          1           0       -5.945016    6.267957    0.655972
    129          1           0       -8.145012    5.209949    1.048972
    130          1           0       -9.370010    4.768944    3.183972
    131          1           0      -11.555007    3.881936    3.921972
    132          1           0      -12.098998    1.470934    3.652972
    133          1           0      -11.413990   -0.809063    2.824972
    134          1           0       -9.740985   -2.212057    1.622972
    135          1           0       -7.230997    1.028952    0.997972
    136          1           0       -6.194000    1.892956    2.999972
    137          1           0       -3.999004    2.920964    2.560972
    138          1           0       -2.286024    8.548970    1.342972
    139          1           0       -0.131029    9.842978    1.358972
    140          1           0        2.033976    8.564986    1.328972
    141          1           0        3.855996    2.982993    2.532972
    142          1           0        6.083000    2.026001    2.960972
    143          1           0        9.165989    5.027012    2.993972
    144          1           0       11.393991    4.260021    3.736972
    145          1           0       12.026000    1.860023    3.572972
    146          6           0       10.277013   -1.641983   -2.680028
    147          6           0        9.499014   -1.983986   -1.606028
    148          7           0        8.349012   -1.312991   -1.324028
    149          6           0        7.966008   -0.300992   -2.079028
    150          6           0        8.710007    0.153011   -3.186028
    151          6           0        8.280002    1.259009   -3.984028
    152          6           0        7.056000    2.017005   -3.637028
    153          6           0        6.013999    2.126001   -4.568028
    154          6           0        4.846997    2.809997   -4.253028
    155          6           0        4.694995    3.417996   -2.994028
    156          6           0        3.492992    4.122992   -2.688028
    157          6           0        2.452990    4.721988   -2.478028
    158          6           0        1.241987    5.467983   -2.287028
    159          7           0        0.086989    4.802979   -2.409028
    160          6           0       -1.055013    5.485975   -2.273028
    161          6           0       -2.280010    4.760970   -2.451028
    162          6           0       -3.332008    4.181966   -2.653028
    163          6           0       -4.549006    3.501962   -2.961028
    164          6           0       -4.724004    2.933961   -4.235028
    165          6           0       -5.905001    2.279957   -4.557028
    166          6           0       -6.940001    2.161953   -3.619028
    167          6           0       -8.183998    1.445949   -3.987028
    168          6           0       -8.930000    1.844946   -5.080028
    169          6           0      -10.121997    1.177941   -5.442028
    170          6           0      -10.580993    0.098940   -4.721028
    171          6           0       -9.838992   -0.363058   -3.608028
    172          6           0      -10.229987   -1.484059   -2.834028
    173          6           0       -9.456986   -1.898056   -1.782028
    174          7           0       -8.297988   -1.260052   -1.461028
    175          6           0       -7.897992   -0.215050   -2.161028
    176          6           0       -8.632994    0.308947   -3.244028
    177          6           0       -6.767003    2.734954   -2.350028
    178          6           0       -5.590005    3.396958   -2.022028
    179          6           0       -1.091018    6.865975   -2.008028
    180          6           0        0.112979    7.547979   -1.891028
    181          6           0        1.304982    6.845983   -2.025028
    182          6           0        5.745995    3.326000   -2.065028
    183          6           0        6.906997    2.635004   -2.385028
    184          6           0        9.026001    1.584012   -5.101028
    185          6           0       10.202004    0.874016   -5.432028
    186          6           0       10.646008   -0.170982   -4.655028
    187          6           0        9.903009   -0.558985   -3.515028
    188          1           0       11.185015   -2.208980   -2.892028
    189          1           0        9.758017   -2.808985   -0.941028
    190          1           0        7.025006    0.185005   -1.816028
    191          1           0        6.113001    1.647001   -5.545028
    192          1           0        4.037997    2.876994   -4.984028
    193          1           0       -3.923004    3.010964   -4.972028
    194          1           0       -6.024000    1.833956   -5.548028
    195          1           0       -8.602003    2.707947   -5.662028
    196          1           0      -10.687999    1.534939   -6.305028
    197          1           0      -11.504991   -0.411064   -4.997028
    198          1           0      -11.146985   -2.024062   -3.076028
    199          1           0       -9.727983   -2.755057   -1.164028
    200          1           0       -6.950994    0.242953   -1.868028
    201          1           0       -7.571003    2.679951   -1.611028
    202          1           0       -5.475007    3.843958   -1.033028
    203          1           0       -2.048020    7.377971   -1.907028
    204          1           0        0.123975    8.621979   -1.694028
    205          1           0        2.271980    7.341987   -1.935028
    206          1           0        5.648993    3.805999   -1.090028
    207          1           0        7.718998    2.589007   -1.654028
    208          1           0        8.711998    2.422011   -5.727028
    209          1           0       10.769003    1.173018   -6.317028
    210          1           0       11.561010   -0.709979   -4.907028
 ---------------------------------------------------------------------

 SCF Done:  E(RB97D3) =  -5640.13517101     A.U. after   22 cycles

 The electronic state is 1-A.
 Alpha  occ. eigenvalues --  -18.84483 -18.84457 -14.08790 -14.08771 -14.08762
 Alpha  occ. eigenvalues --  -14.08760 -14.08679 -14.08668 -14.08642 -14.08638
 Alpha  occ. eigenvalues --  -14.01839 -14.01684  -9.99639  -9.99632  -9.99620
 Alpha  occ. eigenvalues --   -9.99610  -9.99497  -9.99485  -9.99376  -9.99342
 Alpha  occ. eigenvalues --   -9.99136  -9.99117  -9.99107  -9.99101  -9.99100
 Alpha  occ. eigenvalues --   -9.99097  -9.99079  -9.99061  -9.98801  -9.98778
 Alpha  occ. eigenvalues --   -9.98598  -9.98580  -9.98401  -9.98398  -9.98378
 Alpha  occ. eigenvalues --   -9.98361  -9.97386  -9.97378  -9.97363  -9.97355
 Alpha  occ. eigenvalues --   -9.96392  -9.96378  -9.96364  -9.96364  -9.96347
 Alpha  occ. eigenvalues --   -9.96341  -9.96240  -9.96211  -9.96209  -9.96207
 Alpha  occ. eigenvalues --   -9.95996  -9.95980  -9.95957  -9.95952  -9.95846
 Alpha  occ. eigenvalues --   -9.95834  -9.95654  -9.95634  -9.95631  -9.95627
 Alpha  occ. eigenvalues --   -9.95621  -9.95608  -9.95577  -9.95568  -9.95476
 Alpha  occ. eigenvalues --   -9.95475  -9.95462  -9.95448  -9.95252  -9.95235
 Alpha  occ. eigenvalues --   -9.95108  -9.95106  -9.95104  -9.95100  -9.94939
 Alpha  occ. eigenvalues --   -9.94934  -9.94824  -9.94751  -9.94737  -9.94723
 Alpha  occ. eigenvalues --   -9.94722  -9.94720  -9.94715  -9.94699  -9.94686
 Alpha  occ. eigenvalues --   -9.94684  -9.94636  -9.94630  -9.94560  -9.94555
 Alpha  occ. eigenvalues --   -9.94548  -9.94544  -9.94544  -9.94540  -9.94509
 Alpha  occ. eigenvalues --   -9.94507  -9.94505  -9.94502  -9.94414  -9.94413
 Alpha  occ. eigenvalues --   -9.94392  -9.94388  -9.94381  -9.94376  -9.94363
 Alpha  occ. eigenvalues --   -9.94356  -9.94345  -9.94340  -9.94307  -9.94291
 Alpha  occ. eigenvalues --   -9.94284  -9.94281  -9.94223  -9.94220  -9.94205
 Alpha  occ. eigenvalues --   -9.94180  -9.94039  -9.94034  -9.94018  -9.93988
 Alpha  occ. eigenvalues --   -9.93966  -9.93959  -9.93935  -9.93910  -9.93826
 Alpha  occ. eigenvalues --   -9.93809  -9.93805  -9.93789  -9.93638  -9.93629
 Alpha  occ. eigenvalues --   -9.93321  -9.93302  -9.93170  -9.93156  -3.37103
 Alpha  occ. eigenvalues --   -3.37097  -2.09722  -2.09716  -2.09543  -2.09536
 Alpha  occ. eigenvalues --   -2.05135  -2.05128  -1.04483  -1.04441  -0.92093
 Alpha  occ. eigenvalues --   -0.92089  -0.91588  -0.91584  -0.91480  -0.91467
 Alpha  occ. eigenvalues --   -0.91439  -0.91436  -0.88577  -0.88323  -0.82016
 Alpha  occ. eigenvalues --   -0.82013  -0.81907  -0.81892  -0.81486  -0.81445
 Alpha  occ. eigenvalues --   -0.81036  -0.81015  -0.80153  -0.80145  -0.79957
 Alpha  occ. eigenvalues --   -0.79950  -0.77534  -0.77454  -0.77213  -0.77136
 Alpha  occ. eigenvalues --   -0.75713  -0.75581  -0.75563  -0.75459  -0.74679
 Alpha  occ. eigenvalues --   -0.74506  -0.74415  -0.74199  -0.73225  -0.73182
 Alpha  occ. eigenvalues --   -0.73061  -0.72987  -0.72950  -0.72881  -0.72849
 Alpha  occ. eigenvalues --   -0.72822  -0.72753  -0.72743  -0.72555  -0.72368
 Alpha  occ. eigenvalues --   -0.72341  -0.72119  -0.71079  -0.71040  -0.70030
 Alpha  occ. eigenvalues --   -0.69863  -0.69546  -0.69466  -0.69334  -0.69198
 Alpha  occ. eigenvalues --   -0.69143  -0.69058  -0.69011  -0.69001  -0.67875
 Alpha  occ. eigenvalues --   -0.67857  -0.67261  -0.67082  -0.65793  -0.65648
 Alpha  occ. eigenvalues --   -0.62465  -0.62421  -0.62361  -0.62325  -0.62195
 Alpha  occ. eigenvalues --   -0.62137  -0.61952  -0.61940  -0.61516  -0.61239
 Alpha  occ. eigenvalues --   -0.61195  -0.61008  -0.60966  -0.60845  -0.60801
 Alpha  occ. eigenvalues --   -0.60657  -0.60059  -0.60048  -0.59953  -0.59938
 Alpha  occ. eigenvalues --   -0.59053  -0.58984  -0.58645  -0.58505  -0.58408
 Alpha  occ. eigenvalues --   -0.58248  -0.56661  -0.56619  -0.56590  -0.56571
 Alpha  occ. eigenvalues --   -0.56444  -0.56438  -0.55332  -0.55293  -0.55233
 Alpha  occ. eigenvalues --   -0.55224  -0.55112  -0.55040  -0.54686  -0.54653
 Alpha  occ. eigenvalues --   -0.52342  -0.52165  -0.52011  -0.51913  -0.51648
 Alpha  occ. eigenvalues --   -0.51177  -0.50869  -0.50794  -0.50697  -0.50657
 Alpha  occ. eigenvalues --   -0.50271  -0.50168  -0.50006  -0.49911  -0.49848
 Alpha  occ. eigenvalues --   -0.49833  -0.49769  -0.49615  -0.49370  -0.49289
 Alpha  occ. eigenvalues --   -0.49112  -0.48989  -0.48610  -0.48529  -0.48513
 Alpha  occ. eigenvalues --   -0.48465  -0.47824  -0.47736  -0.46957  -0.46783
 Alpha  occ. eigenvalues --   -0.46771  -0.46723  -0.45931  -0.45909  -0.45027
 Alpha  occ. eigenvalues --   -0.45002  -0.44910  -0.44844  -0.44670  -0.44650
 Alpha  occ. eigenvalues --   -0.44499  -0.44388  -0.44359  -0.44277  -0.44161
 Alpha  occ. eigenvalues --   -0.44063  -0.44051  -0.43956  -0.43946  -0.43780
 Alpha  occ. eigenvalues --   -0.43762  -0.43613  -0.43495  -0.43458  -0.43436
 Alpha  occ. eigenvalues --   -0.43250  -0.43156  -0.43099  -0.42685  -0.42623
 Alpha  occ. eigenvalues --   -0.42599  -0.42548  -0.42431  -0.42307  -0.42103
 Alpha  occ. eigenvalues --   -0.42090  -0.42024  -0.41951  -0.41819  -0.41694
 Alpha  occ. eigenvalues --   -0.41488  -0.41367  -0.41352  -0.41221  -0.41181
 Alpha  occ. eigenvalues --   -0.41138  -0.41101  -0.41015  -0.40968  -0.40792
 Alpha  occ. eigenvalues --   -0.40764  -0.40561  -0.40410  -0.40281  -0.40276
 Alpha  occ. eigenvalues --   -0.40211  -0.40197  -0.40191  -0.39968  -0.39651
 Alpha  occ. eigenvalues --   -0.39557  -0.39468  -0.39439  -0.39403  -0.39270
 Alpha  occ. eigenvalues --   -0.39247  -0.39067  -0.38583  -0.38500  -0.38277
 Alpha  occ. eigenvalues --   -0.38125  -0.37860  -0.37663  -0.37542  -0.37468
 Alpha  occ. eigenvalues --   -0.37354  -0.37279  -0.37206  -0.36637  -0.36547
 Alpha  occ. eigenvalues --   -0.36446  -0.36426  -0.36363  -0.36194  -0.36164
 Alpha  occ. eigenvalues --   -0.36008  -0.35952  -0.35862  -0.35836  -0.35671
 Alpha  occ. eigenvalues --   -0.35615  -0.35537  -0.35527  -0.35439  -0.35367
 Alpha  occ. eigenvalues --   -0.35361  -0.35277  -0.35187  -0.35120  -0.34935
 Alpha  occ. eigenvalues --   -0.34919  -0.34902  -0.34529  -0.34299  -0.34125
 Alpha  occ. eigenvalues --   -0.34042  -0.33975  -0.33836  -0.33012  -0.33007
 Alpha  occ. eigenvalues --   -0.32834  -0.32702  -0.32619  -0.32542  -0.32333
 Alpha  occ. eigenvalues --   -0.32314  -0.32131  -0.32111  -0.32001  -0.31807
 Alpha  occ. eigenvalues --   -0.31758  -0.31573  -0.31340  -0.31106  -0.30881
 Alpha  occ. eigenvalues --   -0.30716  -0.30624  -0.30423  -0.30290  -0.29982
 Alpha  occ. eigenvalues --   -0.29939  -0.29784  -0.29720  -0.29604  -0.29194
 Alpha  occ. eigenvalues --   -0.28899  -0.28442  -0.28396  -0.28213  -0.28137
 Alpha  occ. eigenvalues --   -0.27817  -0.27765  -0.27754  -0.27670  -0.27597
 Alpha  occ. eigenvalues --   -0.27501  -0.27131  -0.27121  -0.26858  -0.26852
 Alpha  occ. eigenvalues --   -0.26256  -0.26243  -0.26145  -0.26131  -0.26095
 Alpha  occ. eigenvalues --   -0.25908  -0.25715  -0.25309  -0.25219  -0.25199
 Alpha  occ. eigenvalues --   -0.25098  -0.24957  -0.24837  -0.24828  -0.24609
 Alpha  occ. eigenvalues --   -0.24081  -0.23946  -0.23855  -0.23792  -0.23617
 Alpha  occ. eigenvalues --   -0.23311  -0.22813  -0.22488  -0.22454  -0.22371
 Alpha  occ. eigenvalues --   -0.22334  -0.22241  -0.22160  -0.21867  -0.21757
 Alpha  occ. eigenvalues --   -0.21217  -0.20748
 Alpha virt. eigenvalues --   -0.11827  -0.11824  -0.11505  -0.11487  -0.11336
 Alpha virt. eigenvalues --   -0.11278  -0.10981  -0.10561  -0.10518  -0.10124
 Alpha virt. eigenvalues --   -0.09791  -0.09727  -0.09096  -0.09068  -0.08815

 Mulliken charges:
               1
     1  Pd   0.360145
     2  Pd   0.359169
     3  C    0.138664
     4  N   -0.229364
     5  C    0.143772
     6  C   -0.013432
     7  C    0.091601
     8  C    0.080891
     9  C   -0.017827
    10  C   -0.063448
    11  C    0.214474
    12  O   -0.212226
    13  C    0.214650
    14  C   -0.063026
    15  C   -0.017959
    16  C    0.080627
    17  C    0.091392
    18  C   -0.018351
    19  C    0.139604
    20  N   -0.227861
    21  C    0.143292
    22  C   -0.012867
    23  C   -0.083524
    24  C    0.071630
    25  C    0.071560
    26  C   -0.084432
    27  C   -0.017222
    28  H    0.068159
    29  H    0.071647
    30  H    0.023949
    31  H    0.010485
    32  H    0.004430
    33  H    0.004311
    34  H    0.010483
    35  H    0.024567
    36  H    0.067095
    37  H    0.072194
    38  H    0.024095
    39  H   -0.002338
    40  H   -0.001704
    41  H    0.024702
    42  C    0.137817
    43  N   -0.229268
    44  C    0.144635
    45  C   -0.012661
    46  C    0.089365
    47  C    0.078085
    48  C   -0.017786
    49  C   -0.060997
    50  C    0.210863
    51  O   -0.210776
    52  C    0.211746
    53  C   -0.061711
    54  C   -0.016287
    55  C    0.074964
    56  C    0.086636
    57  C   -0.015245
    58  C    0.137697
    59  N   -0.230368
    60  C    0.145057
    61  C   -0.011511
    62  C   -0.079415
    63  C    0.071805
    64  C    0.070630
    65  C   -0.079783
    66  C   -0.017899
    67  H    0.067030
    68  H    0.071061
    69  H    0.024487
    70  H    0.010830
    71  H    0.004132
    72  H    0.003995
    73  H    0.010623
    74  H    0.024381
    75  H    0.068845
    76  H    0.070315
    77  H    0.024521
    78  H   -0.002193
    79  H   -0.003009
    80  H    0.024525
    81  C   -0.004991
    82  C    0.136782
    83  N   -0.222836
    84  C    0.093870
    85  C    0.041597
    86  C    0.077217
    87  C    0.016313
    88  C   -0.004430
    89  C    0.017306
    90  C   -0.052866
    91  C    0.025520
    92  C    0.043834
    93  C   -0.079224
    94  N   -0.127499
    95  C   -0.082806
    96  C    0.050581
    97  C    0.021642
    98  C   -0.058709
    99  C    0.017328
   100  C    0.001563
   101  C    0.011229
   102  C    0.076095
   103  C   -0.013163
   104  C    0.046947
   105  C    0.007520
   106  C    0.069116
   107  C   -0.004381
   108  C    0.134593
   109  N   -0.222727
   110  C    0.093330
   111  C    0.040540
   112  C   -0.010366
   113  C    0.020845
   114  C    0.033285
   115  C    0.075211
   116  C    0.030323
   117  C    0.018745
   118  C   -0.012318
   119  C   -0.015400
   120  C    0.046823
   121  C    0.008061
   122  C    0.067328
   123  H    0.018437
   124  H    0.063759
   125  H    0.064773
   126  H    0.003843
   127  H    0.002257
   128  H    0.002063
   129  H    0.003223
   130  H    0.007052
   131  H    0.018618
   132  H    0.004947
   133  H    0.018550
   134  H    0.065655
   135  H    0.066782
   136  H    0.012598
   137  H   -0.001424
   138  H    0.004942
   139  H    0.019885
   140  H    0.005499
   141  H   -0.001000
   142  H    0.012760
   143  H    0.008088
   144  H    0.018705
   145  H    0.004671
   146  C   -0.007298
   147  C    0.135411
   148  N   -0.222951
   149  C    0.098086
   150  C    0.048420
   151  C    0.062304
   152  C   -0.008591
   153  C    0.015469
   154  C    0.012428
   155  C   -0.029471
   156  C   -0.018957
   157  C    0.062425
   158  C   -0.080184
   159  N   -0.131058
   160  C   -0.084266
   161  C    0.061898
   162  C   -0.018619
   163  C   -0.028685
   164  C    0.012556
   165  C    0.015374
   166  C   -0.009042
   167  C    0.059001
   168  C   -0.007670
   169  C    0.045683
   170  C    0.007488
   171  C    0.071007
   172  C   -0.007184
   173  C    0.136260
   174  N   -0.223451
   175  C    0.098753
   176  C    0.049400
   177  C   -0.007038
   178  C    0.009502
   179  C    0.053244
   180  C    0.063143
   181  C    0.046171
   182  C    0.011612
   183  C   -0.009299
   184  C   -0.009417
   185  C    0.045570
   186  C    0.007023
   187  C    0.071868
   188  H    0.018600
   189  H    0.062041
   190  H    0.073408
   191  H   -0.000461
   192  H   -0.001744
   193  H   -0.002362
   194  H   -0.000097
   195  H    0.004007
   196  H    0.018650
   197  H    0.004317
   198  H    0.018658
   199  H    0.061904
   200  H    0.072163
   201  H    0.009215
   202  H    0.003499
   203  H    0.004625
   204  H    0.021560
   205  H    0.004281
   206  H    0.000341
   207  H    0.009159
   208  H    0.004265
   209  H    0.018951
   210  H    0.004449
 Sum of Mulliken charges =   4.00000

 Dipole moment (field-independent basis, Debye):
    X=              0.0064    Y=            -21.9966    Z=              3.7354  Tot=             22.3116
 Quadrupole moment (field-independent basis, Debye-Ang):
   XX=            411.2760   YY=           -484.9734   ZZ=           -597.9191
   XY=              1.7819   XZ=              3.6040   YZ=              4.0612

 Normal termination of Gaussian 16 at Tue Jul 25 17:13:40 2023.
