 Gaussian 16, Revision C.01,
 Gaussian 16:  ES64L-G16RevC.01  3-Jul-2019

 ----------------------------------------------------------------------
 #P PBE1PBE/Def2SVP SP SCF=(YQC,MaxCycle=900) int=(Grid=Superfinegrid)
 EmpiricalDispersion=GD3BJ SCRF=(PCM,Solvent=DiMethylSulfoxide)
 ----------------------------------------------------------------------

 --------
 _s_3d1_c
 --------
 Symbolic Z-matrix:
 Charge =  4 Multiplicity = 1

                         Standard orientation:
 ---------------------------------------------------------------------
 Center     Atomic      Atomic             Coordinates (Angstroms)
 Number     Number       Type             X           Y           Z
 ---------------------------------------------------------------------
      1         46           0        4.744579   -0.099446   -0.896358
      2         46           0       -4.745194    0.090658    0.896064
      3          6           0       -0.095804   -2.848756    4.044132
      4          6           0       -1.237657   -2.464643    3.950636
      5          6           0       -2.570399   -2.023154    3.829359
      6          6           0       -3.520287   -2.262675    4.831656
      7          6           0       -4.814002   -1.805311    4.653753
      8          6           0       -5.139660   -1.125263    3.490456
      9          7           0       -4.232752   -0.904883    2.534878
     10          6           0       -2.980479   -1.333769    2.685791
     11          1           0       -3.237259   -2.794337    5.726727
     12          1           0       -5.565001   -1.972246    5.408817
     13          1           0       -6.141157   -0.741709    3.312275
     14          1           0       -2.288530   -1.128433    1.870789
     15          6           0        1.236312   -3.312713    4.091869
     16          6           0        1.549126   -4.487985    4.778992
     17          6           0        2.850248   -4.955393    4.768275
     18          6           0        3.839555   -4.270208    4.083573
     19          6           0        3.542984   -3.086378    3.403584
     20          6           0        2.234974   -2.610441    3.417212
     21          1           0        0.777259   -5.028156    5.304897
     22          1           0        3.096895   -5.866441    5.291817
     23          1           0        4.838857   -4.675468    4.059353
     24          1           0        1.978767   -1.679371    2.937370
     25          6           0        4.597652   -2.381020    2.657983
     26          6           0        5.930544   -2.380054    3.083759
     27          6           0        6.896972   -1.753171    2.315330
     28          6           0        6.521668   -1.120436    1.142227
     29          7           0        5.246618   -1.092309    0.749223
     30          6           0        4.308946   -1.704573    1.473845
     31          1           0        6.204501   -2.856126    4.012071
     32          1           0        7.929834   -1.753123    2.623968
     33          1           0        7.245612   -0.623328    0.501690
     34          1           0        3.296951   -1.668072    1.075945
     35          6           0       -0.264179    3.948545    3.020659
     36          6           0       -1.436833    3.684279    2.896605
     37          6           0       -2.789435    3.316804    2.753994
     38          6           0       -3.827392    4.027019    3.372643
     39          6           0       -5.129849    3.588488    3.210326
     40          6           0       -5.377563    2.455351    2.449751
     41          7           0       -4.385352    1.782806    1.861730
     42          6           0       -3.124603    2.192987    1.995460
     43          1           0       -3.605283    4.900133    3.966086
     44          1           0       -5.948434    4.115615    3.673080
     45          1           0       -6.383411    2.072536    2.299142
     46          1           0       -2.356250    1.606506    1.492474
     47          6           0        1.112135    4.211189    3.187344
     48          6           0        1.559102    4.943980    4.289771
     49          6           0        2.914600    5.151626    4.464747
     50          6           0        3.827242    4.643704    3.555803
     51          6           0        3.392260    3.919319    2.443273
     52          6           0        2.029047    3.706209    2.264613
     53          1           0        0.848498    5.337156    5.000014
     54          1           0        3.265836    5.710940    5.318358
     55          1           0        4.881664    4.791860    3.728343
     56          1           0        1.661468    3.181924    1.396919
     57          6           0        4.375038    3.383864    1.487437
     58          6           0        5.539802    4.090423    1.169417
     59          6           0        6.461581    3.539198    0.295658
     60          6           0        6.202745    2.298003   -0.259306
     61          7           0        5.081587    1.630762    0.024956
     62          6           0        4.191108    2.145888    0.873695
     63          1           0        5.712991    5.067204    1.593052
     64          1           0        7.367318    4.067384    0.045338
     65          1           0        6.897780    1.821549   -0.947099
     66          1           0        3.317524    1.531485    1.080043
     67          6           0        0.098044    2.851795   -4.034985
     68          6           0        1.238048    2.460731   -3.947018
     69          6           0        2.568826    2.012002   -3.830451
     70          6           0        3.516181    2.244293   -4.836814
     71          6           0        4.808154    1.780540   -4.662581
     72          6           0        5.134739    1.102025   -3.498687
     73          7           0        4.230093    0.888293   -2.539384
     74          6           0        2.979494    1.322851   -2.686986
     75          1           0        3.232521    2.775392   -5.732001
     76          1           0        5.557209    1.941962   -5.420779
     77          1           0        6.135054    0.714294   -3.322890
     78          1           0        2.289195    1.122279   -1.869303
     79          6           0       -1.231635    3.323410   -4.075470
     80          6           0       -1.539583    4.507311   -4.750029
     81          6           0       -2.838070    4.981517   -4.731716
     82          6           0       -3.829632    4.294856   -4.051604
     83          6           0       -3.537915    3.102700   -3.384093
     84          6           0       -2.232581    2.619857   -3.405509
     85          1           0       -0.765961    5.048407   -5.272231
     86          1           0       -3.080956    5.899186   -5.245446
     87          1           0       -4.826726    4.705173   -4.020901
     88          1           0       -1.980407    1.682609   -2.935725
     89          6           0       -4.594465    2.395869   -2.642798
     90          6           0       -5.928272    2.405361   -3.065394
     91          6           0       -6.895960    1.776116   -2.300426
     92          6           0       -6.521167    1.131388   -1.133718
     93          7           0       -5.245494    1.093823   -0.743732
     94          6           0       -4.306427    1.707596   -1.465274
     95          1           0       -6.201984    2.891219   -3.988664
     96          1           0       -7.929479    1.783711   -2.606793
     97          1           0       -7.246024    0.632054   -0.496007
     98          1           0       -3.293576    1.662352   -1.070211
     99          6           0        0.263534   -3.951081   -3.028145
    100          6           0        1.436605   -3.691407   -2.898196
    101          6           0        2.789697   -3.328104   -2.749788
    102          6           0        3.828312   -4.042072   -3.362760
    103          6           0        5.131291   -3.606617   -3.195753
    104          6           0        5.378731   -2.472410   -2.436728
    105          7           0        4.385744   -1.796341   -1.854018
    106          6           0        3.124564   -2.203872   -1.991637
    107          1           0        3.606446   -4.915716   -3.955637
    108          1           0        5.950425   -4.136732   -3.654136
    109          1           0        6.384893   -2.091626   -2.283136
    110          1           0        2.355690   -1.614880   -1.492492
    111          6           0       -1.113128   -4.207345   -3.201608
    112          6           0       -1.558954   -4.930487   -4.310754
    113          6           0       -2.914675   -5.131143   -4.492359
    114          6           0       -3.828544   -4.625991   -3.583187
    115          6           0       -3.394803   -3.911479   -2.463946
    116          6           0       -2.031481   -3.705083   -2.278684
    117          1           0       -0.847314   -5.321479   -5.021215
    118          1           0       -3.264938   -5.682880   -5.351360
    119          1           0       -4.883006   -4.768589   -3.760790
    120          1           0       -1.665025   -3.188568   -1.405823
    121          6           0       -4.378857   -3.379047   -1.507673
    122          6           0       -5.547142   -4.083552   -1.198559
    123          6           0       -6.469733   -3.535268   -0.323673
    124          6           0       -6.208063   -2.298979    0.240983
    125          7           0       -5.083759   -1.633733   -0.035112
    126          6           0       -4.192410   -2.146086   -0.884737
    127          1           0       -5.722643   -5.056585   -1.629711
    128          1           0       -7.378032   -4.061997   -0.079922
    129          1           0       -6.903573   -1.825129    0.930056
    130          1           0       -3.316037   -1.533393   -1.084001
 ---------------------------------------------------------------------

 SCF Done:  E(RPBE1PBE) =  -3459.87341090     a.u. after   31 cycles
 SCF Done:  E(RPBE1PBE) =  -3459.87365139     A.U. after    9 cycles

 The electronic state is 1-A.
 Alpha  occ. eigenvalues --  -14.49240 -14.49238 -14.49231 -14.49231 -14.48899
 Alpha  occ. eigenvalues --  -14.48897 -14.48893 -14.48890 -10.32749 -10.32747
 Alpha  occ. eigenvalues --  -10.32731 -10.32729 -10.32229 -10.32227 -10.32172
 Alpha  occ. eigenvalues --  -10.32171 -10.32143 -10.32142 -10.32140 -10.32136
 Alpha  occ. eigenvalues --  -10.31889 -10.31889 -10.31826 -10.31824 -10.31036
 Alpha  occ. eigenvalues --  -10.31034 -10.31032 -10.31030 -10.29548 -10.29545
 Alpha  occ. eigenvalues --  -10.29536 -10.29535 -10.29500 -10.29499 -10.29498
 Alpha  occ. eigenvalues --  -10.29496 -10.28997 -10.28995 -10.28987 -10.28986
 Alpha  occ. eigenvalues --  -10.28704 -10.28703 -10.28696 -10.28695 -10.28436
 Alpha  occ. eigenvalues --  -10.28434 -10.28420 -10.28419 -10.28129 -10.28129
 Alpha  occ. eigenvalues --  -10.28096 -10.28094 -10.27966 -10.27965 -10.27946
 Alpha  occ. eigenvalues --  -10.27944 -10.27082 -10.27082 -10.27071 -10.27070
 Alpha  occ. eigenvalues --  -10.27064 -10.27063 -10.27058 -10.27055 -10.26613
 Alpha  occ. eigenvalues --  -10.26613 -10.26612 -10.26610 -10.26596 -10.26595
 Alpha  occ. eigenvalues --  -10.26591 -10.26591 -10.26533 -10.26533 -10.26532
 Alpha  occ. eigenvalues --  -10.26531 -10.26033 -10.26033 -10.26031 -10.26030
 Alpha  occ. eigenvalues --   -3.57651  -3.57649  -2.25590  -2.25588  -2.25546
 Alpha  occ. eigenvalues --   -2.25543  -2.21339  -2.21336  -1.04600  -1.04600
 Alpha  occ. eigenvalues --   -1.03936  -1.03936  -1.03747  -1.03746  -1.03553
 Alpha  occ. eigenvalues --   -1.03550  -0.92419  -0.92411  -0.92399  -0.92398
 Alpha  occ. eigenvalues --   -0.89066  -0.88966  -0.88886  -0.88871  -0.87905
 Alpha  occ. eigenvalues --   -0.87775  -0.87753  -0.87729  -0.84873  -0.84772
 Alpha  occ. eigenvalues --   -0.84722  -0.84679  -0.84329  -0.84246  -0.84234
 Alpha  occ. eigenvalues --   -0.84144  -0.82394  -0.82352  -0.82345  -0.82294
 Alpha  occ. eigenvalues --   -0.79156  -0.79146  -0.79083  -0.79070  -0.77612
 Alpha  occ. eigenvalues --   -0.77563  -0.77522  -0.77475  -0.71920  -0.71872
 Alpha  occ. eigenvalues --   -0.71748  -0.71620  -0.70836  -0.70803  -0.70687
 Alpha  occ. eigenvalues --   -0.70588  -0.69947  -0.69809  -0.69705  -0.69581
 Alpha  occ. eigenvalues --   -0.69561  -0.69538  -0.69360  -0.69338  -0.66198
 Alpha  occ. eigenvalues --   -0.66091  -0.66023  -0.65958  -0.64790  -0.64732
 Alpha  occ. eigenvalues --   -0.64691  -0.64684  -0.62344  -0.61632  -0.61599
 Alpha  occ. eigenvalues --   -0.61162  -0.60708  -0.60282  -0.59885  -0.59857
 Alpha  occ. eigenvalues --   -0.57446  -0.57032  -0.56995  -0.56893  -0.56541
 Alpha  occ. eigenvalues --   -0.56506  -0.56440  -0.56357  -0.55900  -0.55892
 Alpha  occ. eigenvalues --   -0.55865  -0.55814  -0.55047  -0.54917  -0.54764
 Alpha  occ. eigenvalues --   -0.54649  -0.52570  -0.52498  -0.52427  -0.52364
 Alpha  occ. eigenvalues --   -0.51956  -0.51945  -0.51256  -0.51064  -0.51043
 Alpha  occ. eigenvalues --   -0.50866  -0.50748  -0.50699  -0.50681  -0.50629
 Alpha  occ. eigenvalues --   -0.50202  -0.50171  -0.50156  -0.49994  -0.49836
 Alpha  occ. eigenvalues --   -0.49693  -0.49443  -0.49314  -0.48906  -0.48863
 Alpha  occ. eigenvalues --   -0.48814  -0.48773  -0.48480  -0.48419  -0.48203
 Alpha  occ. eigenvalues --   -0.48135  -0.47138  -0.47037  -0.46922  -0.46888
 Alpha  occ. eigenvalues --   -0.46883  -0.46857  -0.46579  -0.46578  -0.46362
 Alpha  occ. eigenvalues --   -0.46360  -0.43825  -0.43787  -0.43648  -0.43596
 Alpha  occ. eigenvalues --   -0.43518  -0.43433  -0.43328  -0.43303  -0.42907
 Alpha  occ. eigenvalues --   -0.42846  -0.42760  -0.42744  -0.42076  -0.42006
 Alpha  occ. eigenvalues --   -0.41975  -0.41946  -0.41105  -0.40456  -0.39805
 Alpha  occ. eigenvalues --   -0.39795  -0.39729  -0.39724  -0.39607  -0.39584
 Alpha  occ. eigenvalues --   -0.39397  -0.39265  -0.39019  -0.38622  -0.38541
 Alpha  occ. eigenvalues --   -0.37517  -0.37259  -0.37100  -0.36935  -0.36681
 Alpha  occ. eigenvalues --   -0.35963  -0.35840  -0.35655  -0.34911  -0.34747
 Alpha  occ. eigenvalues --   -0.34404  -0.34239  -0.34208  -0.33926  -0.33895
 Alpha  occ. eigenvalues --   -0.33785  -0.33384  -0.33349  -0.33203  -0.32633
 Alpha  occ. eigenvalues --   -0.32520  -0.32385  -0.32359  -0.32163  -0.32140
 Alpha  occ. eigenvalues --   -0.31118  -0.31098  -0.30770  -0.30740  -0.29175
 Alpha  occ. eigenvalues --   -0.29172  -0.28566  -0.28528  -0.28432  -0.28359
 Alpha  occ. eigenvalues --   -0.26489  -0.26419  -0.26312  -0.26227
 Alpha virt. eigenvalues --   -0.09405  -0.09391  -0.09067  -0.08850  -0.08197
 Alpha virt. eigenvalues --   -0.08093  -0.08048  -0.07666  -0.07604  -0.07475
 Alpha virt. eigenvalues --   -0.07265  -0.07100  -0.06988  -0.06856  -0.06396

 Mulliken charges:
               1
     1  Pd   0.498261
     2  Pd   0.498341
     3  C    0.006476
     4  C   -0.003140
     5  C   -0.120608
     6  C    0.110316
     7  C   -0.032666
     8  C    0.151808
     9  N   -0.315064
    10  C    0.184234
    11  H    0.065404
    12  H    0.073060
    13  H    0.109609
    14  H    0.094265
    15  C   -0.077139
    16  C    0.026164
    17  C   -0.011266
    18  C   -0.019131
    19  C    0.038211
    20  C   -0.011686
    21  H    0.038464
    22  H    0.046630
    23  H    0.041022
    24  H    0.033766
    25  C   -0.024405
    26  C    0.060624
    27  C   -0.031278
    28  C    0.153820
    29  N   -0.314664
    30  C    0.151078
    31  H    0.064269
    32  H    0.068334
    33  H    0.107242
    34  H    0.086183
    35  C    0.010145
    36  C   -0.005518
    37  C   -0.119567
    38  C    0.111425
    39  C   -0.033656
    40  C    0.155570
    41  N   -0.314359
    42  C    0.176964
    43  H    0.065194
    44  H    0.072712
    45  H    0.113748
    46  H    0.092369
    47  C   -0.077809
    48  C    0.025802
    49  C   -0.011248
    50  C   -0.016715
    51  C    0.032191
    52  C   -0.006317
    53  H    0.038574
    54  H    0.046766
    55  H    0.041351
    56  H    0.032585
    57  C   -0.028804
    58  C    0.062747
    59  C   -0.029250
    60  C    0.147066
    61  N   -0.316307
    62  C    0.154400
    63  H    0.064605
    64  H    0.068827
    65  H    0.105016
    66  H    0.093283
    67  C    0.006437
    68  C   -0.003038
    69  C   -0.120697
    70  C    0.110414
    71  C   -0.032638
    72  C    0.151787
    73  N   -0.315141
    74  C    0.184084
    75  H    0.065410
    76  H    0.073081
    77  H    0.109692
    78  H    0.094345
    79  C   -0.077325
    80  C    0.026324
    81  C   -0.011290
    82  C   -0.019052
    83  C    0.038072
    84  C   -0.011644
    85  H    0.038413
    86  H    0.046656
    87  H    0.041040
    88  H    0.033779
    89  C   -0.024337
    90  C    0.060675
    91  C   -0.031236
    92  C    0.153776
    93  N   -0.314601
    94  C    0.150904
    95  H    0.064257
    96  H    0.068348
    97  H    0.107151
    98  H    0.086153
    99  C    0.010193
   100  C   -0.005533
   101  C   -0.119690
   102  C    0.111400
   103  C   -0.033733
   104  C    0.155624
   105  N   -0.314431
   106  C    0.177263
   107  H    0.065234
   108  H    0.072718
   109  H    0.113742
   110  H    0.092407
   111  C   -0.077880
   112  C    0.025766
   113  C   -0.011315
   114  C   -0.016777
   115  C    0.032278
   116  C   -0.006341
   117  H    0.038578
   118  H    0.046792
   119  H    0.041395
   120  H    0.032614
   121  C   -0.028886
   122  C    0.062749
   123  C   -0.029269
   124  C    0.147061
   125  N   -0.316132
   126  C    0.154632
   127  H    0.064574
   128  H    0.068792
   129  H    0.104862
   130  H    0.093190
 Sum of Mulliken charges =   4.00000

 Dipole moment (field-independent basis, Debye):
    X=             -0.0035    Y=             -0.0103    Z=             -0.0049  Tot=              0.0119
 Quadrupole moment (field-independent basis, Debye-Ang):
   XX=             83.1768   YY=           -307.1872   ZZ=           -296.2518
   XY=              1.3547   XZ=            -48.4938   YZ=              0.6957

 Normal termination of Gaussian 16 at Fri Feb 26 13:48:40 2021.
