 Gaussian 16, Revision C.01,
 Gaussian 16:  ES64L-G16RevC.01  3-Jul-2019

 ----------------------------------------------------------------
 # SP B3LYP/def2svp empiricaldispersion=GD3BJ scrf=(solvent=dmso)
 ----------------------------------------------------------------

 -----
 m2_lb
 -----
 Symbolic Z-matrix:
 Charge =  4 Multiplicity = 1

                         Standard orientation:
 ---------------------------------------------------------------------
 Center     Atomic      Atomic             Coordinates (Angstroms)
 Number     Number       Type             X           Y           Z
 ---------------------------------------------------------------------
      1          6           0       -8.055319   -1.844801    2.276731
      2          6           0       -7.856862   -2.491839    3.471687
      3          6           0       -6.799515   -2.098415    4.335255
      4          6           0       -6.491688   -2.771283    5.544314
      5          6           0       -5.408279   -2.361818    6.295372
      6          6           0       -4.619853   -1.251762    5.902889
      7          6           0       -4.909620   -0.533707    4.755686
      8          6           0       -5.994311   -0.983988    3.933136
      9          6           0       -6.266303   -0.398276    2.679546
     10          6           0       -4.130445    0.673511    4.379956
     11          6           0       -2.750834    0.587981    4.136575
     12          6           0       -2.022549    1.714326    3.764398
     13          6           0       -2.662775    2.962570    3.624595
     14          6           0       -4.043051    3.055919    3.897526
     15          6           0       -4.765137    1.924673    4.263998
     16          6           0       -1.943157    4.093468    3.136336
     17          6           0       -1.344483    5.016387    2.613184
     18          6           0       -0.643947    5.961067    1.791743
     19          6           0       -0.665479    7.348311    2.028815
     20          6           0        0.011092    8.181042    1.136663
     21          6           0        0.684302    7.623380    0.049106
     22          6           0        0.656095    6.224709   -0.105552
     23          6           0        1.354853    5.540209   -1.154733
     24          6           0        1.953427    4.796496   -1.911337
     25          6           0        2.672335    3.842662   -2.691315
     26          6           0        4.050914    4.010830   -2.935686
     27          6           0        4.773428    3.022059   -3.595855
     28          6           0        4.140263    1.846344   -4.041385
     29          6           0        2.761897    1.694487   -3.824992
     30          6           0        2.033424    2.676598   -3.159919
     31          6           0        4.920537    0.785505   -4.728220
     32          6           0        4.635521    0.405791   -6.028286
     33          6           0        5.425078   -0.557998   -6.703428
     34          6           0        6.504839   -1.157618   -6.086886
     35          6           0        6.807879   -0.837501   -4.739664
     36          6           0        7.861751   -1.450690   -4.010593
     37          6           0        8.055674   -1.150886   -2.684579
     38          6           0        6.267792    0.351697   -2.687273
     39          6           0        6.001362    0.127559   -4.053937
     40          6           0       -8.074538    2.266229    1.833486
     41          6           0       -7.884953    3.462520    2.480707
     42          6           0       -6.828566    4.330029    2.093305
     43          6           0       -6.529676    5.540578    2.767454
     44          6           0       -5.446991    6.295923    2.363985
     45          6           0       -4.650742    5.906378    1.258461
     46          6           0       -4.931915    4.758030    0.538643
     47          6           0       -6.015455    3.930824    0.983546
     48          6           0       -6.278221    2.675169    0.397810
     49          6           0       -4.144992    4.385707   -0.664569
     50          6           0       -2.763503    4.154739   -0.573894
     51          6           0       -2.028308    3.783668   -1.696182
     52          6           0       -2.663376    3.632922   -2.945739
     53          6           0       -4.045333    3.895300   -3.044866
     54          6           0       -4.774260    4.260400   -1.917643
     55          6           0       -1.937877    3.143993   -4.072699
     56          6           0       -1.336206    2.620573   -4.993532
     57          6           0       -0.632376    1.801368   -5.937843
     58          6           0       -0.644223    2.045704   -7.323964
     59          6           0        0.035517    1.156171   -8.156920
     60          6           0        0.702456    0.064160   -7.600481
     61          6           0        0.664563   -0.097844   -6.202873
     62          6           0        1.357876   -1.151288   -5.519408
     63          6           0        1.953650   -1.911385   -4.776982
     64          6           0        2.672396   -2.694165   -3.825346
     65          6           0        2.034465   -3.165220   -2.659742
     66          6           0        2.764045   -3.831225   -1.678996
     67          6           0        4.142453   -4.046337   -1.831977
     68          6           0        4.774338   -3.599364   -3.007918
     69          6           0        4.050921   -2.938127   -3.995205
     70          6           0        4.925431   -4.732025   -0.772459
     71          6           0        4.641024   -6.030916   -0.388429
     72          6           0        5.435134   -6.704476    0.572752
     73          6           0        6.519561   -6.088069    1.164320
     74          6           0        6.822306   -4.741764    0.839803
     75          6           0        7.881727   -4.012575    1.443695
     76          6           0        8.073507   -2.686602    1.141936
     77          6           0        6.273781   -2.690502   -0.346565
     78          6           0        6.009915   -4.057277   -0.121018
     79          6           0       -8.078015    1.824708   -2.271053
     80          6           0       -7.883755    2.476073   -3.464401
     81          6           0       -6.823218    2.092632   -4.328735
     82          6           0       -6.520102    2.771024   -5.535854
     83          6           0       -5.434360    2.370639   -6.288449
     84          6           0       -4.639024    1.264196   -5.899637
     85          6           0       -4.924297    0.540278   -4.754832
     86          6           0       -6.011067    0.982023   -3.930175
     87          6           0       -6.277966    0.392736   -2.677048
     88          6           0       -4.138667   -0.664031   -4.383735
     89          6           0       -4.768835   -1.916939   -4.261174
     90          6           0       -4.041037   -3.045284   -3.897399
     91          6           0       -2.659293   -2.947369   -3.633433
     92          6           0       -2.023270   -1.697942   -3.781267
     93          6           0       -2.757367   -0.574578   -4.151173
     94          6           0       -1.935227   -4.075502   -3.145202
     95          6           0       -1.335640   -4.997353   -2.621205
     96          6           0       -0.636474   -5.942870   -1.799499
     97          6           0       -0.653192   -7.329264   -2.041974
     98          6           0        0.021725   -8.163618   -1.150099
     99          6           0        0.688777   -7.608213   -0.057636
    100          6           0        0.656020   -6.210221    0.102261
    101          6           0        1.350407   -5.528097    1.155915
    102          6           0        1.948035   -4.786455    1.915311
    103          6           0        2.668411   -3.834830    2.696634
    104          6           0        2.030063   -2.671942    3.173743
    105          6           0        2.760880   -1.690984    3.837950
    106          6           0        4.140931   -1.840760    4.045132
    107          6           0        4.773294   -3.014167    3.592302
    108          6           0        4.048650   -4.001711    2.932772
    109          6           0        4.923371   -0.780590    4.730181
    110          6           0        4.637709   -0.397135    6.029068
    111          6           0        5.428757    0.566197    6.703035
    112          6           0        6.510509    1.162043    6.086273
    113          6           0        6.814178    0.838413    4.740031
    114          6           0        7.870358    1.447867    4.011021
    115          6           0        8.065024    1.145875    2.685581
    116          6           0        6.273154   -0.352168    2.689319
    117          6           0        6.006399   -0.126382    4.055627
    118          6           0       -8.079464   -2.275949   -1.831573
    119          6           0       -7.886393   -3.467518   -2.486513
    120          6           0       -6.826704   -4.333917   -2.105521
    121          6           0       -6.523806   -5.539120   -2.787464
    122          6           0       -5.439393   -6.294186   -2.388053
    123          6           0       -4.645132   -5.910159   -1.279081
    124          6           0       -4.929849   -4.767061   -0.552515
    125          6           0       -6.014963   -3.939737   -0.993149
    126          6           0       -6.280045   -2.687884   -0.400502
    127          6           0       -4.145736   -4.398600    0.653802
    128          6           0       -4.776300   -4.288906    1.907708
    129          6           0       -4.051390   -3.922967    3.037296
    130          6           0       -2.672600   -3.643501    2.939375
    131          6           0       -2.035810   -3.780073    1.689041
    132          6           0       -2.766867   -4.152426    0.564475
    133          6           0       -1.952457   -3.150843    4.068022
    134          6           0       -1.355524   -2.623884    4.989905
    135          6           0       -0.660582   -1.800622    5.936943
    136          6           0       -0.693613   -2.033758    7.324670
    137          6           0       -0.023760   -1.139558    8.160512
    138          6           0        0.653634   -0.053249    7.605420
    139          6           0        0.636222    0.098119    6.206210
    140          6           0        1.336909    1.148135    5.524635
    141          6           0        1.936233    1.906580    4.783374
    142          6           0        2.658154    2.687534    3.832452
    143          6           0        2.021010    3.166890    2.669791
    144          6           0        2.752762    3.831963    1.690069
    145          6           0        4.133006    4.037388    1.840708
    146          6           0        4.764301    3.581664    3.013597
    147          6           0        4.038577    2.921799    4.000114
    148          6           0        4.916928    4.724929    0.783226
    149          6           0        4.633249    6.025507    0.404214
    150          6           0        5.426925    6.702320   -0.554853
    151          6           0        6.509853    6.087344   -1.150350
    152          6           0        6.812018    4.739696   -0.831018
    153          6           0        7.870581    4.012822   -1.439042
    154          6           0        8.064097    2.686409   -1.140491
    155          6           0        6.266500    2.684952    0.350668
    156          6           0        6.000940    4.052067    0.128775
    157          1           0       -8.848533   -2.132443    1.587601
    158          1           0       -8.509377   -3.321416    3.746754
    159          1           0       -7.105193   -3.617491    5.857942
    160          1           0       -5.156794   -2.891347    7.216342
    161          1           0       -3.786343   -0.936987    6.533328
    162          1           0       -5.644316    0.419487    2.318275
    163          1           0       -2.242906   -0.371208    4.213574
    164          1           0       -0.952413    1.621696    3.574775
    165          1           0       -4.541833    4.020401    3.810204
    166          1           0       -5.833539    2.012157    4.473285
    167          1           0       -1.199341    7.751359    2.889953
    168          1           0        0.014084    9.261925    1.288550
    169          1           0        1.220907    8.245630   -0.667723
    170          1           0        4.548290    4.917734   -2.593905
    171          1           0        5.840906    3.165703   -3.777339
    172          1           0        2.255655    0.789778   -4.155402
    173          1           0        0.964412    2.533115   -2.997440
    174          1           0        3.804982    0.881007   -6.553405
    175          1           0        5.177407   -0.817705   -7.734473
    176          1           0        7.118664   -1.888354   -6.615951
    177          1           0        8.516177   -2.175172   -4.497044
    178          1           0        8.846360   -1.614977   -2.096289
    179          1           0        5.644229    1.041949   -2.120770
    180          1           0       -8.867187    1.574709    2.116917
    181          1           0       -8.543864    3.735675    3.305871
    182          1           0       -7.149443    5.852377    3.609711
    183          1           0       -5.202086    7.218071    2.894605
    184          1           0       -3.817919    6.540029    0.948437
    185          1           0       -5.649512    2.315430   -0.415550
    186          1           0       -2.259611    4.239825    0.386726
    187          1           0       -0.956956    3.603243   -1.598897
    188          1           0       -4.540040    3.800629   -4.010687
    189          1           0       -5.843836    4.461361   -2.010183
    190          1           0       -1.173072    2.910418   -7.725947
    191          1           0        0.046037    1.313555   -9.236970
    192          1           0        1.241674   -0.650520   -8.222990
    193          1           0        0.965419   -3.003767   -2.515349
    194          1           0        2.258706   -4.163194   -0.774357
    195          1           0        5.841784   -3.780452   -3.152357
    196          1           0        4.547318   -2.594446   -4.901919
    197          1           0        3.807405   -6.556204   -0.858025
    198          1           0        5.187705   -7.734567    0.836455
    199          1           0        7.137257   -6.616695    1.892149
    200          1           0        8.542027   -4.498736    2.162963
    201          1           0        8.869139   -2.098626    1.598452
    202          1           0        5.644458   -2.124170   -1.031719
    203          1           0       -8.874213    2.104129   -1.581903
    204          1           0       -8.542008    3.301533   -3.738007
    205          1           0       -7.139052    3.614221   -5.846764
    206          1           0       -5.186296    2.904400   -7.207952
    207          1           0       -3.803768    0.956541   -6.531252
    208          1           0       -5.649559   -0.420688   -2.316992
    209          1           0       -5.838307   -2.008476   -4.463100
    210          1           0       -4.536451   -4.010966   -3.804942
    211          1           0       -0.952093   -1.601615   -3.599357
    212          1           0       -2.252734    0.385864   -4.233856
    213          1           0       -1.181979   -7.730369   -2.907141
    214          1           0        0.028349   -9.243894   -1.306106
    215          1           0        1.224463   -8.231625    0.658931
    216          1           0        0.959814   -2.529634    3.018353
    217          1           0        2.255062   -0.788358    4.174599
    218          1           0        5.841918   -3.156870    3.767833
    219          1           0        4.545406   -4.906407    2.584496
    220          1           0        3.805056   -0.868981    6.553809
    221          1           0        5.180594    0.828876    7.733203
    222          1           0        7.125406    1.892577    6.614400
    223          1           0        8.524904    2.172095    4.497380
    224          1           0        8.858457    1.606320    2.097651
    225          1           0        5.647878   -1.040898    2.122851
    226          1           0       -8.875812   -1.585793   -2.108468
    227          1           0       -8.545020   -3.737887   -3.312784
    228          1           0       -7.141977   -5.846951   -3.632355
    229          1           0       -5.191712   -7.212217   -2.924523
    230          1           0       -3.811074   -6.543849   -0.972356
    231          1           0       -5.651206   -2.331054    0.414005
    232          1           0       -5.843806   -4.501653    1.998508
    233          1           0       -4.546896   -3.839357    4.003813
    234          1           0       -0.966539   -3.587012    1.593019
    235          1           0       -2.262277   -4.226108   -0.396745
    236          1           0       -1.231209   -2.893546    7.725747
    237          1           0       -0.029772   -1.288657    9.241779
    238          1           0        1.185102    0.665175    8.230323
    239          1           0        0.950671    3.013021    2.526763
    240          1           0        2.247193    4.171015    0.788141
    241          1           0        5.833077    3.755525    3.156903
    242          1           0        4.534545    2.572379    4.904796
    243          1           0        3.800984    6.550122    0.876892
    244          1           0        5.179976    7.733807   -0.813531
    245          1           0        7.127219    6.617717   -1.877103
    246          1           0        8.528668    4.501854   -2.158484
    247          1           0        8.859518    2.100362   -1.599623
    248          1           0        5.638828    2.116173    1.035318
    249          7           0       -7.244755   -0.814081    1.882807
    250          7           0        0.004258    5.419287    0.748230
    251          7           0        7.243143   -0.265112   -2.029095
    252          7           0       -7.255420    1.874438    0.808724
    253          7           0        0.009353    0.753258   -5.397348
    254          7           0        7.252513   -2.031388    0.263705
    255          7           0       -7.258631    0.800368   -1.878846
    256          7           0        0.005568   -5.403276   -0.751125
    257          7           0        7.249864    0.261992    2.030720
    258          7           0       -7.259404   -1.887229   -0.806346
    259          7           0       -0.007934   -0.758589    5.397728
    260          7           0        7.245636    2.028524   -0.261971
    261         46           0       -7.351366   -0.006913    0.002369
    262         46           0        7.343668   -0.001289    0.000585
 ---------------------------------------------------------------------

 SCF Done:  E(RB3LYP) =  -6908.30093260     A.U. after   23 cycles

 The electronic state is 1-A.
 Alpha  occ. eigenvalues --  -14.41444 -14.41442 -14.41440 -14.41439 -14.41439
 Alpha  occ. eigenvalues --  -14.41436 -14.41436 -14.41433 -14.34894 -14.34892
 Alpha  occ. eigenvalues --  -14.34890 -14.34888 -10.27435 -10.27433 -10.27433
 Alpha  occ. eigenvalues --  -10.27433 -10.27432 -10.27430 -10.27430 -10.27423
 Alpha  occ. eigenvalues --  -10.26793 -10.26793 -10.26792 -10.26790 -10.26789
 Alpha  occ. eigenvalues --  -10.26787 -10.26786 -10.26785 -10.26226 -10.26225
 Alpha  occ. eigenvalues --  -10.26222 -10.26221 -10.26220 -10.26218 -10.26216
 Alpha  occ. eigenvalues --  -10.26213 -10.24192 -10.24191 -10.24191 -10.24189
 Alpha  occ. eigenvalues --  -10.24188 -10.24186 -10.24186 -10.24182 -10.23926
 Alpha  occ. eigenvalues --  -10.23924 -10.23924 -10.23921 -10.23921 -10.23919
 Alpha  occ. eigenvalues --  -10.23918 -10.23914 -10.23537 -10.23533 -10.23533
 Alpha  occ. eigenvalues --  -10.23532 -10.23531 -10.23529 -10.23527 -10.23526
 Alpha  occ. eigenvalues --  -10.23526 -10.23526 -10.23524 -10.23524 -10.23523
 Alpha  occ. eigenvalues --  -10.23523 -10.23522 -10.23521 -10.23159 -10.23158
 Alpha  occ. eigenvalues --  -10.23156 -10.23155 -10.23153 -10.23152 -10.23150
 Alpha  occ. eigenvalues --  -10.23150 -10.22727 -10.22727 -10.22724 -10.22723
 Alpha  occ. eigenvalues --  -10.22518 -10.22516 -10.22516 -10.22515 -10.22511
 Alpha  occ. eigenvalues --  -10.22511 -10.22510 -10.22506 -10.22445 -10.22444
 Alpha  occ. eigenvalues --  -10.22444 -10.22443 -10.22443 -10.22442 -10.22441
 Alpha  occ. eigenvalues --  -10.22440 -10.22226 -10.22224 -10.22224 -10.22223
 Alpha  occ. eigenvalues --  -10.22222 -10.22221 -10.22220 -10.22220 -10.22162
 Alpha  occ. eigenvalues --  -10.22160 -10.22160 -10.22159 -10.22156 -10.22155
 Alpha  occ. eigenvalues --  -10.22155 -10.22151 -10.22100 -10.22099 -10.22098
 Alpha  occ. eigenvalues --  -10.22097 -10.22094 -10.22093 -10.22093 -10.22088
 Alpha  occ. eigenvalues --  -10.21591 -10.21591 -10.21589 -10.21588 -10.21586
 Alpha  occ. eigenvalues --  -10.21585 -10.21582 -10.21581 -10.21507 -10.21507
 Alpha  occ. eigenvalues --  -10.21504 -10.21503 -10.21503 -10.21502 -10.21502
 Alpha  occ. eigenvalues --  -10.21501 -10.21436 -10.21434 -10.21433 -10.21432
 Alpha  occ. eigenvalues --  -10.21429 -10.21429 -10.21427 -10.21426 -10.21419
 Alpha  occ. eigenvalues --  -10.21418 -10.21418 -10.21417 -10.21417 -10.21416
 Alpha  occ. eigenvalues --  -10.21415 -10.21415 -10.20976 -10.20974 -10.20974
 Alpha  occ. eigenvalues --  -10.20973 -10.20971 -10.20968 -10.20967 -10.20965
 Alpha  occ. eigenvalues --  -10.20896 -10.20895 -10.20894 -10.20894 -10.20892
 Alpha  occ. eigenvalues --  -10.20891 -10.20891 -10.20890  -3.53292  -3.53269
 Alpha  occ. eigenvalues --   -2.21906  -2.21902  -2.21885  -2.21882  -2.17674
 Alpha  occ. eigenvalues --   -2.17648  -1.00202  -1.00198  -0.99508  -0.99504
 Alpha  occ. eigenvalues --   -0.99504  -0.99501  -0.99272  -0.99269  -0.96912
 Alpha  occ. eigenvalues --   -0.96911  -0.96907  -0.96905  -0.89792  -0.89791
 Alpha  occ. eigenvalues --   -0.89672  -0.89671  -0.89669  -0.89669  -0.89609
 Alpha  occ. eigenvalues --   -0.89606  -0.87656  -0.87630  -0.87588  -0.87586
 Alpha  occ. eigenvalues --   -0.87569  -0.87568  -0.87544  -0.87543  -0.83205
 Alpha  occ. eigenvalues --   -0.83133  -0.83132  -0.83077  -0.82940  -0.82920
 Alpha  occ. eigenvalues --   -0.82909  -0.82908  -0.82181  -0.82140  -0.82137
 Alpha  occ. eigenvalues --   -0.82121  -0.81886  -0.81880  -0.81877  -0.81875
 Alpha  occ. eigenvalues --   -0.80419  -0.80285  -0.80283  -0.80236  -0.80204
 Alpha  occ. eigenvalues --   -0.80061  -0.80060  -0.80057  -0.79753  -0.79608
 Alpha  occ. eigenvalues --   -0.79608  -0.79562  -0.79394  -0.79310  -0.79310
 Alpha  occ. eigenvalues --   -0.79265  -0.77116  -0.77062  -0.77061  -0.77039
 Alpha  occ. eigenvalues --   -0.76387  -0.76350  -0.76349  -0.76333  -0.76234
 Alpha  occ. eigenvalues --   -0.76229  -0.76228  -0.76195  -0.76189  -0.76121
 Alpha  occ. eigenvalues --   -0.76120  -0.76063  -0.74081  -0.74053  -0.74051
 Alpha  occ. eigenvalues --   -0.74047  -0.72876  -0.72835  -0.72834  -0.72812
 Alpha  occ. eigenvalues --   -0.68605  -0.68589  -0.68514  -0.68463  -0.68441
 Alpha  occ. eigenvalues --   -0.68440  -0.68408  -0.68407  -0.67384  -0.67321
 Alpha  occ. eigenvalues --   -0.67287  -0.67286  -0.67253  -0.67251  -0.67230
 Alpha  occ. eigenvalues --   -0.67219  -0.66504  -0.66485  -0.66450  -0.66442
 Alpha  occ. eigenvalues --   -0.66395  -0.66394  -0.66352  -0.66351  -0.64868
 Alpha  occ. eigenvalues --   -0.64864  -0.64861  -0.64847  -0.64770  -0.64702
 Alpha  occ. eigenvalues --   -0.64700  -0.64645  -0.62674  -0.62609  -0.62604
 Alpha  occ. eigenvalues --   -0.62577  -0.62536  -0.62489  -0.62488  -0.62477
 Alpha  occ. eigenvalues --   -0.61410  -0.61230  -0.61229  -0.61195  -0.61112
 Alpha  occ. eigenvalues --   -0.61056  -0.61055  -0.61043  -0.58373  -0.58185
 Alpha  occ. eigenvalues --   -0.58181  -0.57993  -0.56628  -0.56593  -0.56405
 Alpha  occ. eigenvalues --   -0.56285  -0.56283  -0.56280  -0.56191  -0.56191
 Alpha  occ. eigenvalues --   -0.55905  -0.55851  -0.55705  -0.55704  -0.55683
 Alpha  occ. eigenvalues --   -0.55681  -0.55633  -0.55573  -0.55465  -0.55274
 Alpha  occ. eigenvalues --   -0.55273  -0.55265  -0.55027  -0.54700  -0.54579
 Alpha  occ. eigenvalues --   -0.54579  -0.54552  -0.54502  -0.54291  -0.54284
 Alpha  occ. eigenvalues --   -0.53743  -0.53741  -0.53723  -0.53722  -0.52435
 Alpha  occ. eigenvalues --   -0.52411  -0.52407  -0.52385  -0.50537  -0.50471
 Alpha  occ. eigenvalues --   -0.50470  -0.50457  -0.50324  -0.50199  -0.50160
 Alpha  occ. eigenvalues --   -0.50159  -0.50101  -0.49890  -0.49845  -0.49844
 Alpha  occ. eigenvalues --   -0.49598  -0.49513  -0.49235  -0.49137  -0.48991
 Alpha  occ. eigenvalues --   -0.48989  -0.48958  -0.48957  -0.48866  -0.48830
 Alpha  occ. eigenvalues --   -0.48690  -0.48688  -0.48667  -0.48666  -0.48662
 Alpha  occ. eigenvalues --   -0.48643  -0.48399  -0.48387  -0.48336  -0.48332
 Alpha  occ. eigenvalues --   -0.48107  -0.48057  -0.47949  -0.47948  -0.47782
 Alpha  occ. eigenvalues --   -0.47780  -0.47683  -0.47680  -0.47389  -0.47378
 Alpha  occ. eigenvalues --   -0.46531  -0.46525  -0.46467  -0.46465  -0.46431
 Alpha  occ. eigenvalues --   -0.46430  -0.46409  -0.46345  -0.45954  -0.45954
 Alpha  occ. eigenvalues --   -0.45838  -0.45834  -0.45727  -0.45697  -0.45666
 Alpha  occ. eigenvalues --   -0.45408  -0.45401  -0.45395  -0.45329  -0.45326
 Alpha  occ. eigenvalues --   -0.45150  -0.44988  -0.44878  -0.44768  -0.44762
 Alpha  occ. eigenvalues --   -0.44620  -0.44508  -0.44389  -0.44344  -0.44341
 Alpha  occ. eigenvalues --   -0.44276  -0.44269  -0.43468  -0.43463  -0.43461
 Alpha  occ. eigenvalues --   -0.43386  -0.43383  -0.43269  -0.43002  -0.43001
 Alpha  occ. eigenvalues --   -0.42933  -0.42929  -0.42777  -0.42751  -0.42750
 Alpha  occ. eigenvalues --   -0.42747  -0.42309  -0.42304  -0.42151  -0.42119
 Alpha  occ. eigenvalues --   -0.41049  -0.41047  -0.40952  -0.40952  -0.40841
 Alpha  occ. eigenvalues --   -0.40777  -0.40746  -0.40675  -0.40625  -0.40621
 Alpha  occ. eigenvalues --   -0.40603  -0.40552  -0.40551  -0.40457  -0.40428
 Alpha  occ. eigenvalues --   -0.40425  -0.40377  -0.40372  -0.40298  -0.40207
 Alpha  occ. eigenvalues --   -0.40169  -0.40160  -0.40044  -0.40042  -0.40013
 Alpha  occ. eigenvalues --   -0.40011  -0.39453  -0.39448  -0.39389  -0.39384
 Alpha  occ. eigenvalues --   -0.38842  -0.38821  -0.38744  -0.38497  -0.38128
 Alpha  occ. eigenvalues --   -0.38122  -0.37474  -0.37465  -0.37461  -0.37418
 Alpha  occ. eigenvalues --   -0.37281  -0.37095  -0.37093  -0.36971  -0.36757
 Alpha  occ. eigenvalues --   -0.36755  -0.36688  -0.36688  -0.36602  -0.36556
 Alpha  occ. eigenvalues --   -0.36554  -0.36417  -0.35539  -0.35533  -0.35518
 Alpha  occ. eigenvalues --   -0.35439  -0.35085  -0.35083  -0.34865  -0.34831
 Alpha  occ. eigenvalues --   -0.34827  -0.34181  -0.33957  -0.33952  -0.33665
 Alpha  occ. eigenvalues --   -0.33651  -0.33647  -0.33526  -0.33524  -0.33185
 Alpha  occ. eigenvalues --   -0.33089  -0.32892  -0.32887  -0.32391  -0.32253
 Alpha  occ. eigenvalues --   -0.32250  -0.32062  -0.32035  -0.32032  -0.32012
 Alpha  occ. eigenvalues --   -0.31858  -0.31853  -0.31825  -0.31696  -0.31692
 Alpha  occ. eigenvalues --   -0.31644  -0.30355  -0.30224  -0.29925  -0.29869
 Alpha  occ. eigenvalues --   -0.29864  -0.29740  -0.29688  -0.29680  -0.29249
 Alpha  occ. eigenvalues --   -0.29202  -0.29198  -0.29166  -0.29142  -0.29037
 Alpha  occ. eigenvalues --   -0.29033  -0.28960  -0.28195  -0.28020  -0.27997
 Alpha  occ. eigenvalues --   -0.27993  -0.27990  -0.27964  -0.27923  -0.27920
 Alpha  occ. eigenvalues --   -0.27891  -0.27888  -0.27836  -0.27821  -0.27771
 Alpha  occ. eigenvalues --   -0.27536  -0.27002  -0.26785  -0.26781  -0.26564
 Alpha  occ. eigenvalues --   -0.26555  -0.26189  -0.26187  -0.25903  -0.24779
 Alpha  occ. eigenvalues --   -0.24771  -0.24753  -0.24749  -0.24080  -0.24027
 Alpha  occ. eigenvalues --   -0.24023  -0.23974
 Alpha virt. eigenvalues --   -0.10116  -0.10103  -0.09989  -0.09947  -0.09894
 Alpha virt. eigenvalues --   -0.09891  -0.09850  -0.09847  -0.09011  -0.08960
 Alpha virt. eigenvalues --   -0.08180  -0.07988  -0.07983  -0.07909  -0.07736

 Mulliken charges:
               1
     1  C    0.114202
     2  C   -0.002315
     3  C    0.067300
     4  C    0.000780
     5  C    0.041782
     6  C   -0.008764
     7  C    0.071727
     8  C    0.057721
     9  C    0.093248
    10  C    0.003465
    11  C    0.024206
    12  C    0.003720
    13  C   -0.028008
    14  C    0.022983
    15  C   -0.017927
    16  C    0.010050
    17  C    0.067444
    18  C   -0.088377
    19  C    0.049193
    20  C    0.064404
    21  C    0.049260
    22  C   -0.089008
    23  C    0.067538
    24  C    0.010281
    25  C   -0.028466
    26  C    0.022681
    27  C   -0.017054
    28  C    0.001673
    29  C    0.025137
    30  C    0.003995
    31  C    0.070981
    32  C   -0.008545
    33  C    0.041599
    34  C    0.000585
    35  C    0.067976
    36  C   -0.002220
    37  C    0.114289
    38  C    0.093794
    39  C    0.057212
    40  C    0.114653
    41  C   -0.002150
    42  C    0.068012
    43  C    0.000149
    44  C    0.042447
    45  C   -0.010034
    46  C    0.072491
    47  C    0.056939
    48  C    0.092947
    49  C    0.004797
    50  C    0.024666
    51  C    0.003948
    52  C   -0.028297
    53  C    0.023197
    54  C   -0.018918
    55  C    0.009568
    56  C    0.067991
    57  C   -0.088207
    58  C    0.049241
    59  C    0.064345
    60  C    0.049348
    61  C   -0.089620
    62  C    0.067257
    63  C    0.011010
    64  C   -0.028557
    65  C    0.004152
    66  C    0.025245
    67  C    0.002342
    68  C   -0.017971
    69  C    0.022815
    70  C    0.072001
    71  C   -0.009326
    72  C    0.042045
    73  C    0.000050
    74  C    0.068622
    75  C   -0.001976
    76  C    0.114592
    77  C    0.093169
    78  C    0.056486
    79  C    0.114457
    80  C   -0.002024
    81  C    0.067466
    82  C    0.000305
    83  C    0.042570
    84  C   -0.010315
    85  C    0.072824
    86  C    0.056830
    87  C    0.092903
    88  C    0.005338
    89  C   -0.019178
    90  C    0.023195
    91  C   -0.028205
    92  C    0.004050
    93  C    0.024347
    94  C    0.009954
    95  C    0.067591
    96  C   -0.088700
    97  C    0.049252
    98  C    0.064303
    99  C    0.049355
   100  C   -0.089510
   101  C    0.067189
   102  C    0.010557
   103  C   -0.028316
   104  C    0.004072
   105  C    0.024829
   106  C    0.003470
   107  C   -0.017968
   108  C    0.022920
   109  C    0.071907
   110  C   -0.009759
   111  C    0.042157
   112  C    0.000185
   113  C    0.067839
   114  C   -0.001960
   115  C    0.114460
   116  C    0.093213
   117  C    0.057049
   118  C    0.114559
   119  C   -0.002046
   120  C    0.067882
   121  C    0.000213
   122  C    0.042559
   123  C   -0.009945
   124  C    0.072211
   125  C    0.056463
   126  C    0.093386
   127  C    0.003398
   128  C   -0.018562
   129  C    0.022874
   130  C   -0.028869
   131  C    0.004072
   132  C    0.025336
   133  C    0.010661
   134  C    0.067612
   135  C   -0.089381
   136  C    0.049175
   137  C    0.064367
   138  C    0.049377
   139  C   -0.088757
   140  C    0.068098
   141  C    0.009512
   142  C   -0.027685
   143  C    0.003815
   144  C    0.024415
   145  C    0.003391
   146  C   -0.018045
   147  C    0.022966
   148  C    0.071981
   149  C   -0.009108
   150  C    0.041775
   151  C    0.000329
   152  C    0.068067
   153  C   -0.002102
   154  C    0.114724
   155  C    0.092744
   156  C    0.057425
   157  H    0.077868
   158  H    0.024411
   159  H    0.009972
   160  H    0.023009
   161  H    0.006814
   162  H    0.079178
   163  H   -0.023204
   164  H   -0.008144
   165  H   -0.009787
   166  H    0.007122
   167  H    0.012805
   168  H    0.025698
   169  H    0.012841
   170  H   -0.009630
   171  H    0.007156
   172  H   -0.023051
   173  H   -0.008019
   174  H    0.006758
   175  H    0.023058
   176  H    0.009951
   177  H    0.024453
   178  H    0.078104
   179  H    0.079102
   180  H    0.077999
   181  H    0.024419
   182  H    0.009939
   183  H    0.023100
   184  H    0.007073
   185  H    0.079314
   186  H   -0.024377
   187  H   -0.007993
   188  H   -0.010338
   189  H    0.007146
   190  H    0.012787
   191  H    0.025716
   192  H    0.012939
   193  H   -0.007895
   194  H   -0.023340
   195  H    0.007332
   196  H   -0.009609
   197  H    0.006828
   198  H    0.023121
   199  H    0.009972
   200  H    0.024444
   201  H    0.078336
   202  H    0.079834
   203  H    0.078074
   204  H    0.024426
   205  H    0.009966
   206  H    0.023138
   207  H    0.007188
   208  H    0.079486
   209  H    0.007185
   210  H   -0.010339
   211  H   -0.008065
   212  H   -0.024302
   213  H    0.012797
   214  H    0.025683
   215  H    0.012905
   216  H   -0.008094
   217  H   -0.023663
   218  H    0.007213
   219  H   -0.010090
   220  H    0.007100
   221  H    0.023104
   222  H    0.009977
   223  H    0.024387
   224  H    0.078334
   225  H    0.079337
   226  H    0.078173
   227  H    0.024454
   228  H    0.009952
   229  H    0.023152
   230  H    0.007066
   231  H    0.079708
   232  H    0.007289
   233  H   -0.009457
   234  H   -0.007690
   235  H   -0.024047
   236  H    0.012971
   237  H    0.025726
   238  H    0.012854
   239  H   -0.008391
   240  H   -0.023208
   241  H    0.007252
   242  H   -0.010241
   243  H    0.006973
   244  H    0.023036
   245  H    0.009920
   246  H    0.024464
   247  H    0.078175
   248  H    0.079409
   249  N   -0.254028
   250  N   -0.142417
   251  N   -0.253589
   252  N   -0.253943
   253  N   -0.142482
   254  N   -0.253894
   255  N   -0.254184
   256  N   -0.141960
   257  N   -0.253683
   258  N   -0.253935
   259  N   -0.142512
   260  N   -0.253856
   261  Pd   0.390163
   262  Pd   0.388269
 Sum of Mulliken charges =   4.00000

 Dipole moment (field-independent basis, Debye):
    X=              0.0103    Y=             -0.0056    Z=             -0.0002  Tot=              0.0117
 Quadrupole moment (field-independent basis, Debye-Ang):
   XX=            -38.9400   YY=           -630.4725   ZZ=           -630.9854
   XY=              0.0255   XZ=             -0.2608   YZ=              0.0895

 Normal termination of Gaussian 16 at Fri Dec  1 22:34:32 2023.
