 Gaussian 16, Revision C.01,
 Gaussian 16:  ES64L-G16RevC.01  3-Jul-2019

 ----------------------------------------------------------------------
 #P PBE1PBE/Def2SVP SP SCF=(YQC,MaxCycle=900) int=(Grid=Superfinegrid)
 EmpiricalDispersion=GD3BJ SCRF=(PCM,Solvent=DiMethylSulfoxide)
 ----------------------------------------------------------------------

 --------
 _s_5a3_b
 --------
 Symbolic Z-matrix:
 Charge =  4 Multiplicity = 1

                         Standard orientation:
 ---------------------------------------------------------------------
 Center     Atomic      Atomic             Coordinates (Angstroms)
 Number     Number       Type             X           Y           Z
 ---------------------------------------------------------------------
      1         46           0       -6.201842   -0.211114    0.858247
      2         46           0        7.002207    0.156664   -0.770843
      3          6           0        4.251134   -1.416057    6.426617
      4          6           0        5.323709   -1.303145    5.879197
      5          6           0        6.579412   -1.174190    5.256262
      6          6           0        7.744441   -1.339979    5.986036
      7          6           0        9.000387   -1.214652    5.382094
      8          6           0        9.114661   -0.922890    4.047448
      9          6           0        7.951465   -0.746117    3.268244
     10          6           0        8.004096   -0.444359    1.894697
     11          7           0        6.924211   -0.278043    1.161498
     12          6           0        5.694765   -0.396090    1.722390
     13          6           0        5.533769   -0.686258    3.048080
     14          6           0        6.665563   -0.871194    3.868080
     15          1           0        7.679374   -1.569901    7.038770
     16          1           0        9.885225   -1.351297    5.984627
     17          1           0       10.084566   -0.826783    3.585982
     18          1           0        8.966355   -0.339765    1.398632
     19          1           0        4.850311   -0.245395    1.051213
     20          1           0        4.551886   -0.777357    3.484021
     21          6           0        3.003948   -1.548797    7.069396
     22          6           0        2.964792   -1.835780    8.456374
     23          6           0        1.767686   -1.968508    9.097386
     24          6           0        0.548652   -1.824572    8.399522
     25          6           0       -0.702751   -1.957768    9.039953
     26          6           0       -1.868024   -1.814725    8.344599
     27          6           0       -1.836890   -1.527557    6.957986
     28          6           0       -0.628416   -1.391804    6.306050
     29          6           0        0.583343   -1.536364    7.006892
     30          6           0        1.828300   -1.402816    6.363348
     31          1           0        3.893872   -1.947099    8.995557
     32          1           0        1.737297   -2.187344   10.155181
     33          1           0       -0.722026   -2.176731   10.097925
     34          1           0       -2.821591   -1.917863    8.840279
     35          1           0       -0.604114   -1.173110    5.249533
     36          1           0        1.852798   -1.184410    5.306739
     37          6           0       -3.043548   -1.380568    6.246798
     38          6           0       -4.070655   -1.251240    5.621925
     39          6           0       -5.257847   -1.096464    4.883201
     40          6           0       -6.520905   -1.231058    5.476322
     41          6           0       -7.650843   -1.065097    4.695264
     42          6           0       -7.507577   -0.769958    3.347997
     43          7           0       -6.301490   -0.642855    2.786438
     44          6           0       -5.202262   -0.798706    3.518071
     45          1           0       -6.599992   -1.460605    6.527452
     46          1           0       -8.634432   -1.163040    5.125304
     47          1           0       -8.368228   -0.630521    2.696099
     48          1           0       -4.246550   -0.684894    3.011532
     49          6           0       -3.147927   -6.944082   -1.414954
     50          6           0       -4.280168   -6.571544   -1.209108
     51          6           0       -5.576498   -6.072831   -0.979676
     52          6           0       -6.700957   -6.839682   -1.229000
     53          6           0       -7.985413   -6.322177   -1.024725
     54          6           0       -8.168689   -5.037988   -0.579920
     55          6           0       -7.047856   -4.224414   -0.309150
     56          6           0       -7.166831   -2.893689    0.137656
     57          7           0       -6.123127   -2.137048    0.398055
     58          6           0       -4.868357   -2.633386    0.250709
     59          6           0       -4.643656   -3.905681   -0.190555
     60          6           0       -5.735399   -4.742838   -0.496910
     61          1           0       -6.583856   -7.850231   -1.590106
     62          1           0       -8.838794   -6.950398   -1.229225
     63          1           0       -9.161296   -4.642868   -0.433628
     64          1           0       -8.149465   -2.451528    0.278873
     65          1           0       -4.051843   -1.958143    0.507432
     66          1           0       -3.642508   -4.287603   -0.309175
     67          6           0       -1.822951   -7.359701   -1.656126
     68          6           0       -1.557190   -8.704274   -2.011988
     69          6           0       -0.276356   -9.110446   -2.249892
     70          6           0        0.804865   -8.208129   -2.148224
     71          6           0        2.138156   -8.605776   -2.388420
     72          6           0        3.167026   -7.716615   -2.280366
     73          6           0        2.909720   -6.368844   -1.924872
     74          6           0        1.616807   -5.951131   -1.688121
     75          6           0        0.542903   -6.855943   -1.792143
     76          6           0       -0.784877   -6.456755   -1.550346
     77          1           0       -2.380029   -9.399070   -2.091066
     78          1           0       -0.071862  -10.136362   -2.521247
     79          1           0        2.331026   -9.633899   -2.659595
     80          1           0        4.184347   -8.027790   -2.463963
     81          1           0        1.418697   -4.925443   -1.417340
     82          1           0       -0.984086   -5.430190   -1.283358
     83          6           0        3.994359   -5.477332   -1.810618
     84          6           0        4.936053   -4.725373   -1.708349
     85          6           0        6.081193   -3.917175   -1.585335
     86          6           0        7.360685   -4.478119   -1.710304
     87          6           0        8.470030   -3.664834   -1.568838
     88          6           0        8.288574   -2.316280   -1.306827
     89          7           0        7.067492   -1.782268   -1.194830
     90          6           0        5.986261   -2.545642   -1.328079
     91          1           0        7.466438   -5.532679   -1.911349
     92          1           0        9.464882   -4.070267   -1.658010
     93          1           0        9.135225   -1.642180   -1.182030
     94          1           0        5.020857   -2.056556   -1.228904
     95          6           0       -3.699597    1.475905   -6.363061
     96          6           0       -4.774891    1.346044   -5.824870
     97          6           0       -6.009367    1.188787   -5.166832
     98          6           0       -7.206490    1.347024   -5.842754
     99          6           0       -8.432280    1.190637   -5.185234
    100          6           0       -8.484027    0.876380   -3.851701
    101          6           0       -7.285488    0.706425   -3.125494
    102          6           0       -7.269973    0.384979   -1.755214
    103          7           0       -6.153391    0.226064   -1.075365
    104          6           0       -4.955321    0.370234   -1.691533
    105          6           0       -4.860102    0.682036   -3.018057
    106          6           0       -6.030911    0.861643   -3.781138
    107          1           0       -7.192332    1.594804   -6.893334
    108          1           0       -9.345025    1.321840   -5.745974
    109          1           0       -9.431471    0.757634   -3.350786
    110          1           0       -8.204984    0.257316   -1.212149
    111          1           0       -4.077302    0.222992   -1.067999
    112          1           0       -3.901025    0.794677   -3.497171
    113          6           0       -2.440692    1.624353   -6.978936
    114          6           0       -2.364554    1.957062   -8.353608
    115          6           0       -1.150045    2.102964   -8.958179
    116          6           0        0.049596    1.927042   -8.234624
    117          6           0        1.317763    2.072214   -8.838288
    118          6           0        2.463301    1.896840   -8.118416
    119          6           0        2.395551    1.563954   -6.742809
    120          6           0        1.170366    1.416053   -6.126446
    121          6           0       -0.021890    1.592856   -6.853657
    122          6           0       -1.284064    1.447008   -6.248137
    123          1           0       -3.278551    2.092736   -8.912330
    124          1           0       -1.090526    2.356851  -10.006959
    125          1           0        1.365832    2.326191   -9.887520
    126          1           0        3.429861    2.009182   -8.586162
    127          1           0        1.117046    1.162386   -5.078837
    128          1           0       -1.337582    1.193336   -5.200503
    129          6           0        3.591057    1.387473   -6.019361
    130          6           0        4.619044    1.236481   -5.400718
    131          6           0        5.840429    1.071600   -4.722141
    132          6           0        7.062222    1.223035   -5.394654
    133          6           0        8.241836    1.054293   -4.693731
    134          6           0        8.187418    0.740161   -3.344513
    135          7           0        7.023168    0.596206   -2.706225
    136          6           0        5.874479    0.753546   -3.361048
    137          1           0        7.069280    1.468298   -6.445198
    138          1           0        9.194999    1.164635   -5.185014
    139          1           0        9.091488    0.599875   -2.757217
    140          1           0        4.956909    0.623531   -2.789457
    141          6           0       -3.148375    6.849234    1.665917
    142          6           0       -4.280353    6.424286    1.695435
    143          6           0       -5.576541    5.874871    1.693037
    144          6           0       -6.701070    6.674716    1.795296
    145          6           0       -7.985567    6.119116    1.762131
    146          6           0       -8.168683    4.767601    1.618836
    147          6           0       -7.047777    3.916490    1.516132
    148          6           0       -7.166711    2.522157    1.354221
    149          7           0       -6.122860    1.726985    1.266137
    150          6           0       -4.868143    2.239027    1.342304
    151          6           0       -4.643517    3.578132    1.484164
    152          6           0       -5.735420    4.465906    1.564620
    153          1           0       -6.584163    7.742934    1.898059
    154          1           0       -8.838874    6.774538    1.845610
    155          1           0       -9.161265    4.347588    1.584777
    156          1           0       -8.149150    2.061456    1.295426
    157          1           0       -4.051595    1.518974    1.286105
    158          1           0       -3.642432    3.974605    1.537874
    159          6           0       -1.823839    7.329319    1.622421
    160          6           0       -1.560125    8.699041    1.866341
    161          6           0       -0.279967    9.169441    1.821852
    162          6           0        0.802535    8.309922    1.533875
    163          6           0        2.135169    8.773674    1.483915
    164          6           0        3.165284    7.923339    1.207358
    165          6           0        2.910053    6.550915    0.961505
    166          6           0        1.617759    6.070491    0.999998
    167          6           0        0.542618    6.933171    1.286914
    168          6           0       -0.784507    6.467405    1.337865
    169          1           0       -2.383895    9.361218    2.087463
    170          1           0       -0.076984   10.214483    2.008192
    171          1           0        2.326447    9.820622    1.671289
    172          1           0        4.182045    8.284344    1.172063
    173          1           0        1.421265    5.025908    0.813227
    174          1           0       -0.982286    5.423574    1.147401
    175          6           0        3.995956    5.695959    0.689338
    176          6           0        4.938672    4.972304    0.465170
    177          6           0        6.084030    4.188086    0.235121
    178          6           0        7.363697    4.747280    0.365311
    179          6           0        8.472933    3.950270    0.148924
    180          6           0        8.291018    2.619300   -0.190977
    181          7           0        7.069711    2.089993   -0.321078
    182          6           0        5.988712    2.838202   -0.118343
    183          1           0        7.469905    5.786608    0.634214
    184          1           0        9.467906    4.353886    0.244272
    185          1           0        9.137279    1.955509   -0.364100
    186          1           0        5.023149    2.354522   -0.240056
 ---------------------------------------------------------------------

 SCF Done:  E(RPBE1PBE) =  -4990.85666097     a.u. after   47 cycles
 SCF Done:  E(RPBE1PBE) =  -4990.85670874     A.U. after    9 cycles

 The electronic state is 1-A.
 Alpha  occ. eigenvalues --  -14.49084 -14.49080 -14.49045 -14.48975 -14.48655
 Alpha  occ. eigenvalues --  -14.48552 -14.48533 -14.48531 -10.32543 -10.32511
 Alpha  occ. eigenvalues --  -10.32510 -10.32482 -10.32474 -10.32468 -10.32466
 Alpha  occ. eigenvalues --  -10.32438 -10.32055 -10.32050 -10.32037 -10.31934
 Alpha  occ. eigenvalues --  -10.31198 -10.31158 -10.31151 -10.31143 -10.30832
 Alpha  occ. eigenvalues --  -10.30832 -10.30800 -10.30759 -10.29484 -10.29437
 Alpha  occ. eigenvalues --  -10.29408 -10.29406 -10.29347 -10.29329 -10.29326
 Alpha  occ. eigenvalues --  -10.29322 -10.29315 -10.29311 -10.29309 -10.29280
 Alpha  occ. eigenvalues --  -10.28903 -10.28873 -10.28866 -10.28865 -10.28273
 Alpha  occ. eigenvalues --  -10.28273 -10.28259 -10.28248 -10.28247 -10.28247
 Alpha  occ. eigenvalues --  -10.28246 -10.28204 -10.28165 -10.28165 -10.28159
 Alpha  occ. eigenvalues --  -10.28156 -10.27935 -10.27867 -10.27838 -10.27834
 Alpha  occ. eigenvalues --  -10.27548 -10.27535 -10.27528 -10.27524 -10.27368
 Alpha  occ. eigenvalues --  -10.27350 -10.27338 -10.27337 -10.26828 -10.26827
 Alpha  occ. eigenvalues --  -10.26823 -10.26823 -10.26817 -10.26809 -10.26806
 Alpha  occ. eigenvalues --  -10.26802 -10.26794 -10.26787 -10.26786 -10.26784
 Alpha  occ. eigenvalues --  -10.26777 -10.26776 -10.26772 -10.26767 -10.26578
 Alpha  occ. eigenvalues --  -10.26577 -10.26567 -10.26549 -10.26417 -10.26415
 Alpha  occ. eigenvalues --  -10.26407 -10.26405 -10.26344 -10.26343 -10.26325
 Alpha  occ. eigenvalues --  -10.26304 -10.26206 -10.26206 -10.26200 -10.26199
 Alpha  occ. eigenvalues --  -10.26098 -10.26095 -10.26094 -10.26094 -10.26045
 Alpha  occ. eigenvalues --  -10.26044 -10.26041 -10.26036 -10.25868 -10.25868
 Alpha  occ. eigenvalues --  -10.25867 -10.25863 -10.25713 -10.25713 -10.25711
 Alpha  occ. eigenvalues --  -10.25710 -10.25687 -10.25685 -10.25682 -10.25675
 Alpha  occ. eigenvalues --   -3.57579  -3.57432  -2.25495  -2.25485  -2.25347
 Alpha  occ. eigenvalues --   -2.25328  -2.21290  -2.21163  -1.04442  -1.04192
 Alpha  occ. eigenvalues --   -1.03794  -1.03756  -1.03572  -1.03384  -1.03249
 Alpha  occ. eigenvalues --   -1.03199  -0.92950  -0.92937  -0.92936  -0.92935
 Alpha  occ. eigenvalues --   -0.92786  -0.92761  -0.92719  -0.92713  -0.89089
 Alpha  occ. eigenvalues --   -0.88987  -0.88987  -0.88984  -0.88441  -0.88344
 Alpha  occ. eigenvalues --   -0.88337  -0.88332  -0.85543  -0.85518  -0.85503
 Alpha  occ. eigenvalues --   -0.85468  -0.84560  -0.84478  -0.84473  -0.84423
 Alpha  occ. eigenvalues --   -0.84028  -0.83974  -0.83893  -0.83861  -0.83077
 Alpha  occ. eigenvalues --   -0.83038  -0.83022  -0.83003  -0.81405  -0.81374
 Alpha  occ. eigenvalues --   -0.81364  -0.81320  -0.80910  -0.80866  -0.80856
 Alpha  occ. eigenvalues --   -0.80789  -0.79174  -0.79136  -0.79134  -0.79088
 Alpha  occ. eigenvalues --   -0.76635  -0.76600  -0.76552  -0.76526  -0.75489
 Alpha  occ. eigenvalues --   -0.75484  -0.75477  -0.75462  -0.71688  -0.71591
 Alpha  occ. eigenvalues --   -0.71572  -0.71511  -0.71429  -0.71288  -0.71261
 Alpha  occ. eigenvalues --   -0.71115  -0.69672  -0.69471  -0.69400  -0.69295
 Alpha  occ. eigenvalues --   -0.69111  -0.69045  -0.68969  -0.68923  -0.68741
 Alpha  occ. eigenvalues --   -0.68717  -0.68704  -0.68681  -0.67227  -0.67188
 Alpha  occ. eigenvalues --   -0.67188  -0.67159  -0.65899  -0.65887  -0.65855
 Alpha  occ. eigenvalues --   -0.65836  -0.63918  -0.63914  -0.63912  -0.63908
 Alpha  occ. eigenvalues --   -0.62066  -0.61584  -0.61392  -0.60968  -0.60513
 Alpha  occ. eigenvalues --   -0.60287  -0.60158  -0.60129  -0.58649  -0.58485
 Alpha  occ. eigenvalues --   -0.58279  -0.58271  -0.58260  -0.58115  -0.58015
 Alpha  occ. eigenvalues --   -0.57991  -0.56952  -0.56815  -0.56736  -0.56727
 Alpha  occ. eigenvalues --   -0.56591  -0.56549  -0.56324  -0.56314  -0.56222
 Alpha  occ. eigenvalues --   -0.56150  -0.56127  -0.56007  -0.55267  -0.55263
 Alpha  occ. eigenvalues --   -0.55258  -0.55253  -0.54666  -0.54425  -0.54387
 Alpha  occ. eigenvalues --   -0.54232  -0.52639  -0.52492  -0.52455  -0.51894
 Alpha  occ. eigenvalues --   -0.51850  -0.51741  -0.51665  -0.51619  -0.51510
 Alpha  occ. eigenvalues --   -0.51315  -0.51146  -0.50349  -0.50335  -0.50321
 Alpha  occ. eigenvalues --   -0.50292  -0.49913  -0.49850  -0.49616  -0.49532
 Alpha  occ. eigenvalues --   -0.49473  -0.49319  -0.49282  -0.49099  -0.49088
 Alpha  occ. eigenvalues --   -0.48978  -0.48929  -0.48782  -0.48672  -0.48653
 Alpha  occ. eigenvalues --   -0.48551  -0.48160  -0.48156  -0.48155  -0.48153
 Alpha  occ. eigenvalues --   -0.48016  -0.47730  -0.47723  -0.47301  -0.47301
 Alpha  occ. eigenvalues --   -0.47287  -0.47276  -0.47200  -0.47130  -0.46838
 Alpha  occ. eigenvalues --   -0.45804  -0.45517  -0.45512  -0.45509  -0.45500
 Alpha  occ. eigenvalues --   -0.45421  -0.45419  -0.45418  -0.45417  -0.44902
 Alpha  occ. eigenvalues --   -0.44853  -0.44641  -0.44584  -0.44525  -0.44517
 Alpha  occ. eigenvalues --   -0.44490  -0.43883  -0.43878  -0.43847  -0.43602
 Alpha  occ. eigenvalues --   -0.43442  -0.43348  -0.43271  -0.43224  -0.43168
 Alpha  occ. eigenvalues --   -0.42696  -0.42393  -0.42135  -0.42116  -0.42084
 Alpha  occ. eigenvalues --   -0.42055  -0.41883  -0.41880  -0.41330  -0.40850
 Alpha  occ. eigenvalues --   -0.40741  -0.40722  -0.40606  -0.40448  -0.40170
 Alpha  occ. eigenvalues --   -0.39783  -0.39624  -0.39606  -0.39598  -0.39439
 Alpha  occ. eigenvalues --   -0.38804  -0.38719  -0.38712  -0.38706  -0.38704
 Alpha  occ. eigenvalues --   -0.38595  -0.38160  -0.37360  -0.37334  -0.37162
 Alpha  occ. eigenvalues --   -0.37038  -0.37035  -0.36978  -0.36896  -0.36766
 Alpha  occ. eigenvalues --   -0.36713  -0.36386  -0.36159  -0.36138  -0.35839
 Alpha  occ. eigenvalues --   -0.35683  -0.34637  -0.34557  -0.34420  -0.34297
 Alpha  occ. eigenvalues --   -0.34273  -0.34115  -0.34044  -0.33795  -0.33533
 Alpha  occ. eigenvalues --   -0.33454  -0.33323  -0.32960  -0.32668  -0.32499
 Alpha  occ. eigenvalues --   -0.32049  -0.32025  -0.31700  -0.31592  -0.31545
 Alpha  occ. eigenvalues --   -0.31481  -0.31464  -0.31414  -0.31276  -0.31050
 Alpha  occ. eigenvalues --   -0.31046  -0.31042  -0.31039  -0.30766  -0.30630
 Alpha  occ. eigenvalues --   -0.30392  -0.30386  -0.30184  -0.29063  -0.28950
 Alpha  occ. eigenvalues --   -0.28250  -0.28163  -0.28144  -0.27971  -0.25232
 Alpha  occ. eigenvalues --   -0.25158  -0.25126  -0.25038  -0.24144  -0.24115
 Alpha  occ. eigenvalues --   -0.24098  -0.24052
 Alpha virt. eigenvalues --   -0.10271  -0.10156  -0.10132  -0.09783  -0.09524
 Alpha virt. eigenvalues --   -0.09326  -0.09186  -0.08871  -0.07562  -0.07502
 Alpha virt. eigenvalues --   -0.07316  -0.07291  -0.07253  -0.07115  -0.06782

 Mulliken charges:
               1
     1  Pd   0.496224
     2  Pd   0.499247
     3  C    0.012355
     4  C   -0.066233
     5  C   -0.022317
     6  C    0.019025
     7  C   -0.000740
     8  C    0.019895
     9  C   -0.062048
    10  C    0.180254
    11  N   -0.319253
    12  C    0.148821
    13  C   -0.012557
    14  C    0.071813
    15  H    0.043866
    16  H    0.054538
    17  H    0.044285
    18  H    0.086985
    19  H    0.099196
    20  H    0.050660
    21  C   -0.065312
    22  C    0.024822
    23  C   -0.011352
    24  C    0.006595
    25  C   -0.011272
    26  C    0.026794
    27  C   -0.070401
    28  C   -0.010066
    29  C    0.035167
    30  C   -0.015713
    31  H    0.033128
    32  H    0.030207
    33  H    0.030473
    34  H    0.033393
    35  H    0.025446
    36  H    0.026425
    37  C    0.010881
    38  C   -0.008017
    39  C   -0.123416
    40  C    0.107072
    41  C   -0.033340
    42  C    0.151401
    43  N   -0.307344
    44  C    0.186316
    45  H    0.063402
    46  H    0.071197
    47  H    0.112400
    48  H    0.088320
    49  C    0.009442
    50  C   -0.063457
    51  C   -0.019031
    52  C    0.019530
    53  C   -0.001667
    54  C    0.020414
    55  C   -0.064077
    56  C    0.182314
    57  N   -0.319560
    58  C    0.146519
    59  C   -0.010795
    60  C    0.066648
    61  H    0.043497
    62  H    0.054380
    63  H    0.043744
    64  H    0.085797
    65  H    0.098825
    66  H    0.048670
    67  C   -0.063495
    68  C    0.026298
    69  C   -0.011539
    70  C    0.006156
    71  C   -0.011212
    72  C    0.025000
    73  C   -0.070112
    74  C   -0.007385
    75  C    0.035537
    76  C   -0.019850
    77  H    0.033071
    78  H    0.030427
    79  H    0.030488
    80  H    0.033573
    81  H    0.025453
    82  H    0.027271
    83  C    0.013665
    84  C   -0.011540
    85  C   -0.122208
    86  C    0.103293
    87  C   -0.029743
    88  C    0.145721
    89  N   -0.311920
    90  C    0.193065
    91  H    0.064247
    92  H    0.071392
    93  H    0.112736
    94  H    0.089327
    95  C    0.009750
    96  C   -0.063806
    97  C   -0.019312
    98  C    0.019140
    99  C   -0.001392
   100  C    0.019519
   101  C   -0.058086
   102  C    0.177227
   103  N   -0.319490
   104  C    0.155999
   105  C   -0.015178
   106  C    0.067971
   107  H    0.043600
   108  H    0.054397
   109  H    0.043578
   110  H    0.094098
   111  H    0.086440
   112  H    0.049435
   113  C   -0.063875
   114  C    0.025914
   115  C   -0.011405
   116  C    0.006215
   117  C   -0.011162
   118  C    0.025651
   119  C   -0.070207
   120  C   -0.008398
   121  C    0.035728
   122  C   -0.019094
   123  H    0.032987
   124  H    0.030300
   125  H    0.030508
   126  H    0.033520
   127  H    0.025366
   128  H    0.027434
   129  C    0.012212
   130  C   -0.011371
   131  C   -0.119538
   132  C    0.104603
   133  C   -0.033173
   134  C    0.151325
   135  N   -0.311024
   136  C    0.188641
   137  H    0.064031
   138  H    0.071807
   139  H    0.102249
   140  H    0.097979
   141  C    0.009512
   142  C   -0.063601
   143  C   -0.019074
   144  C    0.019439
   145  C   -0.001728
   146  C    0.020421
   147  C   -0.063687
   148  C    0.182189
   149  N   -0.319803
   150  C    0.146291
   151  C   -0.010817
   152  C    0.066756
   153  H    0.043525
   154  H    0.054394
   155  H    0.043789
   156  H    0.086301
   157  H    0.098291
   158  H    0.048790
   159  C   -0.063516
   160  C    0.026207
   161  C   -0.011430
   162  C    0.005955
   163  C   -0.011142
   164  C    0.025152
   165  C   -0.070252
   166  C   -0.007278
   167  C    0.035355
   168  C   -0.019757
   169  H    0.033034
   170  H    0.030458
   171  H    0.030537
   172  H    0.033532
   173  H    0.025423
   174  H    0.027473
   175  C    0.013449
   176  C   -0.011271
   177  C   -0.121946
   178  C    0.103232
   179  C   -0.029816
   180  C    0.146214
   181  N   -0.312180
   182  C    0.192467
   183  H    0.064253
   184  H    0.071342
   185  H    0.112939
   186  H    0.089338
 Sum of Mulliken charges =   4.00000

 Dipole moment (field-independent basis, Debye):
    X=              6.5562    Y=             -0.1217    Z=             -0.0503  Tot=              6.5575
 Quadrupole moment (field-independent basis, Debye-Ang):
   XX=            340.2889   YY=           -473.0985   ZZ=           -467.4275
   XY=             14.8100   XZ=            -66.8796   YZ=             -2.0240

 Normal termination of Gaussian 16 at Fri Feb 26 14:53:18 2021.
