 Gaussian 16, Revision C.01,
 Gaussian 16:  ES64L-G16RevC.01  3-Jul-2019

 ------------------------------------------------------------------
 # SP PBE1PBE/def2svp empiricaldispersion=GD3BJ scrf=(solvent=dmso)
 ------------------------------------------------------------------

 ---------
 cis_l2_lc
 ---------
 Symbolic Z-matrix:
 Charge =  4 Multiplicity = 1

                         Standard orientation:
 ---------------------------------------------------------------------
 Center     Atomic      Atomic             Coordinates (Angstroms)
 Number     Number       Type             X           Y           Z
 ---------------------------------------------------------------------
      1         46           0       -6.099104   -2.355598   -0.253105
      2         46           0        6.098496   -2.355699   -0.252705
      3          6           0       -0.000504   -6.699399    3.825395
      4          6           0        1.209596   -6.131399    3.433495
      5          6           0        1.219196   -4.963399    2.658895
      6          6           0       -0.000504   -4.385599    2.291495
      7          6           0       -1.220304   -4.963498    2.658895
      8          6           0       -1.210704   -6.131398    3.433495
      9          6           0       -2.471704   -4.353698    2.168595
     10          6           0       -2.592004   -2.962398    2.044195
     11          6           0       -3.716704   -2.420198    1.449595
     12          7           0       -4.714104   -3.186898    0.985095
     13          6           0       -4.654404   -4.515298    1.156695
     14          6           0       -3.560004   -5.129398    1.746795
     15          6           0        2.470596   -4.353599    2.168595
     16          6           0        2.590696   -2.962299    2.043695
     17          6           0        3.715496   -2.420199    1.449095
     18          7           0        4.713196   -3.186899    0.985195
     19          6           0        4.653596   -4.515299    1.157395
     20          6           0        3.559096   -5.129299    1.747395
     21          1           0       -0.000504   -7.598999    4.443895
     22          1           0        2.150496   -6.589499    3.745895
     23          1           0       -0.000604   -3.505399    1.645795
     24          1           0       -2.151604   -6.589598    3.745795
     25          1           0       -1.808404   -2.292298    2.398995
     26          1           0       -3.814504   -1.340598    1.319095
     27          1           0       -5.495204   -5.100298    0.778295
     28          1           0       -3.541204   -6.217498    1.820095
     29          1           0        1.806896   -2.292299    2.397995
     30          1           0        3.812996   -1.340699    1.318095
     31          1           0        5.494696   -5.100199    0.779495
     32          1           0        3.540596   -6.217399    1.820995
     33          6           0       -0.000204   -4.737399   -5.704805
     34          6           0        1.209396   -4.364599   -5.123605
     35          6           0        1.218996   -3.583399   -3.960005
     36          6           0       -0.000204   -3.187099   -3.399405
     37          6           0       -1.219504   -3.583298   -3.960005
     38          6           0       -1.209804   -4.364498   -5.123705
     39          6           0       -2.474704   -3.220698   -3.272805
     40          6           0       -2.622904   -1.975898   -2.645005
     41          6           0       -3.753304   -1.717998   -1.889905
     42          7           0       -4.726604   -2.627798   -1.734305
     43          6           0       -4.639904   -3.797798   -2.382905
     44          6           0       -3.540804   -4.123798   -3.162605
     45          6           0        2.474296   -3.220899   -3.272705
     46          6           0        2.622696   -1.975899   -2.645205
     47          6           0        3.753096   -1.717999   -1.890105
     48          7           0        4.726096   -2.627999   -1.734105
     49          6           0        4.639196   -3.798199   -2.382305
     50          6           0        3.540096   -4.124199   -3.162105
     51          1           0       -0.000204   -5.330199   -6.621705
     52          1           0        2.150596   -4.669199   -5.586405
     53          1           0       -0.000204   -2.621199   -2.465305
     54          1           0       -2.151004   -4.668998   -5.586505
     55          1           0       -1.857604   -1.203698   -2.731205
     56          1           0       -3.878204   -0.763498   -1.374505
     57          1           0       -5.463304   -4.500698   -2.239805
     58          1           0       -3.498704   -5.107598   -3.631605
     59          1           0        1.857496   -1.203599   -2.731805
     60          1           0        3.878096   -0.763399   -1.375005
     61          1           0        5.462396   -4.501199   -2.238805
     62          1           0        3.497896   -5.108099   -3.630805
     63          6           0        9.438096   -1.565299   -2.760105
     64          6           0        9.377096   -0.171099   -3.007505
     65          6           0        8.248096    0.547201   -2.506705
     66          6           0        8.113796    1.949701   -2.763505
     67          6           0        9.143197    2.585901   -3.435205
     68          6           0       10.274396    1.880801   -3.899005
     69          6           0       10.388096    0.522701   -3.712205
     70          6           0        6.905197    2.712301   -2.381505
     71          6           0        7.021397    3.972001   -1.773205
     72          6           0        5.899097    4.745901   -1.507605
     73          6           0        4.615097    4.277301   -1.841005
     74          6           0        3.454797    5.076601   -1.636905
     75          6           0        2.437997    5.741001   -1.536805
     76          6           0        1.218497    6.476501   -1.486305
     77          6           0        1.209897    7.883201   -1.474105
     78          6           0        0.000497    8.571301   -1.468205
     79          6           0       -1.209003    7.883202   -1.474005
     80          6           0       -1.217603    6.476502   -1.486205
     81          6           0       -2.437203    5.741202   -1.536505
     82          6           0       -3.454103    5.076902   -1.636505
     83          6           0       -4.614503    4.277702   -1.840505
     84          6           0       -4.492603    3.004002   -2.427305
     85          6           0       -5.619304    2.240702   -2.697005
     86          6           0       -6.904803    2.713002   -2.381005
     87          6           0       -8.113604    1.950702   -2.763105
     88          6           0       -8.248104    0.548102   -2.506605
     89          6           0       -9.377204   -0.169898   -3.007505
     90          6           0       -9.438504   -1.564098   -2.760505
     91          6           0       -8.457404   -2.175698   -2.028305
     92          7           0       -7.424004   -1.466198   -1.497905
     93          6           0       -7.321304   -0.168498   -1.720505
     94          6           0      -10.388104    0.524302   -3.712105
     95          6           0      -10.274204    1.882402   -3.898605
     96          6           0       -9.142903    2.587202   -3.434605
     97          6           0       -7.020803    3.972602   -1.772605
     98          6           0       -5.898403    4.746402   -1.507005
     99          6           0        0.000397    5.782501   -1.487405
    100          6           0        4.493097    3.003601   -2.427705
    101          6           0        5.619596    2.240101   -2.697405
    102          6           0        7.321196   -0.169099   -1.720405
    103          7           0        7.423596   -1.466699   -1.497505
    104          6           0        8.456896   -2.176599   -2.027705
    105          1           0       10.271096   -2.154799   -3.146205
    106          1           0        9.060097    3.653701   -3.648005
    107          1           0       11.054797    2.425001   -4.435205
    108          1           0       11.248896   -0.028700   -4.095005
    109          1           0        8.009697    4.349801   -1.502505
    110          1           0        6.009297    5.726001   -1.040205
    111          1           0        2.156297    8.426601   -1.472605
    112          1           0        0.000497    9.663301   -1.459205
    113          1           0       -2.155403    8.426702   -1.472405
    114          1           0       -3.503703    2.630302   -2.698505
    115          1           0       -5.498304    1.280302   -3.203505
    116          1           0      -10.271604   -2.153398   -3.146805
    117          1           0       -8.469104   -3.246598   -1.821605
    118          1           0       -6.487004    0.351102   -1.246005
    119          1           0      -11.249004   -0.026898   -4.095005
    120          1           0      -11.054503    2.426802   -4.434605
    121          1           0       -9.059603    3.655002   -3.647205
    122          1           0       -8.009003    4.350502   -1.501705
    123          1           0       -6.008403    5.726502   -1.039405
    124          1           0        0.000397    4.691901   -1.497605
    125          1           0        3.503997    2.629901   -2.698805
    126          1           0        5.498496    1.279701   -3.203705
    127          1           0        6.486996    0.350801   -1.246005
    128          1           0        8.468396   -3.247399   -1.820905
    129          6           0        9.400396   -2.527799    2.441095
    130          6           0        9.300396   -1.324199    3.183595
    131          6           0        8.199796   -0.459899    2.901995
    132          6           0        8.041196    0.770201    3.614995
    133          6           0        8.958696    1.072601    4.602595
    134          6           0       10.045696    0.214701    4.884795
    135          6           0       10.226896   -0.958199    4.188395
    136          6           0        6.901296    1.669901    3.323495
    137          6           0        5.992596    1.994801    4.339695
    138          6           0        4.880597    2.782901    4.073595
    139          6           0        4.649497    3.277701    2.777595
    140          6           0        3.475997    4.045101    2.509695
    141          6           0        2.447297    4.672401    2.328895
    142          6           0        1.219097    5.382101    2.160295
    143          6           0        1.209097    6.762801    1.896095
    144          6           0        0.000397    7.439501    1.771995
    145          6           0       -1.208303    6.762702    1.896195
    146          6           0       -1.218203    5.382002    2.160495
    147          6           0       -2.446303    4.672202    2.329195
    148          6           0       -3.474903    4.044802    2.510095
    149          6           0       -4.648403    3.277402    2.777895
    150          6           0       -5.578903    2.983502    1.765395
    151          6           0       -6.686504    2.190202    2.037495
    152          6           0       -6.900304    1.669702    3.323795
    153          6           0       -8.040404    0.770302    3.615395
    154          6           0       -8.199604   -0.459598    2.902095
    155          6           0       -9.300404   -1.323598    3.183695
    156          6           0       -9.401004   -2.526998    2.440895
    157          6           0       -8.459504   -2.833398    1.494495
    158          7           0       -7.404104   -2.008598    1.253995
    159          6           0       -7.271004   -0.882598    1.929895
    160          6           0      -10.226604   -0.957598    4.188795
    161          6           0      -10.044804    0.215102    4.885495
    162          6           0       -8.957604    1.072702    4.603195
    163          6           0       -5.991504    1.994402    4.339995
    164          6           0       -4.879403    2.782402    4.073895
    165          6           0        0.000497    4.699901    2.289795
    166          6           0        5.579897    2.983701    1.764995
    167          6           0        6.687496    2.190301    2.037195
    168          6           0        7.270996   -0.882599    1.930095
    169          7           0        7.403496   -2.008899    1.254295
    170          6           0        8.458596   -2.834099    1.494895
    171          1           0       10.227796   -3.215699    2.621595
    172          1           0        8.852596    2.004201    5.162495
    173          1           0       10.755096    0.498801    5.665095
    174          1           0       11.071996   -1.615099    4.403295
    175          1           0        6.146696    1.598101    5.345795
    176          1           0        4.169597    3.011201    4.869695
    177          1           0        2.154997    7.296701    1.790395
    178          1           0        0.000297    8.511001    1.565595
    179          1           0       -2.154303    7.296502    1.790695
    180          1           0       -5.426203    3.378202    0.759595
    181          1           0       -7.400904    1.978202    1.237795
    182          1           0      -10.228704   -3.214598    2.621395
    183          1           0       -8.507604   -3.748598    0.902395
    184          1           0       -6.394404   -0.272698    1.706395
    185          1           0      -11.071904   -1.614198    4.403695
    186          1           0      -10.754004    0.499302    5.665995
    187          1           0       -8.851104    2.004102    5.163295
    188          1           0       -6.145504    1.597602    5.345995
    189          1           0       -4.168303    3.010502    4.869995
    190          1           0        0.000497    3.629501    2.500195
    191          1           0        5.427197    3.378301    0.759195
    192          1           0        7.401796    1.978101    1.237395
    193          1           0        6.394596   -0.272399    1.706595
    194          1           0        8.506196   -3.749399    0.902995
 ---------------------------------------------------------------------

 SCF Done:  E(RPBE1PBE) =  -4995.93963931     A.U. after   17 cycles

 The electronic state is 1-A.
 Alpha  occ. eigenvalues --  -14.48315 -14.48315 -14.48304 -14.48304 -14.48275
 Alpha  occ. eigenvalues --  -14.48275 -14.48241 -14.48240 -10.32264 -10.32264
 Alpha  occ. eigenvalues --  -10.32126 -10.32125 -10.31940 -10.31939 -10.31912
 Alpha  occ. eigenvalues --  -10.31912 -10.31901 -10.31901 -10.31895 -10.31895
 Alpha  occ. eigenvalues --  -10.30880 -10.30880 -10.30876 -10.30875 -10.30389
 Alpha  occ. eigenvalues --  -10.30388 -10.30368 -10.30367 -10.29031 -10.29031
 Alpha  occ. eigenvalues --  -10.29000 -10.29000 -10.28921 -10.28921 -10.28782
 Alpha  occ. eigenvalues --  -10.28780 -10.28615 -10.28615 -10.28589 -10.28589
 Alpha  occ. eigenvalues --  -10.28441 -10.28441 -10.28373 -10.28373 -10.28303
 Alpha  occ. eigenvalues --  -10.28302 -10.28291 -10.28290 -10.28289 -10.28287
 Alpha  occ. eigenvalues --  -10.28279 -10.28279 -10.28231 -10.28231 -10.28152
 Alpha  occ. eigenvalues --  -10.28149 -10.28125 -10.28122 -10.28108 -10.28105
 Alpha  occ. eigenvalues --  -10.27811 -10.27810 -10.27809 -10.27809 -10.27719
 Alpha  occ. eigenvalues --  -10.27718 -10.27450 -10.27449 -10.27357 -10.27313
 Alpha  occ. eigenvalues --  -10.27098 -10.27098 -10.27097 -10.27096 -10.27021
 Alpha  occ. eigenvalues --  -10.27019 -10.27005 -10.27002 -10.26896 -10.26896
 Alpha  occ. eigenvalues --  -10.26849 -10.26848 -10.26753 -10.26753 -10.26735
 Alpha  occ. eigenvalues --  -10.26735 -10.26585 -10.26578 -10.26578 -10.26550
 Alpha  occ. eigenvalues --  -10.26549 -10.26522 -10.26522 -10.26518 -10.26510
 Alpha  occ. eigenvalues --  -10.26508 -10.26362 -10.26361 -10.26330 -10.26329
 Alpha  occ. eigenvalues --  -10.26304 -10.26303 -10.26268 -10.26268 -10.26211
 Alpha  occ. eigenvalues --  -10.26207 -10.26143 -10.26143 -10.26089 -10.26086
 Alpha  occ. eigenvalues --  -10.25952 -10.25950 -10.25816 -10.25813 -10.25748
 Alpha  occ. eigenvalues --  -10.25725 -10.25721 -10.25587 -10.25584 -10.25560
 Alpha  occ. eigenvalues --   -3.56804  -3.56803  -2.24771  -2.24771  -2.24493
 Alpha  occ. eigenvalues --   -2.24493  -2.20501  -2.20501  -1.03337  -1.03334
 Alpha  occ. eigenvalues --   -1.02753  -1.02752  -1.02636  -1.02631  -1.02464
 Alpha  occ. eigenvalues --   -1.02462  -0.92535  -0.92526  -0.92477  -0.92453
 Alpha  occ. eigenvalues --   -0.92421  -0.92419  -0.91019  -0.90658  -0.90462
 Alpha  occ. eigenvalues --   -0.90407  -0.90284  -0.90222  -0.88891  -0.88775
 Alpha  occ. eigenvalues --   -0.86359  -0.86233  -0.85537  -0.85463  -0.85407
 Alpha  occ. eigenvalues --   -0.85342  -0.83591  -0.83363  -0.82844  -0.82808
 Alpha  occ. eigenvalues --   -0.82725  -0.82618  -0.82594  -0.82557  -0.82438
 Alpha  occ. eigenvalues --   -0.82310  -0.82163  -0.81953  -0.81651  -0.81404
 Alpha  occ. eigenvalues --   -0.80370  -0.80134  -0.79540  -0.79452  -0.79420
 Alpha  occ. eigenvalues --   -0.79378  -0.78879  -0.78876  -0.78661  -0.78652
 Alpha  occ. eigenvalues --   -0.78335  -0.78306  -0.78197  -0.78165  -0.75129
 Alpha  occ. eigenvalues --   -0.75005  -0.74571  -0.74412  -0.70726  -0.70711
 Alpha  occ. eigenvalues --   -0.70625  -0.70544  -0.70532  -0.70417  -0.70336
 Alpha  occ. eigenvalues --   -0.70281  -0.69323  -0.69182  -0.69068  -0.68981
 Alpha  occ. eigenvalues --   -0.68956  -0.68905  -0.68741  -0.68711  -0.67929
 Alpha  occ. eigenvalues --   -0.67821  -0.67811  -0.67733  -0.65587  -0.65413
 Alpha  occ. eigenvalues --   -0.65215  -0.64993  -0.64525  -0.64475  -0.64400
 Alpha  occ. eigenvalues --   -0.64399  -0.64217  -0.64144  -0.63319  -0.63122
 Alpha  occ. eigenvalues --   -0.63041  -0.62851  -0.62844  -0.62666  -0.60378
 Alpha  occ. eigenvalues --   -0.59869  -0.59303  -0.59108  -0.58502  -0.58108
 Alpha  occ. eigenvalues --   -0.58097  -0.57945  -0.57927  -0.57499  -0.57463
 Alpha  occ. eigenvalues --   -0.57228  -0.57098  -0.57051  -0.56744  -0.56591
 Alpha  occ. eigenvalues --   -0.56261  -0.56104  -0.55999  -0.55862  -0.55799
 Alpha  occ. eigenvalues --   -0.55643  -0.55558  -0.55448  -0.54986  -0.54853
 Alpha  occ. eigenvalues --   -0.54272  -0.54105  -0.52322  -0.52112  -0.51786
 Alpha  occ. eigenvalues --   -0.51728  -0.51558  -0.51490  -0.51443  -0.51199
 Alpha  occ. eigenvalues --   -0.51039  -0.50978  -0.50952  -0.50762  -0.50687
 Alpha  occ. eigenvalues --   -0.50662  -0.50501  -0.50428  -0.50396  -0.50213
 Alpha  occ. eigenvalues --   -0.50054  -0.50051  -0.49979  -0.49901  -0.49881
 Alpha  occ. eigenvalues --   -0.49701  -0.49613  -0.49389  -0.49292  -0.49184
 Alpha  occ. eigenvalues --   -0.49139  -0.48971  -0.48701  -0.48672  -0.48582
 Alpha  occ. eigenvalues --   -0.48475  -0.48339  -0.48278  -0.48213  -0.47956
 Alpha  occ. eigenvalues --   -0.47795  -0.47702  -0.47625  -0.47505  -0.47370
 Alpha  occ. eigenvalues --   -0.47084  -0.46885  -0.46716  -0.46700  -0.46598
 Alpha  occ. eigenvalues --   -0.46522  -0.46440  -0.46413  -0.46400  -0.46031
 Alpha  occ. eigenvalues --   -0.45846  -0.45724  -0.45652  -0.45633  -0.45629
 Alpha  occ. eigenvalues --   -0.45462  -0.45450  -0.44615  -0.44513  -0.44273
 Alpha  occ. eigenvalues --   -0.44235  -0.43839  -0.43184  -0.43109  -0.43092
 Alpha  occ. eigenvalues --   -0.43064  -0.42837  -0.42551  -0.42547  -0.42522
 Alpha  occ. eigenvalues --   -0.42195  -0.42115  -0.42019  -0.41923  -0.41808
 Alpha  occ. eigenvalues --   -0.41769  -0.41739  -0.41695  -0.41573  -0.41462
 Alpha  occ. eigenvalues --   -0.41458  -0.41387  -0.41038  -0.40758  -0.40593
 Alpha  occ. eigenvalues --   -0.40229  -0.40144  -0.40014  -0.39902  -0.39600
 Alpha  occ. eigenvalues --   -0.39421  -0.39114  -0.39051  -0.38744  -0.38631
 Alpha  occ. eigenvalues --   -0.38489  -0.38461  -0.38378  -0.38239  -0.38126
 Alpha  occ. eigenvalues --   -0.38061  -0.38003  -0.37812  -0.37737  -0.37625
 Alpha  occ. eigenvalues --   -0.37622  -0.37174  -0.37111  -0.36380  -0.36350
 Alpha  occ. eigenvalues --   -0.36130  -0.36097  -0.35756  -0.35464  -0.35318
 Alpha  occ. eigenvalues --   -0.34807  -0.34763  -0.34553  -0.34239  -0.33986
 Alpha  occ. eigenvalues --   -0.33954  -0.33700  -0.33639  -0.33616  -0.33341
 Alpha  occ. eigenvalues --   -0.33319  -0.33146  -0.33120  -0.32262  -0.32216
 Alpha  occ. eigenvalues --   -0.31893  -0.31876  -0.31384  -0.31356  -0.31209
 Alpha  occ. eigenvalues --   -0.30982  -0.30977  -0.30746  -0.30663  -0.29694
 Alpha  occ. eigenvalues --   -0.29539  -0.29494  -0.29477  -0.29122  -0.29069
 Alpha  occ. eigenvalues --   -0.29058  -0.28998  -0.28612  -0.28610  -0.28308
 Alpha  occ. eigenvalues --   -0.28249  -0.28085  -0.27847  -0.27348  -0.27056
 Alpha  occ. eigenvalues --   -0.27049  -0.26249  -0.25431  -0.24845  -0.24754
 Alpha  occ. eigenvalues --   -0.23906
 Alpha virt. eigenvalues --   -0.09742  -0.09656  -0.09338  -0.09118  -0.09092
 Alpha virt. eigenvalues --   -0.09010  -0.08851  -0.08722  -0.07465  -0.07303
 Alpha virt. eigenvalues --   -0.06991  -0.06630  -0.06390  -0.06384  -0.06213

 Mulliken charges:
               1
     1  Pd   0.503231
     2  Pd   0.503203
     3  C   -0.022727
     4  C   -0.011290
     5  C    0.015992
     6  C   -0.038442
     7  C    0.015913
     8  C   -0.011306
     9  C    0.059707
    10  C   -0.049634
    11  C    0.146302
    12  N   -0.318802
    13  C    0.151210
    14  C   -0.039283
    15  C    0.059754
    16  C   -0.049590
    17  C    0.146388
    18  N   -0.318858
    19  C    0.151184
    20  C   -0.039330
    21  H    0.054676
    22  H    0.050179
    23  H    0.048118
    24  H    0.050188
    25  H    0.067861
    26  H    0.102584
    27  H    0.107667
    28  H    0.067859
    29  H    0.067815
    30  H    0.102558
    31  H    0.107660
    32  H    0.067874
    33  C   -0.022896
    34  C   -0.010757
    35  C    0.012272
    36  C   -0.032178
    37  C    0.012219
    38  C   -0.010730
    39  C    0.056731
    40  C   -0.047432
    41  C    0.145939
    42  N   -0.319052
    43  C    0.151518
    44  C   -0.037664
    45  C    0.056683
    46  C   -0.047428
    47  C    0.145950
    48  N   -0.319002
    49  C    0.151513
    50  C   -0.037635
    51  H    0.054811
    52  H    0.050380
    53  H    0.047138
    54  H    0.050359
    55  H    0.067381
    56  H    0.099934
    57  H    0.107203
    58  H    0.068104
    59  H    0.067399
    60  H    0.099899
    61  H    0.107195
    62  H    0.068085
    63  C   -0.031870
    64  C    0.026941
    65  C   -0.021313
    66  C    0.057602
    67  C   -0.031336
    68  C    0.005463
    69  C   -0.005334
    70  C   -0.031573
    71  C   -0.019844
    72  C   -0.008779
    73  C   -0.089466
    74  C   -0.001632
    75  C   -0.008718
    76  C   -0.068043
    77  C    0.010711
    78  C   -0.027214
    79  C    0.010652
    80  C   -0.067998
    81  C   -0.008741
    82  C   -0.001616
    83  C   -0.089493
    84  C    0.005505
    85  C   -0.037159
    86  C   -0.031475
    87  C    0.057644
    88  C   -0.021317
    89  C    0.026917
    90  C   -0.031887
    91  C    0.138302
    92  N   -0.316284
    93  C    0.138961
    94  C   -0.005320
    95  C    0.005510
    96  C   -0.031340
    97  C   -0.019897
    98  C   -0.008801
    99  C    0.015845
   100  C    0.005421
   101  C   -0.037095
   102  C    0.138943
   103  N   -0.316261
   104  C    0.138352
   105  H    0.060447
   106  H    0.049068
   107  H    0.060020
   108  H    0.047247
   109  H    0.044878
   110  H    0.043630
   111  H    0.039335
   112  H    0.050608
   113  H    0.039370
   114  H    0.039089
   115  H    0.053156
   116  H    0.060473
   117  H    0.096350
   118  H    0.099649
   119  H    0.047251
   120  H    0.059983
   121  H    0.049055
   122  H    0.044874
   123  H    0.043663
   124  H    0.029299
   125  H    0.039167
   126  H    0.053114
   127  H    0.099666
   128  H    0.096319
   129  C   -0.034254
   130  C    0.031437
   131  C   -0.015023
   132  C    0.039350
   133  C   -0.024797
   134  C    0.003729
   135  C   -0.005689
   136  C   -0.058148
   137  C    0.000472
   138  C   -0.000855
   139  C   -0.065219
   140  C   -0.032502
   141  C   -0.001180
   142  C   -0.084398
   143  C    0.032091
   144  C   -0.025889
   145  C    0.032053
   146  C   -0.084432
   147  C   -0.001190
   148  C   -0.032469
   149  C   -0.065227
   150  C    0.004221
   151  C   -0.037334
   152  C   -0.058138
   153  C    0.039435
   154  C   -0.015140
   155  C    0.031371
   156  C   -0.034244
   157  C    0.138823
   158  N   -0.316704
   159  C    0.146748
   160  C   -0.005693
   161  C    0.003699
   162  C   -0.024813
   163  C    0.000472
   164  C   -0.000876
   165  C    0.016221
   166  C    0.004251
   167  C   -0.037403
   168  C    0.146720
   169  N   -0.316831
   170  C    0.138876
   171  H    0.060163
   172  H    0.046074
   173  H    0.060190
   174  H    0.046759
   175  H    0.041646
   176  H    0.039928
   177  H    0.037045
   178  H    0.049185
   179  H    0.037052
   180  H    0.042590
   181  H    0.047356
   182  H    0.060186
   183  H    0.095053
   184  H    0.107136
   185  H    0.046753
   186  H    0.060210
   187  H    0.046051
   188  H    0.041615
   189  H    0.039948
   190  H    0.028103
   191  H    0.042567
   192  H    0.047378
   193  H    0.107181
   194  H    0.095042
 Sum of Mulliken charges =   4.00000

 Dipole moment (field-independent basis, Debye):
    X=             -0.0033    Y=            -38.2276    Z=             -4.6086  Tot=             38.5044
 Quadrupole moment (field-independent basis, Debye-Ang):
   XX=            235.5882   YY=           -428.9411   ZZ=           -551.8846
   XY=             -0.0121   XZ=              0.0098   YZ=              5.2641

 Normal termination of Gaussian 16 at Fri Jun  2 06:08:21 2023.
