 Gaussian 16, Revision C.01,
 Gaussian 16:  ES64L-G16RevC.01  3-Jul-2019

 ----------------------------------------------------------------------
 #P PBE1PBE/Def2SVP SP SCF=(YQC,MaxCycle=900) int=(Grid=Superfinegrid)
 EmpiricalDispersion=GD3BJ SCRF=(PCM,Solvent=DiMethylSulfoxide)
 ----------------------------------------------------------------------

 --------
 _s_5d3_d
 --------
 Symbolic Z-matrix:
 Charge =  4 Multiplicity = 1

                         Standard orientation:
 ---------------------------------------------------------------------
 Center     Atomic      Atomic             Coordinates (Angstroms)
 Number     Number       Type             X           Y           Z
 ---------------------------------------------------------------------
      1         46           0       -5.403218   -0.005141   -0.005864
      2         46           0        5.403214   -0.000201   -0.003339
      3          6           0        2.036607    4.945830    4.905912
      4          6           0        3.186383    4.683283    4.639715
      5          6           0        4.509633    4.344010    4.297068
      6          6           0        5.589799    4.962797    4.901067
      7          6           0        6.902285    4.620085    4.555072
      8          6           0        7.156690    3.661651    3.607813
      9          6           0        6.082405    3.007198    2.968559
     10          6           0        6.276220    2.014715    1.987661
     11          7           0        5.277238    1.404250    1.390810
     12          6           0        3.994533    1.719779    1.710070
     13          6           0        3.699022    2.667219    2.647147
     14          6           0        4.742555    3.345300    3.310182
     15          1           0        5.416343    5.720726    5.649922
     16          1           0        7.719635    5.124182    5.047464
     17          1           0        8.170184    3.402491    3.346082
     18          1           0        7.282200    1.726891    1.697356
     19          1           0        3.218127    1.170852    1.172946
     20          1           0        2.678418    2.911188    2.894138
     21          6           0        0.691075    5.244130    5.208491
     22          6           0        0.380262    6.209894    6.171133
     23          6           0       -0.942391    6.495056    6.461131
     24          6           0       -1.965088    5.832021    5.806284
     25          6           0       -1.662360    4.864628    4.842055
     26          6           0       -0.333289    4.571593    4.544028
     27          1           0        1.175605    6.729342    6.684311
     28          1           0       -1.177756    7.241484    7.205214
     29          1           0       -2.995280    6.058058    6.036157
     30          1           0       -0.100130    3.825853    3.800500
     31          6           0       -2.706208    4.189829    4.175356
     32          6           0       -3.595465    3.607609    3.599684
     33          6           0       -4.686310    2.974177    2.974171
     34          6           0       -6.000328    3.315404    3.323249
     35          6           0       -7.052540    2.676883    2.691574
     36          6           0       -6.779793    1.717126    1.730571
     37          7           0       -5.523971    1.393626    1.399502
     38          6           0       -4.497776    1.994468    1.993984
     39          1           0       -6.178027    4.067455    4.075939
     40          1           0       -8.072737    2.920096    2.940923
     41          1           0       -7.579286    1.189644    1.208100
     42          1           0       -3.501789    1.691819    1.685514
     43          6           0       -2.038319   -4.939633    4.916932
     44          6           0       -3.187753   -4.677161    4.649432
     45          6           0       -4.510924   -4.338638    4.305621
     46          6           0       -5.591350   -4.954540    4.912060
     47          6           0       -6.903638   -4.612383    4.565089
     48          6           0       -7.157668   -3.657245    3.614531
     49          6           0       -6.083184   -3.005551    2.972658
     50          6           0       -6.276706   -2.016189    1.988727
     51          7           0       -5.277437   -1.408135    1.389711
     52          6           0       -3.994856   -1.723469    1.709579
     53          6           0       -3.699746   -2.668029    2.649664
     54          6           0       -4.743444   -3.343216    3.315232
     55          1           0       -5.418045   -5.709774    5.663676
     56          1           0       -7.721169   -5.114366    5.059490
     57          1           0       -8.171138   -3.398524    3.351969
     58          1           0       -7.282475   -1.728715    1.697716
     59          1           0       -3.218217   -1.176852    1.170480
     60          1           0       -2.679185   -2.911668    2.897249
     61          6           0       -0.692922   -5.237038    5.220923
     62          6           0       -0.382406   -6.199381    6.187092
     63          6           0        0.940147   -6.483630    6.478405
     64          6           0        1.963062   -5.823268    5.821348
     65          6           0        1.660742   -4.859271    4.853444
     66          6           0        0.331701   -4.567150    4.554096
     67          1           0       -1.177896   -6.716734    6.702029
     68          1           0        1.175177   -7.227415    7.225236
     69          1           0        2.993137   -6.048573    6.052221
     70          1           0        0.098837   -3.824106    3.807912
     71          6           0        2.704785   -4.186961    4.184814
     72          6           0        3.594510   -3.606653    3.607849
     73          6           0        4.685529   -2.975179    2.980668
     74          6           0        5.999457   -3.316345    3.330085
     75          6           0        7.051846   -2.679518    2.697034
     76          6           0        6.779462   -1.721348    1.734368
     77          7           0        5.523637   -1.397781    1.403094
     78          6           0        4.497328   -1.997070    1.998766
     79          1           0        6.176972   -4.067246    4.084042
     80          1           0        8.071948   -2.922840    2.946580
     81          1           0        7.579006   -1.195133    1.210951
     82          1           0        3.501342   -1.694677    1.689968
     83          6           0        2.042817   -4.956240   -4.907127
     84          6           0        3.192081   -4.691504   -4.641299
     85          6           0        4.514936   -4.349827   -4.299239
     86          6           0        5.595841   -4.967930   -4.902452
     87          6           0        6.907945   -4.622886   -4.557113
     88          6           0        7.160990   -3.662751   -3.611197
     89          6           0        6.085914   -3.008931   -2.972770
     90          6           0        6.278457   -2.014902   -1.993225
     91          7           0        5.278695   -1.404793   -1.397215
     92          6           0        3.996469   -1.722422   -1.716129
     93          6           0        3.702171   -2.671493   -2.651877
     94          6           0        4.746539   -3.349278   -3.313834
     95          1           0        5.423380   -5.727217   -5.650187
     96          1           0        7.725986   -5.126528   -5.048984
     97          1           0        8.174229   -3.401896   -3.349920
     98          1           0        7.284098   -1.725439   -1.703373
     99          1           0        3.219269   -1.173449   -1.179962
    100          1           0        2.681838   -2.917089   -2.898528
    101          6           0        0.697717   -5.256844   -5.209237
    102          6           0        0.388199   -6.226298   -6.168692
    103          6           0       -0.934151   -6.513744   -6.458069
    104          6           0       -1.957750   -5.849724   -5.805783
    105          6           0       -1.656263   -4.878673   -4.844632
    106          6           0       -0.327618   -4.583182   -4.547236
    107          1           0        1.184140   -6.746522   -6.679809
    108          1           0       -1.168466   -7.263028   -7.199694
    109          1           0       -2.987521   -6.077575   -6.035089
    110          1           0       -0.095492   -3.834572   -3.806381
    111          6           0       -2.701047   -4.202971   -4.180396
    112          6           0       -3.591208   -3.619867   -3.606806
    113          6           0       -4.682799   -2.986073   -2.983005
    114          6           0       -5.996322   -3.328597   -3.332389
    115          6           0       -7.049302   -2.690035   -2.702222
    116          6           0       -6.777787   -1.728806   -1.742272
    117          7           0       -5.522348   -1.403977   -1.411035
    118          6           0       -4.495387   -2.004895   -2.004087
    119          1           0       -6.173040   -4.081981   -4.084095
    120          1           0       -8.069207   -2.934195   -2.951922
    121          1           0       -7.577928   -1.201290   -1.220923
    122          1           0       -3.499791   -1.701124   -1.695659
    123          6           0       -2.041239    4.958474   -4.900996
    124          6           0       -3.190650    4.691847   -4.637127
    125          6           0       -4.513677    4.348741   -4.297230
    126          6           0       -5.594396    4.967125   -4.900397
    127          6           0       -6.906496    4.620809   -4.556914
    128          6           0       -7.159950    3.659056   -3.612868
    129          6           0       -6.085099    3.004760   -2.974300
    130          6           0       -6.277982    2.009442   -1.996244
    131          7           0       -5.278437    1.399147   -1.400028
    132          6           0       -3.996051    1.717748   -1.717568
    133          6           0       -3.701406    2.668278   -2.651827
    134          6           0       -4.745606    3.346417   -3.313636
    135          1           0       -5.421618    5.727689   -5.646745
    136          1           0       -7.724310    5.124782   -5.048754
    137          1           0       -8.173243    3.397116   -3.352876
    138          1           0       -7.283666    1.719015   -1.707587
    139          1           0       -3.219104    1.168414   -1.181508
    140          1           0       -2.680990    2.914710   -2.897219
    141          6           0       -0.696018    5.260582   -5.200608
    142          6           0       -0.385822    6.233437   -6.156319
    143          6           0        0.936712    6.522509   -6.443263
    144          6           0        1.959888    5.856454   -5.792288
    145          6           0        1.657811    4.882118   -4.834805
    146          6           0        0.328854    4.585145   -4.539825
    147          1           0       -1.181468    6.755261   -6.666501
    148          1           0        1.171519    7.274522   -7.182008
    149          1           0        2.989786    6.085607   -6.019794
    150          1           0        0.096286    3.833928   -3.801725
    151          6           0        2.702089    4.204200   -4.172218
    152          6           0        3.592147    3.619228   -3.600324
    153          6           0        4.683509    2.983200   -2.978308
    154          6           0        5.997142    3.324514   -3.328677
    155          6           0        7.049975    2.683673   -2.700358
    156          6           0        6.778203    1.721918   -1.741064
    157          7           0        5.522659    1.398311   -1.408989
    158          6           0        4.495890    2.001074   -2.000404
    159          1           0        6.174050    4.078427   -4.079749
    160          1           0        8.069893    2.926866   -2.950745
    161          1           0        7.578189    1.192853   -1.221087
    162          1           0        3.500198    1.698271   -1.691294
 ---------------------------------------------------------------------

 SCF Done:  E(RPBE1PBE) =  -4377.37353511     a.u. after   27 cycles
 SCF Done:  E(RPBE1PBE) =  -4377.37356100     A.U. after    9 cycles

 The electronic state is 1-A.
 Alpha  occ. eigenvalues --  -14.49111 -14.49111 -14.49108 -14.49108 -14.48648
 Alpha  occ. eigenvalues --  -14.48648 -14.48645 -14.48645 -10.32584 -10.32584
 Alpha  occ. eigenvalues --  -10.32582 -10.32582 -10.32562 -10.32561 -10.32561
 Alpha  occ. eigenvalues --  -10.32560 -10.32087 -10.32086 -10.32085 -10.32084
 Alpha  occ. eigenvalues --  -10.31234 -10.31233 -10.31231 -10.31231 -10.30898
 Alpha  occ. eigenvalues --  -10.30898 -10.30897 -10.30896 -10.29497 -10.29497
 Alpha  occ. eigenvalues --  -10.29496 -10.29496 -10.29393 -10.29393 -10.29393
 Alpha  occ. eigenvalues --  -10.29393 -10.29389 -10.29388 -10.29388 -10.29387
 Alpha  occ. eigenvalues --  -10.28943 -10.28942 -10.28942 -10.28941 -10.28577
 Alpha  occ. eigenvalues --  -10.28576 -10.28576 -10.28576 -10.28531 -10.28531
 Alpha  occ. eigenvalues --  -10.28530 -10.28530 -10.28280 -10.28280 -10.28279
 Alpha  occ. eigenvalues --  -10.28279 -10.27918 -10.27918 -10.27917 -10.27917
 Alpha  occ. eigenvalues --  -10.27617 -10.27617 -10.27616 -10.27615 -10.27424
 Alpha  occ. eigenvalues --  -10.27424 -10.27424 -10.27423 -10.27038 -10.27037
 Alpha  occ. eigenvalues --  -10.27037 -10.27037 -10.26943 -10.26942 -10.26941
 Alpha  occ. eigenvalues --  -10.26941 -10.26850 -10.26849 -10.26848 -10.26848
 Alpha  occ. eigenvalues --  -10.26554 -10.26554 -10.26553 -10.26553 -10.26525
 Alpha  occ. eigenvalues --  -10.26525 -10.26525 -10.26524 -10.26493 -10.26492
 Alpha  occ. eigenvalues --  -10.26491 -10.26490 -10.26348 -10.26348 -10.26347
 Alpha  occ. eigenvalues --  -10.26346 -10.26039 -10.26038 -10.26037 -10.26036
 Alpha  occ. eigenvalues --  -10.25925 -10.25924 -10.25924 -10.25923  -3.57622
 Alpha  occ. eigenvalues --   -3.57622  -2.25527  -2.25527  -2.25517  -2.25517
 Alpha  occ. eigenvalues --   -2.21371  -2.21371  -1.04375  -1.04375  -1.03834
 Alpha  occ. eigenvalues --   -1.03833  -1.03453  -1.03452  -1.03330  -1.03329
 Alpha  occ. eigenvalues --   -0.92896  -0.92894  -0.92838  -0.92838  -0.92023
 Alpha  occ. eigenvalues --   -0.92021  -0.92020  -0.92019  -0.88864  -0.88860
 Alpha  occ. eigenvalues --   -0.88706  -0.88705  -0.85684  -0.85680  -0.85680
 Alpha  occ. eigenvalues --   -0.85674  -0.84779  -0.84767  -0.84743  -0.84742
 Alpha  occ. eigenvalues --   -0.84210  -0.84197  -0.84138  -0.84137  -0.83461
 Alpha  occ. eigenvalues --   -0.83414  -0.83373  -0.83371  -0.81653  -0.81624
 Alpha  occ. eigenvalues --   -0.81623  -0.81580  -0.80566  -0.80563  -0.80563
 Alpha  occ. eigenvalues --   -0.80529  -0.77608  -0.77590  -0.77589  -0.77569
 Alpha  occ. eigenvalues --   -0.76120  -0.76104  -0.76103  -0.76078  -0.71689
 Alpha  occ. eigenvalues --   -0.71616  -0.71583  -0.71582  -0.71378  -0.71377
 Alpha  occ. eigenvalues --   -0.71369  -0.71302  -0.69680  -0.69678  -0.69332
 Alpha  occ. eigenvalues --   -0.69332  -0.69136  -0.69131  -0.69000  -0.68999
 Alpha  occ. eigenvalues --   -0.68290  -0.68289  -0.68287  -0.68278  -0.66513
 Alpha  occ. eigenvalues --   -0.66509  -0.66487  -0.66486  -0.65530  -0.65528
 Alpha  occ. eigenvalues --   -0.65523  -0.65522  -0.62095  -0.61931  -0.61285
 Alpha  occ. eigenvalues --   -0.61284  -0.60816  -0.60435  -0.60164  -0.60164
 Alpha  occ. eigenvalues --   -0.59304  -0.59005  -0.58898  -0.58898  -0.58519
 Alpha  occ. eigenvalues --   -0.58472  -0.58141  -0.58140  -0.56995  -0.56985
 Alpha  occ. eigenvalues --   -0.56612  -0.56611  -0.56511  -0.56496  -0.56225
 Alpha  occ. eigenvalues --   -0.56225  -0.54857  -0.54853  -0.54783  -0.54782
 Alpha  occ. eigenvalues --   -0.52918  -0.52916  -0.52475  -0.52475  -0.52092
 Alpha  occ. eigenvalues --   -0.52038  -0.51817  -0.51816  -0.51793  -0.51739
 Alpha  occ. eigenvalues --   -0.51738  -0.51725  -0.51470  -0.51469  -0.51207
 Alpha  occ. eigenvalues --   -0.51191  -0.51158  -0.51158  -0.51115  -0.51105
 Alpha  occ. eigenvalues --   -0.49895  -0.49770  -0.49769  -0.49685  -0.49675
 Alpha  occ. eigenvalues --   -0.49410  -0.49404  -0.49402  -0.49230  -0.49197
 Alpha  occ. eigenvalues --   -0.49042  -0.49036  -0.48899  -0.48895  -0.48691
 Alpha  occ. eigenvalues --   -0.48681  -0.48680  -0.48615  -0.48118  -0.48117
 Alpha  occ. eigenvalues --   -0.47257  -0.47244  -0.46968  -0.46968  -0.46620
 Alpha  occ. eigenvalues --   -0.46618  -0.46617  -0.46616  -0.45886  -0.45885
 Alpha  occ. eigenvalues --   -0.44630  -0.44629  -0.44197  -0.43958  -0.43955
 Alpha  occ. eigenvalues --   -0.43873  -0.43872  -0.43782  -0.43599  -0.43596
 Alpha  occ. eigenvalues --   -0.43485  -0.43467  -0.43466  -0.42862  -0.42643
 Alpha  occ. eigenvalues --   -0.42642  -0.42144  -0.42143  -0.41997  -0.41997
 Alpha  occ. eigenvalues --   -0.40363  -0.40358  -0.40323  -0.40322  -0.40279
 Alpha  occ. eigenvalues --   -0.40278  -0.40213  -0.39659  -0.39658  -0.39564
 Alpha  occ. eigenvalues --   -0.39563  -0.39550  -0.39541  -0.39487  -0.39426
 Alpha  occ. eigenvalues --   -0.39424  -0.39422  -0.39414  -0.38134  -0.37479
 Alpha  occ. eigenvalues --   -0.37476  -0.37122  -0.37101  -0.37099  -0.36398
 Alpha  occ. eigenvalues --   -0.36392  -0.36387  -0.36041  -0.34972  -0.34965
 Alpha  occ. eigenvalues --   -0.34619  -0.34287  -0.34282  -0.34145  -0.34144
 Alpha  occ. eigenvalues --   -0.34118  -0.33913  -0.33912  -0.33402  -0.32964
 Alpha  occ. eigenvalues --   -0.32436  -0.32431  -0.32032  -0.31990  -0.31913
 Alpha  occ. eigenvalues --   -0.31897  -0.31758  -0.31751  -0.31529  -0.31529
 Alpha  occ. eigenvalues --   -0.31179  -0.31157  -0.31104  -0.31101  -0.30951
 Alpha  occ. eigenvalues --   -0.30861  -0.29630  -0.29619  -0.29619  -0.29618
 Alpha  occ. eigenvalues --   -0.29079  -0.29072  -0.26587  -0.26526  -0.26525
 Alpha  occ. eigenvalues --   -0.26414  -0.24887  -0.24849  -0.24848  -0.24765
 Alpha virt. eigenvalues --   -0.10129  -0.10128  -0.10120  -0.09915  -0.09138
 Alpha virt. eigenvalues --   -0.09135  -0.09055  -0.08702  -0.07395  -0.07392
 Alpha virt. eigenvalues --   -0.07197  -0.07090  -0.06999  -0.06996  -0.06671

 Mulliken charges:
               1
     1  Pd   0.498061
     2  Pd   0.498044
     3  C    0.017490
     4  C   -0.067483
     5  C   -0.020505
     6  C    0.020572
     7  C   -0.001612
     8  C    0.021464
     9  C   -0.066655
    10  C    0.183660
    11  N   -0.322829
    12  C    0.146746
    13  C   -0.009472
    14  C    0.068441
    15  H    0.044238
    16  H    0.054881
    17  H    0.044392
    18  H    0.083914
    19  H    0.106025
    20  H    0.048791
    21  C   -0.067039
    22  C    0.022195
    23  C   -0.011690
    24  C    0.020446
    25  C   -0.068678
    26  C    0.017919
    27  H    0.038699
    28  H    0.048131
    29  H    0.038881
    30  H    0.034355
    31  C    0.020429
    32  C   -0.015453
    33  C   -0.124865
    34  C    0.104614
    35  C   -0.029106
    36  C    0.145949
    37  N   -0.314202
    38  C    0.195125
    39  H    0.064626
    40  H    0.071550
    41  H    0.121240
    42  H    0.085713
    43  C    0.017449
    44  C   -0.067459
    45  C   -0.020477
    46  C    0.020553
    47  C   -0.001612
    48  C    0.021473
    49  C   -0.066673
    50  C    0.183716
    51  N   -0.322873
    52  C    0.146865
    53  C   -0.009594
    54  C    0.068493
    55  H    0.044227
    56  H    0.054912
    57  H    0.044430
    58  H    0.083802
    59  H    0.106039
    60  H    0.048809
    61  C   -0.067031
    62  C    0.022226
    63  C   -0.011667
    64  C    0.020522
    65  C   -0.068798
    66  C    0.017981
    67  H    0.038664
    68  H    0.048128
    69  H    0.038848
    70  H    0.034296
    71  C    0.020412
    72  C   -0.015368
    73  C   -0.124934
    74  C    0.104581
    75  C   -0.029121
    76  C    0.146070
    77  N   -0.314170
    78  C    0.195150
    79  H    0.064653
    80  H    0.071534
    81  H    0.121187
    82  H    0.085710
    83  C    0.017431
    84  C   -0.067443
    85  C   -0.020460
    86  C    0.020488
    87  C   -0.001665
    88  C    0.021394
    89  C   -0.066660
    90  C    0.183668
    91  N   -0.322754
    92  C    0.146825
    93  C   -0.009543
    94  C    0.068499
    95  H    0.044247
    96  H    0.054920
    97  H    0.044429
    98  H    0.083792
    99  H    0.106143
   100  H    0.048804
   101  C   -0.067093
   102  C    0.022300
   103  C   -0.011704
   104  C    0.020603
   105  C   -0.068779
   106  C    0.017991
   107  H    0.038612
   108  H    0.048160
   109  H    0.038805
   110  H    0.034313
   111  C    0.020443
   112  C   -0.015479
   113  C   -0.124953
   114  C    0.104583
   115  C   -0.029154
   116  C    0.146056
   117  N   -0.314116
   118  C    0.195238
   119  H    0.064660
   120  H    0.071554
   121  H    0.121232
   122  H    0.085660
   123  C    0.017414
   124  C   -0.067391
   125  C   -0.020422
   126  C    0.020505
   127  C   -0.001595
   128  C    0.021476
   129  C   -0.066672
   130  C    0.183664
   131  N   -0.322829
   132  C    0.146794
   133  C   -0.009521
   134  C    0.068443
   135  H    0.044222
   136  H    0.054896
   137  H    0.044421
   138  H    0.083823
   139  H    0.106096
   140  H    0.048810
   141  C   -0.067046
   142  C    0.022204
   143  C   -0.011737
   144  C    0.020530
   145  C   -0.068775
   146  C    0.017973
   147  H    0.038676
   148  H    0.048178
   149  H    0.038813
   150  H    0.034319
   151  C    0.020402
   152  C   -0.015411
   153  C   -0.124954
   154  C    0.104602
   155  C   -0.029122
   156  C    0.146040
   157  N   -0.314120
   158  C    0.195221
   159  H    0.064654
   160  H    0.071530
   161  H    0.121215
   162  H    0.085672
 Sum of Mulliken charges =   4.00000

 Dipole moment (field-independent basis, Debye):
    X=              0.0004    Y=             -0.0138    Z=             -0.0235  Tot=              0.0272
 Quadrupole moment (field-independent basis, Debye-Ang):
   XX=            145.1021   YY=           -385.3427   ZZ=           -388.8697
   XY=              0.1637   XZ=              0.0401   YZ=              0.0010

 Normal termination of Gaussian 16 at Fri Feb 26 17:25:18 2021.
