 Gaussian 16, Revision C.01,
 Gaussian 16:  ES64L-G16RevC.01  3-Jul-2019

 ------------------------------------------------------------------
 # SP PBE1PBE/def2svp empiricaldispersion=GD3BJ scrf=(solvent=dmso)
 ------------------------------------------------------------------

 ---------
 cis_l2_ld
 ---------
 Symbolic Z-matrix:
 Charge =  4 Multiplicity = 1

                         Standard orientation:
 ---------------------------------------------------------------------
 Center     Atomic      Atomic             Coordinates (Angstroms)
 Number     Number       Type             X           Y           Z
 ---------------------------------------------------------------------
      1         46           0       -6.141697   -2.235201   -0.095800
      2         46           0        6.141403   -2.235203    0.096000
      3          6           0       -0.063898   -5.610002    4.841500
      4          6           0        1.136402   -5.095502    4.358500
      5          6           0        1.132803   -4.112702    3.358200
      6          6           0       -0.095197   -3.654902    2.867300
      7          6           0       -1.304997   -4.183902    3.331000
      8          6           0       -1.280598   -5.172302    4.323800
      9          6           0       -2.567097   -3.717601    2.723200
     10          6           0       -2.748697   -2.366201    2.399100
     11          6           0       -3.881097   -1.973201    1.709500
     12          7           0       -4.824097   -2.849601    1.330000
     13          6           0       -4.704297   -4.135701    1.687400
     14          6           0       -3.602398   -4.601201    2.390300
     15          6           0        2.386303   -3.600302    2.769500
     16          6           0        2.489503   -2.283302    2.298400
     17          6           0        3.634103   -1.875903    1.634700
     18          7           0        4.668803   -2.703103    1.427500
     19          6           0        4.619203   -3.946903    1.926700
     20          6           0        3.507602   -4.424702    2.601600
     21          1           0       -0.050698   -6.364202    5.630700
     22          1           0        2.081702   -5.451402    4.773300
     23          1           0       -0.111097   -2.922502    2.057500
     24          1           0       -2.215698   -5.586702    4.706600
     25          1           0       -2.007197   -1.614802    2.672500
     26          1           0       -4.032097   -0.929201    1.427300
     27          1           0       -5.498798   -4.812601    1.367800
     28          1           0       -3.532698   -5.665301    2.619400
     29          1           0        1.678503   -1.567202    2.434800
     30          1           0        3.719003   -0.861903    1.239300
     31          1           0        5.488202   -4.583703    1.747500
     32          1           0        3.507002   -5.460002    2.944000
     33          6           0        0.063602   -5.610702   -4.840900
     34          6           0        1.280302   -5.172902   -4.323300
     35          6           0        1.304803   -4.184302   -3.330700
     36          6           0        0.095003   -3.655302   -2.867100
     37          6           0       -1.133097   -4.113202   -3.357900
     38          6           0       -1.136698   -5.096202   -4.358000
     39          6           0       -2.386497   -3.600701   -2.769200
     40          6           0       -2.489697   -2.283701   -2.298200
     41          6           0       -3.634297   -1.876201   -1.634400
     42          7           0       -4.668997   -2.703301   -1.427200
     43          6           0       -4.619497   -3.947201   -1.926400
     44          6           0       -3.507898   -4.425101   -2.601200
     45          6           0        2.566903   -3.717902   -2.722900
     46          6           0        3.602302   -4.601403   -2.390000
     47          6           0        4.704103   -4.135803   -1.687100
     48          7           0        4.823803   -2.849703   -1.329700
     49          6           0        3.880703   -1.973503   -1.709300
     50          6           0        2.748403   -2.366502   -2.398900
     51          1           0        0.050402   -6.365102   -5.630000
     52          1           0        2.215502   -5.587402   -4.706100
     53          1           0        0.110903   -2.922802   -2.057400
     54          1           0       -2.081898   -5.452202   -4.772700
     55          1           0       -1.678697   -1.567702   -2.434500
     56          1           0       -3.719097   -0.862201   -1.239100
     57          1           0       -5.488398   -4.584001   -1.747100
     58          1           0       -3.507298   -5.460401   -2.943500
     59          1           0        3.532702   -5.665602   -2.619100
     60          1           0        5.498602   -4.812703   -1.367600
     61          1           0        4.031703   -0.929403   -1.427100
     62          1           0        2.006803   -1.615202   -2.672300
     63          6           0        9.684103   -2.404804   -2.245100
     64          6           0        9.836903   -1.094404   -2.763600
     65          6           0        8.818103   -0.139803   -2.466700
     66          6           0        8.917903    1.200697   -2.959600
     67          6           0       10.001303    1.526496   -3.751800
     68          6           0       11.007103    0.579096   -4.048000
     69          6           0       10.938703   -0.706204   -3.561800
     70          6           0        7.853404    2.184997   -2.660300
     71          6           0        7.140704    2.781597   -3.709200
     72          6           0        6.051804    3.603497   -3.449700
     73          6           0        5.646404    3.850397   -2.125700
     74          6           0        4.432904    4.557697   -1.877100
     75          6           0        3.336804    5.076598   -1.740100
     76          6           0        1.993204    5.498698   -1.667200
     77          6           0        1.439104    6.765398   -1.592300
     78          6           0        0.028504    6.754198   -1.628000
     79          6           0       -0.502096    5.478398   -1.731200
     80          6           0       -1.832596    5.044698   -1.864700
     81          6           0       -2.933496    4.550399   -2.049600
     82          6           0       -4.148896    3.877699   -2.347000
     83          6           0       -4.092196    2.535599   -2.772300
     84          6           0       -5.252096    1.849399   -3.094800
     85          6           0       -6.511596    2.463799   -2.987400
     86          6           0       -7.742196    1.729899   -3.351400
     87          6           0       -7.985497    0.392799   -2.894900
     88          6           0       -9.119897   -0.334200   -3.369300
     89          6           0       -9.282397   -1.670700   -2.926000
     90          6           0       -8.390897   -2.215900   -2.041800
     91          7           0       -7.355997   -1.487801   -1.541000
     92          6           0       -7.163797   -0.242901   -1.939700
     93          6           0      -10.034597    0.296600   -4.244600
     94          6           0       -9.821596    1.602100   -4.623100
     95          6           0       -8.680496    2.309300   -4.187100
     96          6           0       -6.563596    3.805199   -2.577000
     97          6           0       -5.404896    4.505699   -2.262500
     98         16           0        0.757704    4.285098   -1.765700
     99          6           0        6.403404    3.309997   -1.071900
    100          6           0        7.493304    2.491997   -1.338800
    101          6           0        7.715103   -0.577803   -1.703400
    102          7           0        7.616803   -1.804003   -1.225000
    103          6           0        8.589003   -2.721403   -1.486600
    104          1           0       10.439803   -3.165604   -2.446400
    105          1           0       10.091304    2.542696   -4.141500
    106          1           0       11.853903    0.881796   -4.667900
    107          1           0       11.719903   -1.435004   -3.786300
    108          1           0        7.417204    2.559497   -4.742300
    109          1           0        5.479904    4.030997   -4.275200
    110          1           0        2.045405    7.668498   -1.524400
    111          1           0       -0.595395    7.646798   -1.588700
    112          1           0       -3.122496    2.043499   -2.866000
    113          1           0       -5.174897    0.825099   -3.466000
    114          1           0      -10.121697   -2.268600   -3.284500
    115          1           0       -8.480997   -3.243300   -1.687600
    116          1           0       -6.340197    0.302899   -1.476000
    117          1           0      -10.900897   -0.260500   -4.606000
    118          1           0      -10.527996    2.097500   -5.292600
    119          1           0       -8.513696    3.324700   -4.552500
    120          1           0       -7.531696    4.301799   -2.481700
    121          1           0       -5.466796    5.544999   -1.935100
    122          1           0        6.116504    3.516797   -0.040500
    123          1           0        8.065904    2.074497   -0.506800
    124          1           0        6.895903    0.106597   -1.479500
    125          1           0        8.444403   -3.717503   -1.064900
    126          6           0        9.282203   -1.670503    2.925900
    127          6           0        9.119903   -0.333903    3.369100
    128          6           0        7.985403    0.393097    2.894700
    129          6           0        7.742304    1.730297    3.351100
    130          6           0        8.680704    2.309697    4.186700
    131          6           0        9.821804    1.602396    4.622700
    132          6           0       10.034603    0.296896    4.244300
    133          6           0        6.511704    2.464297    2.987100
    134          6           0        6.563804    3.805597    2.576500
    135          6           0        5.405104    4.506197    2.262100
    136          6           0        4.149104    3.878197    2.346800
    137          6           0        2.933804    4.550998    2.049400
    138          6           0        1.832804    5.045198    1.864200
    139          6           0        0.502304    5.478898    1.730700
    140          6           0       -0.028196    6.754598    1.626400
    141          6           0       -1.438796    6.765898    1.590700
    142          6           0       -1.992996    5.499298    1.666600
    143          6           0       -3.336596    5.077199    1.739500
    144          6           0       -4.432596    4.558399    1.876700
    145          6           0       -5.646196    3.850899    2.125400
    146          6           0       -6.403396    3.310799    1.071700
    147          6           0       -7.493196    2.492799    1.338700
    148          6           0       -7.853096    2.185499    2.660300
    149          6           0       -8.917497    1.201300    2.959700
    150          6           0       -8.817897   -0.139200    2.466800
    151          6           0       -9.836797   -1.093700    2.763900
    152          6           0       -9.684097   -2.404100    2.245400
    153          6           0       -8.589197   -2.720900    1.486800
    154          7           0       -7.616897   -1.803601    1.225100
    155          6           0       -7.715197   -0.577301    1.703300
    156          6           0      -10.938397   -0.705400    3.562300
    157          6           0      -11.006697    0.579900    4.048500
    158          6           0      -10.000797    1.527200    3.752100
    159          6           0       -7.140096    2.781999    3.709100
    160          6           0       -6.051196    3.603899    3.449400
    161         16           0       -0.757496    4.285698    1.766100
    162          6           0        4.092304    2.536197    2.772200
    163          6           0        5.252204    1.849897    3.094700
    164          6           0        7.163703   -0.242603    1.939600
    165          7           0        7.355703   -1.487703    1.541000
    166          6           0        8.390703   -2.215703    2.041800
    167          1           0       10.121503   -2.268404    3.284400
    168          1           0        8.514004    3.325097    4.551900
    169          1           0       10.528204    2.097796    5.292100
    170          1           0       10.900903   -0.260304    4.605800
    171          1           0        7.532004    4.302097    2.481000
    172          1           0        5.467104    5.545397    1.934600
    173          1           0        0.595705    7.647198    1.586400
    174          1           0       -2.045095    7.668998    1.522100
    175          1           0       -6.116696    3.517799    0.040300
    176          1           0       -8.066096    2.075399    0.506800
    177          1           0      -10.439897   -3.164900    2.446900
    178          1           0       -8.444797   -3.717000    1.065200
    179          1           0       -6.895897    0.106999    1.479200
    180          1           0      -11.719597   -1.434200    3.786900
    181          1           0      -11.853297    0.882700    4.668500
    182          1           0      -10.090696    2.543400    4.141800
    183          1           0       -7.416296    2.559699    4.742200
    184          1           0       -5.479096    4.031199    4.274900
    185          1           0        3.122604    2.044298    2.866100
    186          1           0        5.175003    0.825797    3.466100
    187          1           0        6.340003    0.303097    1.476000
    188          1           0        8.480703   -3.243103    1.687600
 ---------------------------------------------------------------------

 SCF Done:  E(RPBE1PBE) =  -5637.22909453     A.U. after   18 cycles

 The electronic state is 1-A.
 Alpha  occ. eigenvalues --  -89.05627 -89.05624 -14.48331 -14.48331 -14.48310
 Alpha  occ. eigenvalues --  -14.48310 -14.48274 -14.48273 -14.48229 -14.48228
 Alpha  occ. eigenvalues --  -10.32273 -10.32273 -10.32106 -10.32106 -10.31965
 Alpha  occ. eigenvalues --  -10.31965 -10.31900 -10.31898 -10.31891 -10.31890
 Alpha  occ. eigenvalues --  -10.31887 -10.31887 -10.30869 -10.30869 -10.30866
 Alpha  occ. eigenvalues --  -10.30865 -10.30430 -10.30430 -10.30357 -10.30357
 Alpha  occ. eigenvalues --  -10.30284 -10.30283 -10.30203 -10.30199 -10.29039
 Alpha  occ. eigenvalues --  -10.29038 -10.28995 -10.28995 -10.28948 -10.28947
 Alpha  occ. eigenvalues --  -10.28820 -10.28820 -10.28743 -10.28742 -10.28613
 Alpha  occ. eigenvalues --  -10.28612 -10.28486 -10.28485 -10.28470 -10.28469
 Alpha  occ. eigenvalues --  -10.28306 -10.28306 -10.28302 -10.28301 -10.28277
 Alpha  occ. eigenvalues --  -10.28277 -10.28234 -10.28233 -10.28157 -10.28156
 Alpha  occ. eigenvalues --  -10.28123 -10.28123 -10.27805 -10.27804 -10.27796
 Alpha  occ. eigenvalues --  -10.27796 -10.27728 -10.27728 -10.27581 -10.27581
 Alpha  occ. eigenvalues --  -10.27374 -10.27373 -10.27111 -10.27111 -10.27106
 Alpha  occ. eigenvalues --  -10.27105 -10.27023 -10.27021 -10.27006 -10.27005
 Alpha  occ. eigenvalues --  -10.26914 -10.26914 -10.26873 -10.26871 -10.26758
 Alpha  occ. eigenvalues --  -10.26758 -10.26741 -10.26741 -10.26650 -10.26649
 Alpha  occ. eigenvalues --  -10.26628 -10.26628 -10.26608 -10.26606 -10.26546
 Alpha  occ. eigenvalues --  -10.26546 -10.26513 -10.26513 -10.26494 -10.26494
 Alpha  occ. eigenvalues --  -10.26487 -10.26484 -10.26474 -10.26474 -10.26467
 Alpha  occ. eigenvalues --  -10.26456 -10.26400 -10.26400 -10.26371 -10.26369
 Alpha  occ. eigenvalues --  -10.26340 -10.26339 -10.26259 -10.26256 -10.26245
 Alpha  occ. eigenvalues --  -10.26245 -10.26234 -10.26232  -8.05727  -8.05725
 Alpha  occ. eigenvalues --   -5.99874  -5.99872  -5.99479  -5.99479  -5.99148
 Alpha  occ. eigenvalues --   -5.99146  -3.56813  -3.56813  -2.24789  -2.24789
 Alpha  occ. eigenvalues --   -2.24484  -2.24483  -2.20510  -2.20509  -1.03332
 Alpha  occ. eigenvalues --   -1.03329  -1.02746  -1.02745  -1.02620  -1.02615
 Alpha  occ. eigenvalues --   -1.02415  -1.02414  -0.93692  -0.93316  -0.92562
 Alpha  occ. eigenvalues --   -0.92560  -0.92482  -0.92470  -0.92466  -0.92449
 Alpha  occ. eigenvalues --   -0.90534  -0.90524  -0.90391  -0.90382  -0.88898
 Alpha  occ. eigenvalues --   -0.88778  -0.86368  -0.86238  -0.85590  -0.85535
 Alpha  occ. eigenvalues --   -0.85459  -0.85414  -0.83549  -0.83400  -0.82845
 Alpha  occ. eigenvalues --   -0.82809  -0.82785  -0.82704  -0.82575  -0.82538
 Alpha  occ. eigenvalues --   -0.82414  -0.82297  -0.82138  -0.81989  -0.81415
 Alpha  occ. eigenvalues --   -0.81273  -0.79621  -0.79549  -0.79467  -0.79458
 Alpha  occ. eigenvalues --   -0.79430  -0.79387  -0.78972  -0.78952  -0.78738
 Alpha  occ. eigenvalues --   -0.78713  -0.78111  -0.78059  -0.77995  -0.77697
 Alpha  occ. eigenvalues --   -0.76012  -0.75939  -0.73751  -0.73739  -0.70746
 Alpha  occ. eigenvalues --   -0.70707  -0.70645  -0.70539  -0.70535  -0.70400
 Alpha  occ. eigenvalues --   -0.70321  -0.70317  -0.69313  -0.69235  -0.69104
 Alpha  occ. eigenvalues --   -0.69056  -0.69037  -0.68881  -0.68749  -0.68629
 Alpha  occ. eigenvalues --   -0.68091  -0.68036  -0.67456  -0.67412  -0.64947
 Alpha  occ. eigenvalues --   -0.64925  -0.64604  -0.64554  -0.64362  -0.64310
 Alpha  occ. eigenvalues --   -0.64221  -0.64145  -0.63358  -0.63253  -0.63160
 Alpha  occ. eigenvalues --   -0.63080  -0.62530  -0.62359  -0.61098  -0.61023
 Alpha  occ. eigenvalues --   -0.60374  -0.59853  -0.58499  -0.58198  -0.58076
 Alpha  occ. eigenvalues --   -0.58032  -0.57935  -0.57533  -0.57442  -0.57249
 Alpha  occ. eigenvalues --   -0.57111  -0.57061  -0.56891  -0.56742  -0.56619
 Alpha  occ. eigenvalues --   -0.56579  -0.56079  -0.56005  -0.55860  -0.55833
 Alpha  occ. eigenvalues --   -0.55600  -0.55573  -0.55443  -0.55346  -0.54987
 Alpha  occ. eigenvalues --   -0.54851  -0.54285  -0.54097  -0.52332  -0.52122
 Alpha  occ. eigenvalues --   -0.51760  -0.51678  -0.51506  -0.51445  -0.51342
 Alpha  occ. eigenvalues --   -0.51026  -0.50969  -0.50870  -0.50660  -0.50636
 Alpha  occ. eigenvalues --   -0.50585  -0.50555  -0.50122  -0.50093  -0.49997
 Alpha  occ. eigenvalues --   -0.49961  -0.49837  -0.49742  -0.49602  -0.49410
 Alpha  occ. eigenvalues --   -0.49313  -0.49231  -0.49174  -0.48987  -0.48717
 Alpha  occ. eigenvalues --   -0.48672  -0.48648  -0.48532  -0.48349  -0.48265
 Alpha  occ. eigenvalues --   -0.48190  -0.47993  -0.47806  -0.47746  -0.47623
 Alpha  occ. eigenvalues --   -0.47592  -0.47320  -0.47071  -0.46912  -0.46876
 Alpha  occ. eigenvalues --   -0.46698  -0.46596  -0.46578  -0.46518  -0.46429
 Alpha  occ. eigenvalues --   -0.46365  -0.46031  -0.45823  -0.45771  -0.45746
 Alpha  occ. eigenvalues --   -0.45551  -0.45548  -0.45528  -0.45410  -0.45109
 Alpha  occ. eigenvalues --   -0.44605  -0.44507  -0.44279  -0.44238  -0.43545
 Alpha  occ. eigenvalues --   -0.43453  -0.43162  -0.43085  -0.43085  -0.43037
 Alpha  occ. eigenvalues --   -0.42855  -0.42728  -0.42535  -0.42490  -0.42259
 Alpha  occ. eigenvalues --   -0.42135  -0.42094  -0.42065  -0.41947  -0.41860
 Alpha  occ. eigenvalues --   -0.41819  -0.41793  -0.41738  -0.41629  -0.41494
 Alpha  occ. eigenvalues --   -0.41390  -0.41291  -0.40754  -0.40670  -0.40212
 Alpha  occ. eigenvalues --   -0.40198  -0.39975  -0.39945  -0.39117  -0.39091
 Alpha  occ. eigenvalues --   -0.38708  -0.38524  -0.38474  -0.38405  -0.38235
 Alpha  occ. eigenvalues --   -0.38203  -0.38199  -0.38151  -0.38010  -0.37844
 Alpha  occ. eigenvalues --   -0.37773  -0.37655  -0.37652  -0.37302  -0.37225
 Alpha  occ. eigenvalues --   -0.36484  -0.36248  -0.36212  -0.36114  -0.36044
 Alpha  occ. eigenvalues --   -0.35727  -0.34946  -0.34930  -0.34795  -0.34729
 Alpha  occ. eigenvalues --   -0.34321  -0.34025  -0.33774  -0.33729  -0.33704
 Alpha  occ. eigenvalues --   -0.33491  -0.33437  -0.33277  -0.33270  -0.33113
 Alpha  occ. eigenvalues --   -0.32588  -0.32240  -0.32234  -0.31348  -0.31319
 Alpha  occ. eigenvalues --   -0.30983  -0.30975  -0.30814  -0.30770  -0.30684
 Alpha  occ. eigenvalues --   -0.30657  -0.30082  -0.29624  -0.29506  -0.29404
 Alpha  occ. eigenvalues --   -0.29198  -0.29130  -0.29077  -0.29035  -0.28815
 Alpha  occ. eigenvalues --   -0.28633  -0.28613  -0.28291  -0.28257  -0.27893
 Alpha  occ. eigenvalues --   -0.27870  -0.27491  -0.26620  -0.26265  -0.25649
 Alpha  occ. eigenvalues --   -0.25643  -0.23294  -0.22753
 Alpha virt. eigenvalues --   -0.09879  -0.09792  -0.09380  -0.09262  -0.09124
 Alpha virt. eigenvalues --   -0.09110  -0.08851  -0.08813  -0.08026  -0.07717
 Alpha virt. eigenvalues --   -0.07552  -0.07051  -0.06385  -0.06376  -0.06152

 Mulliken charges:
               1
     1  Pd   0.499014
     2  Pd   0.499035
     3  C   -0.022137
     4  C   -0.016576
     5  C    0.020649
     6  C   -0.034273
     7  C    0.008088
     8  C   -0.006803
     9  C    0.053011
    10  C   -0.043187
    11  C    0.143035
    12  N   -0.319187
    13  C    0.152178
    14  C   -0.036180
    15  C    0.065486
    16  C   -0.054107
    17  C    0.150796
    18  N   -0.318873
    19  C    0.150528
    20  C   -0.043131
    21  H    0.054695
    22  H    0.050823
    23  H    0.047040
    24  H    0.050112
    25  H    0.067219
    26  H    0.107317
    27  H    0.105875
    28  H    0.067919
    29  H    0.067655
    30  H    0.094658
    31  H    0.110590
    32  H    0.067756
    33  C   -0.022167
    34  C   -0.006883
    35  C    0.008123
    36  C   -0.034296
    37  C    0.020638
    38  C   -0.016519
    39  C    0.065485
    40  C   -0.054103
    41  C    0.150824
    42  N   -0.318880
    43  C    0.150577
    44  C   -0.043110
    45  C    0.053004
    46  C   -0.036227
    47  C    0.152189
    48  N   -0.319175
    49  C    0.142973
    50  C   -0.043147
    51  H    0.054726
    52  H    0.050173
    53  H    0.047039
    54  H    0.050774
    55  H    0.067601
    56  H    0.094639
    57  H    0.110548
    58  H    0.067738
    59  H    0.067967
    60  H    0.105847
    61  H    0.107352
    62  H    0.067219
    63  C   -0.033003
    64  C    0.032260
    65  C   -0.016701
    66  C    0.038408
    67  C   -0.025086
    68  C    0.003843
    69  C   -0.005411
    70  C   -0.053175
    71  C    0.001784
    72  C    0.004117
    73  C   -0.071572
    74  C   -0.028964
    75  C    0.027290
    76  C   -0.193613
    77  C    0.023594
    78  C    0.063106
    79  C   -0.217093
    80  C    0.022095
    81  C   -0.001054
    82  C   -0.079972
    83  C    0.003719
    84  C   -0.045449
    85  C   -0.027587
    86  C    0.060576
    87  C   -0.018520
    88  C    0.023856
    89  C   -0.031084
    90  C    0.140218
    91  N   -0.316659
    92  C    0.131025
    93  C   -0.004789
    94  C    0.005042
    95  C   -0.031398
    96  C   -0.032803
    97  C   -0.003454
    98  S    0.187111
    99  C    0.011865
   100  C   -0.043382
   101  C    0.151917
   102  N   -0.315944
   103  C    0.133843
   104  H    0.060049
   105  H    0.046332
   106  H    0.060375
   107  H    0.046906
   108  H    0.043009
   109  H    0.042026
   110  H    0.048707
   111  H    0.048792
   112  H    0.039218
   113  H    0.055038
   114  H    0.060039
   115  H    0.094881
   116  H    0.105381
   117  H    0.047154
   118  H    0.060085
   119  H    0.048328
   120  H    0.046093
   121  H    0.044224
   122  H    0.038689
   123  H    0.047929
   124  H    0.108770
   125  H    0.099053
   126  C   -0.031052
   127  C    0.023864
   128  C   -0.018492
   129  C    0.060564
   130  C   -0.031358
   131  C    0.005093
   132  C   -0.004838
   133  C   -0.027586
   134  C   -0.032851
   135  C   -0.003421
   136  C   -0.079959
   137  C   -0.001033
   138  C    0.022082
   139  C   -0.217088
   140  C    0.063081
   141  C    0.023584
   142  C   -0.193621
   143  C    0.027232
   144  C   -0.028950
   145  C   -0.071462
   146  C    0.011917
   147  C   -0.043330
   148  C   -0.053293
   149  C    0.038399
   150  C   -0.016645
   151  C    0.032293
   152  C   -0.033082
   153  C    0.133923
   154  N   -0.315990
   155  C    0.151850
   156  C   -0.005414
   157  C    0.003895
   158  C   -0.025079
   159  C    0.001793
   160  C    0.004070
   161  S    0.187080
   162  C    0.003749
   163  C   -0.045362
   164  C    0.131038
   165  N   -0.316767
   166  C    0.140250
   167  H    0.060033
   168  H    0.048283
   169  H    0.060060
   170  H    0.047196
   171  H    0.046128
   172  H    0.044198
   173  H    0.048798
   174  H    0.048728
   175  H    0.038645
   176  H    0.047941
   177  H    0.060101
   178  H    0.099022
   179  H    0.108775
   180  H    0.046915
   181  H    0.060350
   182  H    0.046337
   183  H    0.042988
   184  H    0.042045
   185  H    0.039180
   186  H    0.054982
   187  H    0.105354
   188  H    0.094874
 Sum of Mulliken charges =   4.00000

 Dipole moment (field-independent basis, Debye):
    X=             -0.0014    Y=            -37.5262    Z=              0.0019  Tot=             37.5262
 Quadrupole moment (field-independent basis, Debye-Ang):
   XX=            265.8869   YY=           -455.8565   ZZ=           -557.6440
   XY=              0.0015   XZ=             13.6796   YZ=             -0.0113

 Normal termination of Gaussian 16 at Fri Jun  2 06:29:56 2023.
