 Gaussian 16, Revision C.01,
 Gaussian 16:  ES64L-G16RevC.01  3-Jul-2019

 --------------------------------------------------
 # OPT=restart HSEH1PBE/def2svp scrf=(solvent=dmso)
 --------------------------------------------------

 SCF Done:  E(RHSEH1PBE) =  -5637.14792418     A.U. after   10 cycles
 SCF Done:  E(RHSEH1PBE) =  -5637.14790570     A.U. after   10 cycles
 SCF Done:  E(RHSEH1PBE) =  -5637.14791196     A.U. after   10 cycles
 SCF Done:  E(RHSEH1PBE) =  -5637.14791767     A.U. after   11 cycles
 SCF Done:  E(RHSEH1PBE) =  -5637.14791760     A.U. after    9 cycles
 SCF Done:  E(RHSEH1PBE) =  -5637.14791776     A.U. after    9 cycles
 Optimization completed.
    -- Stationary point found.

                         Standard orientation:
 ---------------------------------------------------------------------
 Center     Atomic      Atomic             Coordinates (Angstroms)
 Number     Number       Type             X           Y           Z
 ---------------------------------------------------------------------
      1         46           0        7.230671   -1.559676    0.364456
      2         46           0       -7.228454   -1.560582    0.364820
      3          6           0        4.863961   -2.130961   -1.302290
      4          7           0        5.971548   -2.685014   -0.786344
      5          6           0        6.185042   -3.997806   -0.964062
      6          6           0        5.281322   -4.806723   -1.635400
      7          6           0        4.094361   -4.258941   -2.145727
      8          6           0        3.053833   -5.088619   -2.782615
      9          6           0        3.389020   -6.233556   -3.539966
     10          6           0        2.417912   -7.042501   -4.123146
     11          6           0        1.092279   -6.683815   -3.914033
     12          8           0        0.000650   -7.355946   -4.370146
     13          6           0       -1.091662   -6.684439   -3.914698
     14          6           0       -2.416962   -7.044085   -4.124316
     15          6           0       -3.388910   -6.235601   -3.541860
     16          6           0       -3.054784   -5.089892   -2.785264
     17          6           0       -4.095838   -4.260371   -2.149068
     18          6           0       -3.920287   -2.876590   -1.989268
     19          6           0       -4.866945   -2.131776   -1.308907
     20          7           0       -5.972326   -2.686442   -0.788883
     21          6           0       -6.184432   -3.999870   -0.963609
     22          6           0       -5.281045   -4.808821   -1.635436
     23          6           0       -1.708856   -4.746530   -2.603387
     24          6           0       -0.723250   -5.553816   -3.163980
     25          6           0        0.722788   -5.553538   -3.163309
     26          6           0        1.707572   -4.746278   -2.601214
     27          6           0        3.916975   -2.875808   -1.982232
     28          1           0        4.731614   -1.056559   -1.160045
     29          1           0        7.099478   -4.411332   -0.533945
     30          1           0        5.493631   -5.873461   -1.716350
     31          1           0        4.440238   -6.485334   -3.694864
     32          1           0        2.684037   -7.919100   -4.714967
     33          1           0       -2.682203   -7.921089   -4.715935
     34          1           0       -4.439917   -6.488229   -3.696877
     35          1           0       -3.048175   -2.365807   -2.398480
     36          1           0       -4.736417   -1.056762   -1.169496
     37          1           0       -7.097341   -4.413831   -0.530656
     38          1           0       -5.491970   -5.876026   -1.713924
     39          1           0       -1.431686   -3.881249   -1.998585
     40          1           0        1.429470   -3.882059   -1.995318
     41          1           0        3.043143   -2.365419   -2.388239
     42          6           0        4.887225   -1.134529    2.106947
     43          7           0        5.982816   -1.892268    1.947428
     44          6           0        6.184071   -2.928762    2.775416
     45          6           0        5.278872   -3.262798    3.770616
     46          6           0        4.102205   -2.514294    3.927386
     47          6           0        3.058278   -2.887484    4.900877
     48          6           0        3.391515   -3.474622    6.142150
     49          6           0        2.418940   -3.862063    7.059149
     50          6           0        1.094256   -3.661533    6.692590
     51          8           0        0.002244   -3.999528    7.430286
     52          6           0       -1.089306   -3.661564    6.691903
     53          6           0       -2.414200   -3.861888    7.057761
     54          6           0       -3.386189   -3.474569    6.140113
     55          6           0       -3.052266   -2.888127    4.898667
     56          6           0       -4.095984   -2.515482    3.924712
     57          6           0       -3.931658   -1.412439    3.071576
     58          6           0       -4.881097   -1.137364    2.102939
     59          7           0       -5.977713   -1.894160    1.945458
     60          6           0       -6.179105   -2.929449    2.774852
     61          6           0       -5.273365   -3.263164    3.769608
     62          6           0       -1.706584   -2.686470    4.564966
     63          6           0       -0.720377   -3.083825    5.463792
     64          6           0        0.726043   -3.083661    5.464338
     65          6           0        1.712812   -2.685545    4.566496
     66          6           0        3.938350   -1.409903    3.075987
     67          1           0        4.765814   -0.284336    1.432118
     68          1           0        7.088405   -3.519029    2.614750
     69          1           0        5.480013   -4.138617    4.388828
     70          1           0        4.442434   -3.612024    6.405078
     71          1           0        2.682894   -4.305647    8.019915
     72          1           0       -2.678756   -4.305235    8.018472
     73          1           0       -4.437243   -3.611663    6.402630
     74          1           0       -3.065370   -0.755629    3.157246
     75          1           0       -4.759462   -0.288238    1.426806
     76          1           0       -7.084165   -3.519053    2.615798
     77          1           0       -5.474840   -4.138103    4.388939
     78          1           0       -1.430568   -2.261664    3.598082
     79          1           0        1.437420   -2.259340    3.600050
     80          1           0        3.072757   -0.752391    3.163237
     81          6           0       10.425198   -0.187835    2.848748
     82          6           0        9.574099   -0.944643    2.088635
     83          7           0        8.445099   -0.414396    1.541700
     84          6           0        8.121034    0.844131    1.783929
     85          6           0        8.898238    1.695311    2.600156
     86          6           0        8.521700    3.050303    2.877541
     87          6           0        7.208692    3.609286    2.477319
     88          6           0        7.134044    4.841377    1.807823
     89          6           0        5.907304    5.416420    1.502209
     90          6           0        4.706735    4.775035    1.863679
     91          6           0        3.449232    5.388322    1.594715
     92          6           0        2.378223    5.934240    1.391800
     93          6           0        1.153306    6.644257    1.171776
     94          7           0        0.004249    5.981796    1.356989
     95          6           0       -1.145799    6.643066    1.173702
     96          6           0       -2.369665    5.931848    1.395722
     97          6           0       -3.440080    5.385106    1.599577
     98          6           0       -4.697384    4.771743    1.869332
     99          6           0       -5.898194    5.414279    1.510775
    100          6           0       -7.124718    4.839314    1.817347
    101          6           0       -7.198947    3.606140    2.484878
    102          6           0       -8.511630    3.047441    2.886516
    103          6           0       -9.403750    3.836495    3.592279
    104          6           0      -10.629723    3.325760    4.072062
    105          6           0      -10.978310    2.011166    3.864437
    106          6           0      -10.115702    1.169292    3.123480
    107          6           0      -10.417365   -0.189335    2.856320
    108          6           0       -9.568061   -0.945587    2.093674
    109          7           0       -8.439713   -0.415309    1.545358
    110          6           0       -8.114370    0.842633    1.788882
    111          6           0       -8.889593    1.693101    2.607779
    112          6           0       -5.998580    2.961624    2.831032
    113          6           0       -4.767934    3.530472    2.529443
    114          6           0       -1.195104    7.997952    0.794595
    115          6           0        0.002240    8.677640    0.605806
    116          6           0        1.200598    7.999205    0.792637
    117          6           0        4.777713    3.534965    2.525948
    118          6           0        6.008541    2.966097    2.826641
    119          6           0        9.415571    3.839741    3.580665
    120          6           0       10.641991    3.328834    4.059147
    121          6           0       10.989305    2.013695    3.852816
    122          6           0       10.124860    1.171372    3.114509
    123          1           0       11.336843   -0.636050    3.247202
    124          1           0        9.768411   -1.998382    1.883510
    125          1           0        7.219284    1.224774    1.301125
    126          1           0        8.054320    5.353891    1.518410
    127          1           0        5.868932    6.376238    0.983694
    128          1           0       -5.860170    6.374927    0.993775
    129          1           0       -8.045199    5.352801    1.530315
    130          1           0       -9.135609    4.870870    3.818224
    131          1           0      -11.294035    3.984522    4.635547
    132          1           0      -11.913043    1.607044    4.258199
    133          1           0      -11.328549   -0.637585    3.255794
    134          1           0       -9.763254   -1.998981    1.887645
    135          1           0       -7.213400    1.223752    1.304997
    136          1           0       -6.026197    2.017988    3.381073
    137          1           0       -3.846783    3.024747    2.824912
    138          1           0       -2.158001    8.492654    0.660843
    139          1           0        0.001455    9.730523    0.315908
    140          1           0        2.162758    8.494936    0.657414
    141          1           0        3.856786    3.030270    2.823858
    142          1           0        6.036553    2.023584    3.378568
    143          1           0        9.148520    4.874610    3.805605
    144          1           0       11.307677    3.987926    4.620615
    145          1           0       11.924421    1.609459    4.245556
    146          6           0       10.380380   -1.706577   -2.527679
    147          6           0        9.593729   -1.893854   -1.422095
    148          7           0        8.421230   -1.220198   -1.259962
    149          6           0        8.025086   -0.352536   -2.175275
    150          6           0        8.765051   -0.076456   -3.345803
    151          6           0        8.303736    0.841275   -4.344913
    152          6           0        7.046248    1.610328   -4.177083
    153          6           0        6.016093    1.485014   -5.121576
    154          6           0        4.826927    2.189202   -4.979345
    155          6           0        4.638516    3.057249   -3.888280
    156          6           0        3.413068    3.769025   -3.726927
    157          6           0        2.361502    4.366586   -3.578580
    158          6           0        1.142925    5.095861   -3.377187
    159          7           0       -0.007799    4.442271   -3.579599
    160          6           0       -1.156353    5.099267   -3.375841
    161          6           0       -2.377190    4.373363   -3.575759
    162          6           0       -3.430152    3.778129   -3.723480
    163          6           0       -4.656120    3.067125   -3.884261
    164          6           0       -4.846142    2.201168   -4.976695
    165          6           0       -6.034971    1.496215   -5.117788
    166          6           0       -7.063185    1.618727   -4.170833
    167          6           0       -8.319436    0.847274   -4.336826
    168          6           0       -9.072721    0.983558   -5.488623
    169          6           0      -10.278334    0.270457   -5.674497
    170          6           0      -10.742270   -0.599265   -4.714815
    171          6           0       -9.992772   -0.797798   -3.530967
    172          6           0      -10.382855   -1.712616   -2.521391
    173          6           0       -9.593248   -1.899697   -1.417877
    174          7           0       -8.423449   -1.221266   -1.256045
    175          6           0       -8.032831   -0.349451   -2.169713
    176          6           0       -8.775761   -0.073883   -3.338518
    177          6           0       -6.877229    2.494083   -3.088504
    178          6           0       -5.696329    3.212492   -2.947232
    179          6           0       -1.202988    6.445995   -2.972489
    180          6           0       -0.003399    7.120159   -2.776378
    181          6           0        1.193963    6.442456   -2.973864
    182          6           0        5.680323    3.204761   -2.953343
    183          6           0        6.861517    2.487057   -3.095674
    184          6           0        9.054208    0.977815   -5.498507
    185          6           0       10.261843    0.268401   -5.685382
    186          6           0       10.730928   -0.597388   -4.724639
    187          6           0        9.984545   -0.796015   -3.538839
    188          1           0       11.307190   -2.272943   -2.632555
    189          1           0        9.866288   -2.601126   -0.637943
    190          1           0        7.071407    0.148849   -2.004046
    191          1           0        6.142917    0.807714   -5.969265
    192          1           0        4.029141    2.067608   -5.714393
    193          1           0       -4.049668    2.081476   -5.713478
    194          1           0       -6.162829    0.820135   -5.966298
    195          1           0       -8.738523    1.676261   -6.264176
    196          1           0      -10.847565    0.422704   -6.594096
    197          1           0      -11.675540   -1.148110   -4.855936
    198          1           0      -11.307509   -2.282533   -2.625964
    199          1           0       -9.861350   -2.610297   -0.635203
    200          1           0       -7.081425    0.156203   -1.998368
    201          1           0       -7.675947    2.629939   -2.355193
    202          1           0       -5.569880    3.893354   -2.103177
    203          1           0       -2.164295    6.939034   -2.822025
    204          1           0       -0.001663    8.167522   -2.468555
    205          1           0        2.156889    6.932704   -2.824643
    206          1           0        5.554968    3.886925   -2.110160
    207          1           0        7.661521    2.624842   -2.364116
    208          1           0        8.716237    1.668037   -6.274636
    209          1           0       10.828695    0.420648   -6.606451
    210          1           0       11.665989   -1.143004   -4.866357
 ---------------------------------------------------------------------

 The electronic state is 1-A.
 Alpha  occ. eigenvalues --  -19.28761 -19.28756 -14.46636 -14.46635 -14.46619
 Alpha  occ. eigenvalues --  -14.46619 -14.46570 -14.46568 -14.46562 -14.46561
 Alpha  occ. eigenvalues --  -14.39825 -14.39805 -10.30823 -10.30818 -10.30817
 Alpha  occ. eigenvalues --  -10.30812 -10.30711 -10.30710 -10.30676 -10.30675
 Alpha  occ. eigenvalues --  -10.30227 -10.30227 -10.30215 -10.30212 -10.30179
 Alpha  occ. eigenvalues --  -10.30178 -10.30174 -10.30174 -10.30058 -10.30055
 Alpha  occ. eigenvalues --  -10.30021 -10.30018 -10.29370 -10.29370 -10.29364
 Alpha  occ. eigenvalues --  -10.29363 -10.28661 -10.28661 -10.28657 -10.28655
 Alpha  occ. eigenvalues --  -10.27505 -10.27505 -10.27492 -10.27492 -10.27418
 Alpha  occ. eigenvalues --  -10.27418 -10.27378 -10.27376 -10.27186 -10.27185
 Alpha  occ. eigenvalues --  -10.27119 -10.27118 -10.27111 -10.27111 -10.27048
 Alpha  occ. eigenvalues --  -10.27048 -10.26523 -10.26521 -10.26519 -10.26518
 Alpha  occ. eigenvalues --  -10.26502 -10.26501 -10.26476 -10.26475 -10.26302
 Alpha  occ. eigenvalues --  -10.26301 -10.26290 -10.26289 -10.26288 -10.26288
 Alpha  occ. eigenvalues --  -10.26214 -10.26213 -10.26212 -10.26211 -10.26184
 Alpha  occ. eigenvalues --  -10.26183 -10.25867 -10.25850 -10.25818 -10.25807
 Alpha  occ. eigenvalues --  -10.25805 -10.25794 -10.25696 -10.25683 -10.25679
 Alpha  occ. eigenvalues --  -10.25665 -10.25620 -10.25620 -10.25617 -10.25617
 Alpha  occ. eigenvalues --  -10.25563 -10.25562 -10.25553 -10.25553 -10.25434
 Alpha  occ. eigenvalues --  -10.25434 -10.25409 -10.25408 -10.25406 -10.25406
 Alpha  occ. eigenvalues --  -10.25381 -10.25380 -10.25282 -10.25282 -10.25272
 Alpha  occ. eigenvalues --  -10.25271 -10.25266 -10.25261 -10.25258 -10.25253
 Alpha  occ. eigenvalues --  -10.25178 -10.25177 -10.25137 -10.25137 -10.25133
 Alpha  occ. eigenvalues --  -10.25133 -10.25051 -10.25050 -10.25044 -10.25044
 Alpha  occ. eigenvalues --  -10.25024 -10.25017 -10.24980 -10.24980 -10.24973
 Alpha  occ. eigenvalues --  -10.24966 -10.24873 -10.24873 -10.24812 -10.24811
 Alpha  occ. eigenvalues --  -10.24484 -10.24482 -10.24436 -10.24433  -3.55124
 Alpha  occ. eigenvalues --   -3.55123  -2.22936  -2.22935  -2.22887  -2.22886
 Alpha  occ. eigenvalues --   -2.18784  -2.18783  -1.14733  -1.14723  -1.01333
 Alpha  occ. eigenvalues --   -1.01332  -1.00747  -1.00747  -1.00739  -1.00737
 Alpha  occ. eigenvalues --   -1.00643  -1.00642  -0.97951  -0.97925  -0.90777
 Alpha  occ. eigenvalues --   -0.90777  -0.90732  -0.90731  -0.90339  -0.90326
 Alpha  occ. eigenvalues --   -0.89830  -0.89812  -0.88767  -0.88759  -0.88727
 Alpha  occ. eigenvalues --   -0.88718  -0.85966  -0.85882  -0.85579  -0.85495
 Alpha  occ. eigenvalues --   -0.83949  -0.83903  -0.83759  -0.83717  -0.82859
 Alpha  occ. eigenvalues --   -0.82812  -0.82776  -0.82624  -0.81321  -0.81291
 Alpha  occ. eigenvalues --   -0.81063  -0.81020  -0.80850  -0.80812  -0.80778
 Alpha  occ. eigenvalues --   -0.80754  -0.80679  -0.80618  -0.80433  -0.80305
 Alpha  occ. eigenvalues --   -0.80164  -0.80043  -0.78884  -0.78841  -0.77783
 Alpha  occ. eigenvalues --   -0.77712  -0.77225  -0.77169  -0.77143  -0.77094
 Alpha  occ. eigenvalues --   -0.76811  -0.76769  -0.76758  -0.76723  -0.75495
 Alpha  occ. eigenvalues --   -0.75483  -0.74762  -0.74716  -0.73248  -0.73223
 Alpha  occ. eigenvalues --   -0.69369  -0.69270  -0.69255  -0.69148  -0.68972
 Alpha  occ. eigenvalues --   -0.68893  -0.68761  -0.68713  -0.68142  -0.67928
 Alpha  occ. eigenvalues --   -0.67854  -0.67820  -0.67728  -0.67604  -0.67498
 Alpha  occ. eigenvalues --   -0.67495  -0.66749  -0.66730  -0.66658  -0.66643
 Alpha  occ. eigenvalues --   -0.65685  -0.65605  -0.65209  -0.65174  -0.64991
 Alpha  occ. eigenvalues --   -0.64929  -0.62969  -0.62966  -0.62961  -0.62946
 Alpha  occ. eigenvalues --   -0.62932  -0.62848  -0.61676  -0.61623  -0.61497
 Alpha  occ. eigenvalues --   -0.61405  -0.61401  -0.61316  -0.60949  -0.60910
 Alpha  occ. eigenvalues --   -0.58284  -0.58145  -0.58136  -0.57702  -0.57403
 Alpha  occ. eigenvalues --   -0.56794  -0.56492  -0.56431  -0.56429  -0.56361
 Alpha  occ. eigenvalues --   -0.55936  -0.55848  -0.55632  -0.55629  -0.55509
 Alpha  occ. eigenvalues --   -0.55458  -0.55405  -0.55328  -0.55081  -0.54980
 Alpha  occ. eigenvalues --   -0.54716  -0.54654  -0.54187  -0.54098  -0.54051
 Alpha  occ. eigenvalues --   -0.54010  -0.53243  -0.53140  -0.52478  -0.52426
 Alpha  occ. eigenvalues --   -0.52203  -0.52085  -0.51389  -0.51306  -0.50306
 Alpha  occ. eigenvalues --   -0.50199  -0.50184  -0.50056  -0.49850  -0.49784
 Alpha  occ. eigenvalues --   -0.49667  -0.49638  -0.49625  -0.49584  -0.49497
 Alpha  occ. eigenvalues --   -0.49361  -0.49264  -0.49162  -0.49078  -0.49051
 Alpha  occ. eigenvalues --   -0.48785  -0.48621  -0.48598  -0.48465  -0.48448
 Alpha  occ. eigenvalues --   -0.48303  -0.48204  -0.48115  -0.47798  -0.47775
 Alpha  occ. eigenvalues --   -0.47541  -0.47519  -0.47393  -0.47377  -0.47119
 Alpha  occ. eigenvalues --   -0.47056  -0.46988  -0.46822  -0.46728  -0.46524
 Alpha  occ. eigenvalues --   -0.46305  -0.46249  -0.46129  -0.46092  -0.46084
 Alpha  occ. eigenvalues --   -0.46036  -0.45860  -0.45846  -0.45798  -0.45679
 Alpha  occ. eigenvalues --   -0.45473  -0.45413  -0.45197  -0.45131  -0.45074
 Alpha  occ. eigenvalues --   -0.45018  -0.45003  -0.44790  -0.44394  -0.44262
 Alpha  occ. eigenvalues --   -0.44245  -0.44082  -0.44069  -0.43994  -0.43982
 Alpha  occ. eigenvalues --   -0.43923  -0.43903  -0.43864  -0.43171  -0.42925
 Alpha  occ. eigenvalues --   -0.42869  -0.42535  -0.42530  -0.42384  -0.41910
 Alpha  occ. eigenvalues --   -0.41858  -0.41821  -0.41767  -0.41011  -0.40950
 Alpha  occ. eigenvalues --   -0.40895  -0.40879  -0.40771  -0.40595  -0.40582
 Alpha  occ. eigenvalues --   -0.40430  -0.40388  -0.40286  -0.40246  -0.40121
 Alpha  occ. eigenvalues --   -0.39976  -0.39971  -0.39910  -0.39857  -0.39818
 Alpha  occ. eigenvalues --   -0.39788  -0.39701  -0.39608  -0.39460  -0.39235
 Alpha  occ. eigenvalues --   -0.39080  -0.39050  -0.38907  -0.38687  -0.38279
 Alpha  occ. eigenvalues --   -0.38259  -0.38168  -0.38130  -0.37179  -0.37145
 Alpha  occ. eigenvalues --   -0.36812  -0.36786  -0.36737  -0.36717  -0.36376
 Alpha  occ. eigenvalues --   -0.36376  -0.36253  -0.36240  -0.35902  -0.35898
 Alpha  occ. eigenvalues --   -0.35731  -0.35629  -0.35492  -0.35424  -0.34733
 Alpha  occ. eigenvalues --   -0.34602  -0.34518  -0.34349  -0.33757  -0.33584
 Alpha  occ. eigenvalues --   -0.33430  -0.33377  -0.33071  -0.32946  -0.32612
 Alpha  occ. eigenvalues --   -0.32492  -0.32217  -0.32127  -0.31747  -0.31727
 Alpha  occ. eigenvalues --   -0.31712  -0.31711  -0.31448  -0.31342  -0.30880
 Alpha  occ. eigenvalues --   -0.30758  -0.30654  -0.30409  -0.30353  -0.30213
 Alpha  occ. eigenvalues --   -0.29838  -0.29836  -0.29652  -0.29502  -0.29491
 Alpha  occ. eigenvalues --   -0.29223  -0.29116  -0.29072  -0.28960  -0.28509
 Alpha  occ. eigenvalues --   -0.28485  -0.27884  -0.27877  -0.27817  -0.27812
 Alpha  occ. eigenvalues --   -0.27720  -0.27567  -0.27448  -0.27022  -0.27012
 Alpha  occ. eigenvalues --   -0.26606  -0.26455  -0.25719  -0.25643  -0.24755
 Alpha  occ. eigenvalues --   -0.24736  -0.24735  -0.24722  -0.24329  -0.24124
 Alpha  occ. eigenvalues --   -0.23393  -0.22945
 Alpha virt. eigenvalues --   -0.10880  -0.10865  -0.10572  -0.10545  -0.10123
 Alpha virt. eigenvalues --   -0.09884  -0.09638  -0.09604  -0.09169  -0.08958
 Alpha virt. eigenvalues --   -0.08929  -0.08794  -0.08672  -0.08485  -0.07782

 Mulliken charges:
               1
     1  Pd   0.505762
     2  Pd   0.505737
     3  C    0.136059
     4  N   -0.303213
     5  C    0.144312
     6  C   -0.043574
     7  C    0.064796
     8  C    0.032741
     9  C   -0.034855
    10  C   -0.073454
    11  C    0.204942
    12  O   -0.256085
    13  C    0.204941
    14  C   -0.073496
    15  C   -0.034678
    16  C    0.032482
    17  C    0.064512
    18  C   -0.052029
    19  C    0.136088
    20  N   -0.303154
    21  C    0.144256
    22  C   -0.043386
    23  C   -0.058206
    24  C    0.024659
    25  C    0.024687
    26  C   -0.058319
    27  C   -0.052202
    28  H    0.096200
    29  H    0.103749
    30  H    0.062782
    31  H    0.049945
    32  H    0.046062
    33  H    0.046064
    34  H    0.049937
    35  H    0.064169
    36  H    0.096236
    37  H    0.103700
    38  H    0.062771
    39  H    0.037413
    40  H    0.037426
    41  H    0.064149
    42  C    0.138763
    43  N   -0.302475
    44  C    0.144840
    45  C   -0.043096
    46  C    0.062947
    47  C    0.031399
    48  C   -0.034491
    49  C   -0.073192
    50  C    0.204277
    51  O   -0.255798
    52  C    0.204267
    53  C   -0.073163
    54  C   -0.034618
    55  C    0.031531
    56  C    0.063067
    57  C   -0.052472
    58  C    0.138844
    59  N   -0.302492
    60  C    0.144783
    61  C   -0.043257
    62  C   -0.057176
    63  C    0.024673
    64  C    0.024652
    65  C   -0.057157
    66  C   -0.052475
    67  H    0.094026
    68  H    0.102635
    69  H    0.063027
    70  H    0.050076
    71  H    0.046057
    72  H    0.046054
    73  H    0.050085
    74  H    0.064036
    75  H    0.094059
    76  H    0.102646
    77  H    0.063016
    78  H    0.037335
    79  H    0.037324
    80  H    0.064065
    81  C   -0.031928
    82  C    0.127517
    83  N   -0.298050
    84  C    0.133019
    85  C   -0.011398
    86  C    0.050023
    87  C   -0.033821
    88  C   -0.016928
    89  C    0.005905
    90  C   -0.070152
    91  C   -0.022814
    92  C    0.032512
    93  C   -0.051042
    94  N   -0.177683
    95  C   -0.051016
    96  C    0.032458
    97  C   -0.022774
    98  C   -0.070142
    99  C    0.005900
   100  C   -0.016975
   101  C   -0.033816
   102  C    0.050031
   103  C   -0.027864
   104  C    0.006903
   105  C   -0.006884
   106  C    0.033253
   107  C   -0.031908
   108  C    0.127615
   109  N   -0.298035
   110  C    0.133039
   111  C   -0.011483
   112  C   -0.032261
   113  C    0.003738
   114  C    0.008113
   115  C    0.032672
   116  C    0.008155
   117  C    0.003729
   118  C   -0.032280
   119  C   -0.027847
   120  C    0.006907
   121  C   -0.006886
   122  C    0.033264
   123  H    0.058330
   124  H    0.091752
   125  H    0.099248
   126  H    0.042049
   127  H    0.041242
   128  H    0.041243
   129  H    0.042056
   130  H    0.046635
   131  H    0.057929
   132  H    0.045237
   133  H    0.058324
   134  H    0.091713
   135  H    0.099219
   136  H    0.048798
   137  H    0.040001
   138  H    0.048816
   139  H    0.061535
   140  H    0.048816
   141  H    0.040007
   142  H    0.048787
   143  H    0.046630
   144  H    0.057933
   145  H    0.045240
   146  C   -0.033394
   147  C    0.131767
   148  N   -0.297998
   149  C    0.141920
   150  C   -0.006102
   151  C    0.039516
   152  C   -0.052497
   153  C   -0.003696
   154  C    0.005433
   155  C   -0.071231
   156  C   -0.027153
   157  C    0.035237
   158  C   -0.054018
   159  N   -0.178103
   160  C   -0.054029
   161  C    0.035421
   162  C   -0.027364
   163  C   -0.071217
   164  C    0.005410
   165  C   -0.003607
   166  C   -0.052478
   167  C    0.039468
   168  C   -0.024541
   169  C    0.006134
   170  C   -0.006541
   171  C    0.033646
   172  C   -0.033420
   173  C    0.131670
   174  N   -0.297993
   175  C    0.141927
   176  C   -0.005968
   177  C   -0.027432
   178  C    0.005852
   179  C    0.011270
   180  C    0.038666
   181  C    0.011231
   182  C    0.005792
   183  C   -0.027332
   184  C   -0.024451
   185  C    0.006125
   186  C   -0.006547
   187  C    0.033659
   188  H    0.058105
   189  H    0.088536
   190  H    0.096201
   191  H    0.040804
   192  H    0.040686
   193  H    0.040687
   194  H    0.040814
   195  H    0.044942
   196  H    0.058021
   197  H    0.044948
   198  H    0.058103
   199  H    0.088696
   200  H    0.096220
   201  H    0.047346
   202  H    0.036565
   203  H    0.047517
   204  H    0.060535
   205  H    0.047514
   206  H    0.036598
   207  H    0.047366
   208  H    0.044944
   209  H    0.058020
   210  H    0.044944
 Sum of Mulliken charges =   4.00000

 Dipole moment (field-independent basis, Debye):
    X=              0.0144    Y=            -21.4810    Z=              6.0105  Tot=             22.3060
 Quadrupole moment (field-independent basis, Debye-Ang):
   XX=            426.8408   YY=           -507.9390   ZZ=           -587.6636
   XY=              0.1322   XZ=             -0.1398   YZ=              4.4537

 Normal termination of Gaussian 16 at Fri Jul 28 22:52:44 2023.
