 Gaussian 16, Revision C.01,
 Gaussian 16:  ES64L-G16RevC.01  3-Jul-2019

 ------------------------------------------------------------------
 # SP PBE1PBE/def2svp empiricaldispersion=GD3BJ scrf=(solvent=dmso)
 ------------------------------------------------------------------

 ---------
 cis_l2_la
 ---------
 Symbolic Z-matrix:
 Charge =  4 Multiplicity = 1

                         Standard orientation:
 ---------------------------------------------------------------------
 Center     Atomic      Atomic             Coordinates (Angstroms)
 Number     Number       Type             X           Y           Z
 ---------------------------------------------------------------------
      1         46           0       -6.153402   -3.297193    0.155500
      2         46           0        6.153198   -3.297511   -0.155700
      3          6           0        0.108793   -6.405002    4.996400
      4          6           0        1.315294   -5.987504    4.440000
      5          6           0        1.321195   -5.036804    3.411000
      6          6           0        0.104596   -4.520702    2.951300
      7          6           0       -1.113205   -4.967901    3.475700
      8          6           0       -1.100006   -5.912901    4.511400
      9          6           0       -2.377104   -4.499499    2.873700
     10          6           0       -2.530002   -3.187798    2.402500
     11          6           0       -3.684402   -2.829897    1.725800
     12          7           0       -4.675403   -3.704595    1.499300
     13          6           0       -4.575705   -4.947295    1.993500
     14          6           0       -3.455905   -5.374197    2.687500
     15          6           0        2.572396   -4.613406    2.752000
     16          6           0        2.791698   -3.272606    2.408200
     17          6           0        3.916598   -2.928008    1.679800
     18          7           0        4.808697   -3.844909    1.274200
     19          6           0        4.648895   -5.123809    1.641100
     20          6           0        3.557494   -5.540408    2.388000
     21          1           0        0.110092   -7.129002    5.813700
     22          1           0        2.258193   -6.389706    4.817300
     23          1           0        0.105097   -3.816502    2.116400
     24          1           0       -2.039207   -6.257499    4.949200
     25          1           0       -1.751201   -2.438600    2.550500
     26          1           0       -3.817000   -1.818997    1.334800
     27          1           0       -5.407006   -5.626794    1.795800
     28          1           0       -3.410607   -6.409197    3.028200
     29          1           0        2.087799   -2.492605    2.701000
     30          1           0        4.106600   -1.891608    1.393300
     31          1           0        5.400894   -5.836310    1.296400
     32          1           0        3.452693   -6.599007    2.629100
     33          6           0       -0.109107   -6.405502   -4.996600
     34          6           0        1.099694   -5.913404   -4.511500
     35          6           0        1.112895   -4.968404   -3.475800
     36          6           0       -0.104904   -4.521402   -2.951300
     37          6           0       -1.321505   -5.037400   -3.411100
     38          6           0       -1.315606   -5.988000   -4.440200
     39          6           0       -2.572704   -4.613798   -2.752100
     40          6           0       -2.791702   -3.273098   -2.408300
     41          6           0       -3.916602   -2.928196   -1.679900
     42          7           0       -4.808803   -3.844895   -1.274300
     43          6           0       -4.649305   -5.123895   -1.641200
     44          6           0       -3.558006   -5.540697   -2.388200
     45          6           0        2.376696   -4.500006   -2.873700
     46          6           0        2.529498   -3.188306   -2.402300
     47          6           0        3.683798   -2.830408   -1.725600
     48          7           0        4.675097   -3.704909   -1.499400
     49          6           0        4.575395   -4.947509   -1.993800
     50          6           0        3.455695   -5.374507   -2.687800
     51          1           0       -0.110408   -7.129402   -5.813900
     52          1           0        2.038993   -6.257905   -4.949300
     53          1           0       -0.105503   -3.817302   -2.116400
     54          1           0       -2.258407   -6.390299   -4.817500
     55          1           0       -2.087701   -2.493199   -2.701100
     56          1           0       -4.106300   -1.891796   -1.393300
     57          1           0       -5.401506   -5.836194   -1.296600
     58          1           0       -3.453407   -6.599297   -2.629300
     59          1           0        1.750599   -2.439205   -2.550100
     60          1           0        3.816100   -1.819508   -1.334400
     61          1           0        5.406894   -5.627010   -1.796200
     62          1           0        3.410593   -6.409407   -3.028600
     63          6           0       -9.531803   -3.760788   -2.368000
     64          6           0       -8.420103   -3.978790   -1.600200
     65          7           0       -7.630002   -2.948991   -1.187600
     66          6           0       -7.898100   -1.712291   -1.563100
     67          6           0       -8.999600   -1.383089   -2.381300
     68          6           0       -9.286998   -0.034788   -2.767400
     69          6           0       -8.353396    1.070910   -2.464600
     70          6           0       -6.997096    0.977508   -2.817000
     71          6           0       -6.124194    2.026707   -2.572200
     72          6           0       -6.583193    3.214208   -1.971400
     73          6           0       -5.671891    4.288306   -1.768500
     74          6           0       -4.838590    5.172305   -1.668500
     75          6           0       -3.816688    6.162903   -1.614800
     76          6           0       -2.472589    5.757801   -1.655400
     77          6           0       -1.480087    6.732500   -1.651800
     78          6           0       -0.031687    6.723998   -1.684400
     79          6           0        0.949811    5.738096   -1.734800
     80          6           0        2.298212    6.130594   -1.748100
     81          6           0        3.327810    5.147993   -1.816600
     82          6           0        4.212009    4.313392   -1.906800
     83          6           0        5.248308    3.355090   -2.095600
     84          6           0        6.579408    3.652388   -1.749700
     85          6           0        7.597707    2.748686   -2.022300
     86          6           0        7.326005    1.518787   -2.641000
     87          6           0        8.430503    0.615185   -3.031900
     88          6           0        9.504804    1.112884   -3.748200
     89          6           0       10.541403    0.273482   -4.210500
     90          6           0       10.517101   -1.080818   -3.969900
     91          6           0        9.459200   -1.634916   -3.212400
     92          6           0        9.389798   -3.013316   -2.890800
     93          6           0        8.383597   -3.483015   -2.090800
     94          7           0        7.440199   -2.647613   -1.575800
     95          6           0        7.448801   -1.362413   -1.882800
     96          6           0        8.421501   -0.783015   -2.724100
     97          6           0        5.992204    1.209589   -2.955400
     98          6           0        4.968906    2.108390   -2.686500
     99          6           0        2.639114    7.504094   -1.711500
    100          6           0        1.667515    8.496495   -1.663900
    101          6           0        0.343815    8.080297   -1.651500
    102          8           0       -0.744384    8.897399   -1.602700
    103          6           0       -1.841285    8.091800   -1.604900
    104          6           0       -3.160385    8.521802   -1.558900
    105          6           0       -4.143386    7.539404   -1.560900
    106          6           0       -7.941093    3.310210   -1.618200
    107          6           0       -8.808894    2.253411   -1.863300
    108          6           0      -10.461597    0.207413   -3.456400
    109          6           0      -11.335699   -0.840685   -3.818300
    110          6           0      -11.046401   -2.147686   -3.500000
    111          6           0       -9.874801   -2.444188   -2.765400
    112          1           0      -10.161304   -4.602687   -2.660300
    113          1           0       -8.131805   -4.976990   -1.267100
    114          1           0       -7.238199   -0.928291   -1.188400
    115          1           0       -6.626297    0.081508   -3.320200
    116          1           0       -5.075995    1.944905   -2.865000
    117          1           0       -2.223190    4.696301   -1.688400
    118          1           0        0.687309    4.679297   -1.759600
    119          1           0        6.806909    4.606188   -1.270700
    120          1           0        8.625207    2.997385   -1.747600
    121          1           0        9.532406    2.176484   -3.994100
    122          1           0       11.360804    0.710981   -4.784800
    123          1           0       11.306500   -1.734819   -4.345200
    124          1           0       10.148597   -3.701917   -3.265700
    125          1           0        8.306696   -4.535215   -1.813500
    126          1           0        6.677501   -0.738612   -1.426400
    127          1           0        5.755103    0.270189   -3.460600
    128          1           0        3.942005    1.864192   -2.964300
    129          1           0        3.693614    7.783492   -1.715200
    130          1           0        1.930217    9.554295   -1.627200
    131          1           0       -3.409883    9.582603   -1.515700
    132          1           0       -5.194886    7.829605   -1.527000
    133          1           0       -8.311391    4.222610   -1.147500
    134          1           0       -9.858394    2.339712   -1.573100
    135          1           0      -10.700196    1.229214   -3.758800
    136          1           0      -12.244198   -0.603984   -4.376400
    137          1           0      -11.711302   -2.960885   -3.797300
    138          6           0       -9.390202   -3.013088    2.890300
    139          6           0       -8.384003   -3.482690    2.090300
    140          7           0       -7.440201   -2.647391    1.575700
    141          6           0       -7.448599   -1.362291    1.883200
    142          6           0       -8.421299   -0.782990    2.724400
    143          6           0       -8.430197    0.615210    3.032500
    144          6           0       -7.325595    1.518709    2.641800
    145          6           0       -7.597193    2.748609    2.023100
    146          6           0       -6.578892    3.652308    1.750400
    147          6           0       -5.247792    3.354806    2.096200
    148          6           0       -4.211391    4.313004    1.907100
    149          6           0       -3.327290    5.147603    1.816600
    150          6           0       -2.297788    6.130301    1.747800
    151          6           0       -0.949289    5.737899    1.734700
    152          6           0        0.032113    6.723898    1.684100
    153          6           0        1.480513    6.732496    1.651700
    154          6           0        2.473011    5.757794    1.655600
    155          6           0        3.817112    6.162992    1.615100
    156          6           0        4.839010    5.172491    1.668900
    157          6           0        5.672309    4.288289    1.769000
    158          6           0        6.583307    3.213988    1.971800
    159          6           0        6.124206    2.026689    2.572900
    160          6           0        6.996904    0.977287    2.817600
    161          6           0        8.353104    1.070385    2.465000
    162          6           0        9.286702   -0.035316    2.767700
    163          6           0       10.461303    0.206782    3.456800
    164          6           0       11.335401   -0.841219    3.818500
    165          6           0       11.046199   -2.148219    3.500000
    166          6           0        9.874599   -2.444717    2.765400
    167          6           0        9.531797   -3.761216    2.367700
    168          6           0        8.420097   -3.979215    1.599800
    169          7           0        7.629898   -2.949414    1.187500
    170          6           0        7.897800   -1.712814    1.563200
    171          6           0        8.999300   -1.383716    2.381400
    172          6           0        8.808806    2.252785    1.863300
    173          6           0        7.941107    3.309686    1.618200
    174          6           0        4.143714    7.539492    1.560800
    175          6           0        3.160715    8.521793    1.558500
    176          6           0        1.841615    8.091795    1.604500
    177          8           0        0.744616    8.897397    1.601800
    178          6           0       -0.343485    8.080098    1.650700
    179          6           0       -1.667285    8.496200    1.662800
    180          6           0       -2.638786    7.503802    1.710700
    181          6           0       -4.968494    2.108205    2.687100
    182          6           0       -5.991796    1.209407    2.956100
    183          6           0       -9.504496    1.112912    3.748700
    184          6           0      -10.541197    0.273613    4.210800
    185          6           0      -10.517199   -1.080687    3.969700
    186          6           0       -9.459300   -1.634788    3.212300
    187          1           0      -10.149103   -3.701687    3.264800
    188          1           0       -8.307204   -4.534890    1.812700
    189          1           0       -6.676899   -0.738692    1.427200
    190          1           0       -8.624693    2.997411    1.748400
    191          1           0       -6.806291    4.606108    1.271400
    192          1           0       -0.686791    4.679199    1.759900
    193          1           0        2.223710    4.696294    1.688800
    194          1           0        5.076005    1.945190    2.866000
    195          1           0        6.626103    0.081488    3.321100
    196          1           0       10.699804    1.228582    3.759200
    197          1           0       12.243902   -0.604620    4.376600
    198          1           0       11.711098   -2.961420    3.797100
    199          1           0       10.161396   -4.603217    2.659700
    200          1           0        8.131995   -4.977414    1.266400
    201          1           0        7.237701   -0.928813    1.188800
    202          1           0        9.858306    2.338783    1.572900
    203          1           0        8.311509    4.221885    1.147300
    204          1           0        5.195214    7.829690    1.526900
    205          1           0        3.410117    9.582693    1.515000
    206          1           0       -1.929983    9.554001    1.625800
    207          1           0       -3.693286    7.783103    1.714100
    208          1           0       -3.941495    1.863804    2.964800
    209          1           0       -5.754697    0.270006    3.461200
    210          1           0       -9.531894    2.176412    3.994900
    211          1           0      -11.360696    0.711015    4.785100
    212          1           0      -11.306800   -1.734585    4.344800
 ---------------------------------------------------------------------

 SCF Done:  E(RPBE1PBE) =  -5605.03687213     A.U. after   17 cycles

 The electronic state is 1-A.
 Alpha  occ. eigenvalues --  -19.29615 -19.29613 -14.48322 -14.48322 -14.48286
 Alpha  occ. eigenvalues --  -14.48286 -14.48238 -14.48238 -14.48223 -14.48223
 Alpha  occ. eigenvalues --  -10.32233 -10.32232 -10.32177 -10.32177 -10.31916
 Alpha  occ. eigenvalues --  -10.31916 -10.31910 -10.31909 -10.31898 -10.31898
 Alpha  occ. eigenvalues --  -10.31830 -10.31830 -10.31551 -10.31550 -10.31543
 Alpha  occ. eigenvalues --  -10.31541 -10.30859 -10.30859 -10.30819 -10.30819
 Alpha  occ. eigenvalues --  -10.30355 -10.30355 -10.30329 -10.30329 -10.28975
 Alpha  occ. eigenvalues --  -10.28975 -10.28966 -10.28965 -10.28845 -10.28845
 Alpha  occ. eigenvalues --  -10.28815 -10.28815 -10.28479 -10.28479 -10.28443
 Alpha  occ. eigenvalues --  -10.28442 -10.28287 -10.28286 -10.28269 -10.28268
 Alpha  occ. eigenvalues --  -10.28256 -10.28256 -10.28252 -10.28251 -10.28242
 Alpha  occ. eigenvalues --  -10.28242 -10.28217 -10.28216 -10.28099 -10.28098
 Alpha  occ. eigenvalues --  -10.28074 -10.28074 -10.27881 -10.27880 -10.27850
 Alpha  occ. eigenvalues --  -10.27850 -10.27773 -10.27772 -10.27766 -10.27765
 Alpha  occ. eigenvalues --  -10.27371 -10.27371 -10.27345 -10.27344 -10.27337
 Alpha  occ. eigenvalues --  -10.27335 -10.27059 -10.27058 -10.27057 -10.27056
 Alpha  occ. eigenvalues --  -10.26959 -10.26958 -10.26944 -10.26943 -10.26806
 Alpha  occ. eigenvalues --  -10.26804 -10.26804 -10.26803 -10.26694 -10.26694
 Alpha  occ. eigenvalues --  -10.26689 -10.26689 -10.26609 -10.26608 -10.26594
 Alpha  occ. eigenvalues --  -10.26588 -10.26535 -10.26530 -10.26479 -10.26478
 Alpha  occ. eigenvalues --  -10.26475 -10.26474 -10.26381 -10.26380 -10.26313
 Alpha  occ. eigenvalues --  -10.26312 -10.26275 -10.26275 -10.26254 -10.26254
 Alpha  occ. eigenvalues --  -10.26225 -10.26224 -10.26213 -10.26213 -10.26206
 Alpha  occ. eigenvalues --  -10.26205 -10.26137 -10.26136 -10.26095 -10.26093
 Alpha  occ. eigenvalues --  -10.26077 -10.26076 -10.26055 -10.26054 -10.26036
 Alpha  occ. eigenvalues --  -10.26036 -10.25579 -10.25576 -10.25537 -10.25536
 Alpha  occ. eigenvalues --  -10.25245 -10.25245 -10.25243 -10.25241  -3.56777
 Alpha  occ. eigenvalues --   -3.56777  -2.24753  -2.24753  -2.24456  -2.24455
 Alpha  occ. eigenvalues --   -2.20471  -2.20470  -1.15747  -1.15608  -1.03298
 Alpha  occ. eigenvalues --   -1.03295  -1.02737  -1.02736  -1.02610  -1.02605
 Alpha  occ. eigenvalues --   -1.02389  -1.02387  -0.92458  -0.92419  -0.92408
 Alpha  occ. eigenvalues --   -0.92398  -0.92346  -0.92345  -0.91106  -0.90674
 Alpha  occ. eigenvalues --   -0.90478  -0.90254  -0.90210  -0.90197  -0.90135
 Alpha  occ. eigenvalues --   -0.90003  -0.88873  -0.88758  -0.86331  -0.86207
 Alpha  occ. eigenvalues --   -0.85400  -0.85390  -0.85297  -0.85287  -0.83654
 Alpha  occ. eigenvalues --   -0.83472  -0.83008  -0.82833  -0.82807  -0.82777
 Alpha  occ. eigenvalues --   -0.82563  -0.82531  -0.82505  -0.82412  -0.82330
 Alpha  occ. eigenvalues --   -0.82204  -0.81962  -0.81794  -0.81541  -0.81372
 Alpha  occ. eigenvalues --   -0.80198  -0.79925  -0.79504  -0.79416  -0.79396
 Alpha  occ. eigenvalues --   -0.79356  -0.78679  -0.78628  -0.78541  -0.78512
 Alpha  occ. eigenvalues --   -0.78398  -0.78321  -0.77997  -0.77880  -0.76648
 Alpha  occ. eigenvalues --   -0.76598  -0.74872  -0.74832  -0.74360  -0.74296
 Alpha  occ. eigenvalues --   -0.70684  -0.70663  -0.70569  -0.70501  -0.70476
 Alpha  occ. eigenvalues --   -0.70390  -0.70296  -0.70259  -0.69306  -0.69274
 Alpha  occ. eigenvalues --   -0.69176  -0.69174  -0.69155  -0.69101  -0.69009
 Alpha  occ. eigenvalues --   -0.68923  -0.68558  -0.68431  -0.68247  -0.68188
 Alpha  occ. eigenvalues --   -0.67263  -0.67199  -0.66370  -0.66350  -0.64417
 Alpha  occ. eigenvalues --   -0.64365  -0.64278  -0.64229  -0.64193  -0.64122
 Alpha  occ. eigenvalues --   -0.63859  -0.63782  -0.63284  -0.63090  -0.62868
 Alpha  occ. eigenvalues --   -0.62724  -0.62709  -0.62571  -0.61968  -0.61827
 Alpha  occ. eigenvalues --   -0.60309  -0.59802  -0.58617  -0.58479  -0.58465
 Alpha  occ. eigenvalues --   -0.58022  -0.58003  -0.57970  -0.57817  -0.57586
 Alpha  occ. eigenvalues --   -0.57477  -0.57441  -0.57352  -0.57164  -0.57062
 Alpha  occ. eigenvalues --   -0.56991  -0.56343  -0.56303  -0.56176  -0.55992
 Alpha  occ. eigenvalues --   -0.55949  -0.55817  -0.55698  -0.55595  -0.55510
 Alpha  occ. eigenvalues --   -0.55404  -0.55020  -0.54893  -0.54326  -0.54281
 Alpha  occ. eigenvalues --   -0.54233  -0.54076  -0.52775  -0.52770  -0.52211
 Alpha  occ. eigenvalues --   -0.52013  -0.51771  -0.51497  -0.51472  -0.51395
 Alpha  occ. eigenvalues --   -0.51286  -0.51210  -0.50980  -0.50813  -0.50747
 Alpha  occ. eigenvalues --   -0.50444  -0.50419  -0.50413  -0.50363  -0.50042
 Alpha  occ. eigenvalues --   -0.49990  -0.49947  -0.49799  -0.49770  -0.49764
 Alpha  occ. eigenvalues --   -0.49577  -0.49476  -0.49408  -0.49152  -0.49051
 Alpha  occ. eigenvalues --   -0.48996  -0.48849  -0.48651  -0.48526  -0.48313
 Alpha  occ. eigenvalues --   -0.48269  -0.48251  -0.48170  -0.48136  -0.47952
 Alpha  occ. eigenvalues --   -0.47763  -0.47748  -0.47690  -0.47602  -0.47551
 Alpha  occ. eigenvalues --   -0.47508  -0.47431  -0.46980  -0.46885  -0.46827
 Alpha  occ. eigenvalues --   -0.46780  -0.46608  -0.46581  -0.46538  -0.46427
 Alpha  occ. eigenvalues --   -0.46412  -0.46322  -0.46264  -0.46053  -0.46006
 Alpha  occ. eigenvalues --   -0.45998  -0.45812  -0.45509  -0.45502  -0.45145
 Alpha  occ. eigenvalues --   -0.45137  -0.44673  -0.44671  -0.44501  -0.44430
 Alpha  occ. eigenvalues --   -0.44290  -0.44243  -0.43146  -0.43093  -0.43046
 Alpha  occ. eigenvalues --   -0.43025  -0.42892  -0.42801  -0.42727  -0.42513
 Alpha  occ. eigenvalues --   -0.42494  -0.42459  -0.42320  -0.42079  -0.42042
 Alpha  occ. eigenvalues --   -0.42019  -0.41893  -0.41884  -0.41878  -0.41813
 Alpha  occ. eigenvalues --   -0.41599  -0.41571  -0.41561  -0.41495  -0.41293
 Alpha  occ. eigenvalues --   -0.41231  -0.41135  -0.41021  -0.40616  -0.40500
 Alpha  occ. eigenvalues --   -0.40190  -0.40168  -0.39948  -0.39938  -0.39796
 Alpha  occ. eigenvalues --   -0.39202  -0.39049  -0.38985  -0.38526  -0.38500
 Alpha  occ. eigenvalues --   -0.38453  -0.38372  -0.38315  -0.38047  -0.38001
 Alpha  occ. eigenvalues --   -0.37893  -0.37888  -0.37738  -0.37622  -0.37592
 Alpha  occ. eigenvalues --   -0.37573  -0.37175  -0.36964  -0.36898  -0.36353
 Alpha  occ. eigenvalues --   -0.36314  -0.35987  -0.35932  -0.35779  -0.35747
 Alpha  occ. eigenvalues --   -0.35654  -0.34919  -0.34915  -0.34591  -0.34530
 Alpha  occ. eigenvalues --   -0.34292  -0.33854  -0.33785  -0.33776  -0.33700
 Alpha  occ. eigenvalues --   -0.33524  -0.33281  -0.33241  -0.33139  -0.32755
 Alpha  occ. eigenvalues --   -0.32248  -0.32186  -0.31833  -0.31722  -0.31384
 Alpha  occ. eigenvalues --   -0.31357  -0.31067  -0.30935  -0.30920  -0.30691
 Alpha  occ. eigenvalues --   -0.30650  -0.30585  -0.29999  -0.29612  -0.29596
 Alpha  occ. eigenvalues --   -0.29480  -0.29205  -0.29129  -0.29062  -0.28968
 Alpha  occ. eigenvalues --   -0.28645  -0.28631  -0.28599  -0.28593  -0.28419
 Alpha  occ. eigenvalues --   -0.28311  -0.28250  -0.27589  -0.27052  -0.26677
 Alpha  occ. eigenvalues --   -0.26285  -0.26018  -0.26004  -0.23838  -0.23764
 Alpha  occ. eigenvalues --   -0.23448  -0.22969
 Alpha virt. eigenvalues --   -0.09694  -0.09632  -0.09217  -0.09124  -0.09034
 Alpha virt. eigenvalues --   -0.08921  -0.08735  -0.08664  -0.07510  -0.07021
 Alpha virt. eigenvalues --   -0.06770  -0.06650  -0.06453  -0.06309  -0.06289

 Mulliken charges:
               1
     1  Pd   0.498878
     2  Pd   0.498891
     3  C   -0.023090
     4  C   -0.005847
     5  C    0.001940
     6  C   -0.024022
     7  C    0.014009
     8  C   -0.015034
     9  C    0.058662
    10  C   -0.048497
    11  C    0.150676
    12  N   -0.318175
    13  C    0.151022
    14  C   -0.041149
    15  C    0.046735
    16  C   -0.039233
    17  C    0.145475
    18  N   -0.317760
    19  C    0.151204
    20  C   -0.033833
    21  H    0.054633
    22  H    0.049772
    23  H    0.046128
    24  H    0.050496
    25  H    0.067231
    26  H    0.097725
    27  H    0.108639
    28  H    0.067634
    29  H    0.066842
    30  H    0.105626
    31  H    0.103362
    32  H    0.068075
    33  C   -0.023048
    34  C   -0.015082
    35  C    0.014070
    36  C   -0.024058
    37  C    0.001963
    38  C   -0.005822
    39  C    0.046793
    40  C   -0.039311
    41  C    0.145514
    42  N   -0.317751
    43  C    0.151189
    44  C   -0.033798
    45  C    0.058644
    46  C   -0.048452
    47  C    0.150665
    48  N   -0.318190
    49  C    0.150915
    50  C   -0.041096
    51  H    0.054603
    52  H    0.050522
    53  H    0.046090
    54  H    0.049741
    55  H    0.066838
    56  H    0.105618
    57  H    0.103350
    58  H    0.068069
    59  H    0.067211
    60  H    0.097734
    61  H    0.108694
    62  H    0.067584
    63  C   -0.031473
    64  C    0.134714
    65  N   -0.317567
    66  C    0.147222
    67  C   -0.022280
    68  C    0.052027
    69  C   -0.043411
    70  C   -0.041497
    71  C   -0.001802
    72  C   -0.071640
    73  C   -0.044051
    74  C    0.010431
    75  C   -0.078339
    76  C   -0.024878
    77  C    0.028349
    78  C    0.058752
    79  C   -0.043231
    80  C   -0.067181
    81  C    0.000993
    82  C   -0.033473
    83  C   -0.079114
    84  C    0.010738
    85  C   -0.014844
    86  C   -0.042204
    87  C    0.051658
    88  C   -0.029563
    89  C    0.005242
    90  C   -0.006455
    91  C    0.027202
    92  C   -0.031646
    93  C    0.138668
    94  N   -0.317523
    95  C    0.134829
    96  C   -0.020624
    97  C   -0.036056
    98  C   -0.000818
    99  C    0.002438
   100  C   -0.058764
   101  C    0.181670
   102  O   -0.276138
   103  C    0.218038
   104  C   -0.078893
   105  C    0.001939
   106  C    0.005918
   107  C   -0.015156
   108  C   -0.028487
   109  C    0.004682
   110  C   -0.006415
   111  C    0.027766
   112  H    0.059980
   113  H    0.098660
   114  H    0.099759
   115  H    0.051084
   116  H    0.037178
   117  H    0.026914
   118  H    0.027220
   119  H    0.036924
   120  H    0.039181
   121  H    0.047855
   122  H    0.059579
   123  H    0.046644
   124  H    0.060083
   125  H    0.099296
   126  H    0.105216
   127  H    0.049310
   128  H    0.036478
   129  H    0.040761
   130  H    0.041263
   131  H    0.042095
   132  H    0.041944
   133  H    0.040736
   134  H    0.040678
   135  H    0.047045
   136  H    0.059713
   137  H    0.046527
   138  C   -0.031583
   139  C    0.138613
   140  N   -0.317579
   141  C    0.134774
   142  C   -0.020541
   143  C    0.051716
   144  C   -0.042178
   145  C   -0.014880
   146  C    0.010768
   147  C   -0.079066
   148  C   -0.033472
   149  C    0.000970
   150  C   -0.067200
   151  C   -0.043205
   152  C    0.058853
   153  C    0.028354
   154  C   -0.024886
   155  C   -0.078378
   156  C    0.010394
   157  C   -0.044000
   158  C   -0.071646
   159  C   -0.001828
   160  C   -0.041413
   161  C   -0.043525
   162  C    0.051936
   163  C   -0.028392
   164  C    0.004725
   165  C   -0.006390
   166  C    0.027817
   167  C   -0.031563
   168  C    0.134661
   169  N   -0.317481
   170  C    0.147230
   171  C   -0.022308
   172  C   -0.015116
   173  C    0.005932
   174  C    0.001966
   175  C   -0.078906
   176  C    0.218053
   177  O   -0.276211
   178  C    0.181542
   179  C   -0.058651
   180  C    0.002451
   181  C   -0.000907
   182  C   -0.036055
   183  C   -0.029542
   184  C    0.005225
   185  C   -0.006532
   186  C    0.027263
   187  H    0.060048
   188  H    0.099337
   189  H    0.105193
   190  H    0.039193
   191  H    0.036917
   192  H    0.027171
   193  H    0.026913
   194  H    0.037209
   195  H    0.051053
   196  H    0.047020
   197  H    0.059697
   198  H    0.046491
   199  H    0.060011
   200  H    0.098695
   201  H    0.099722
   202  H    0.040706
   203  H    0.040722
   204  H    0.041941
   205  H    0.042142
   206  H    0.041267
   207  H    0.040747
   208  H    0.036537
   209  H    0.049278
   210  H    0.047834
   211  H    0.059602
   212  H    0.046658
 Sum of Mulliken charges =   4.00000

 Dipole moment (field-independent basis, Debye):
    X=             -0.0043    Y=            -56.6208    Z=             -0.0005  Tot=             56.6208
 Quadrupole moment (field-independent basis, Debye-Ang):
   XX=            223.7990   YY=           -399.6224   ZZ=           -664.5017
   XY=             -0.0119   XZ=            -16.1448   YZ=              0.0041

 Normal termination of Gaussian 16 at Fri Jun  2 06:12:44 2023.
