 Gaussian 16, Revision C.01,
 Gaussian 16:  ES64L-G16RevC.01  3-Jul-2019

 ------------------------------------------------------------------
 # SP PBE1PBE/def2svp empiricaldispersion=GD3BJ scrf=(solvent=dmso)
 ------------------------------------------------------------------

 ---------
 cis_l3_lc
 ---------
 Symbolic Z-matrix:
 Charge =  4 Multiplicity = 1

                         Standard orientation:
 ---------------------------------------------------------------------
 Center     Atomic      Atomic             Coordinates (Angstroms)
 Number     Number       Type             X           Y           Z
 ---------------------------------------------------------------------
      1         46           0        6.618704   -2.413192   -0.274096
      2         46           0       -6.618696   -2.413199   -0.273996
      3          6           0        3.028803   -1.678094   -2.294396
      4          6           0        4.290503   -1.534293   -1.751596
      5          7           0        5.170804   -2.546493   -1.709196
      6          6           0        4.853204   -3.709393   -2.298196
      7          6           0        3.606404   -3.934094   -2.858096
      8          6           0        2.631204   -2.924994   -2.804896
      9          6           0        1.244404   -3.182695   -3.166196
     10          6           0        0.705304   -4.199495   -3.934196
     11          6           0       -0.705296   -4.199496   -3.934196
     12          6           0       -1.244396   -3.182696   -3.166196
     13         16           0        0.000003   -2.220696   -2.453196
     14          6           0       -2.631196   -2.924997   -2.804896
     15          6           0       -3.028897   -1.678197   -2.294396
     16          6           0       -4.290497   -1.534298   -1.751496
     17          7           0       -5.170896   -2.546498   -1.709196
     18          6           0       -4.853196   -3.709398   -2.298196
     19          6           0       -3.606396   -3.934097   -2.858096
     20          1           0        2.348403   -0.825194   -2.277996
     21          1           0        4.592103   -0.589893   -1.294196
     22          1           0        5.606505   -4.498893   -2.271596
     23          1           0        3.381705   -4.920794   -3.263696
     24          1           0        1.309905   -4.922195   -4.482796
     25          1           0       -1.309995   -4.922196   -4.482796
     26          1           0       -2.348397   -0.825197   -2.277896
     27          1           0       -4.592097   -0.589898   -1.294096
     28          1           0       -5.606495   -4.498899   -2.271496
     29          1           0       -3.381695   -4.920697   -3.263696
     30          6           0        3.014704   -2.643594    1.854504
     31          6           0        4.273903   -2.264193    1.433704
     32          7           0        5.165104   -3.147993    0.958604
     33          6           0        4.860105   -4.454793    0.980904
     34          6           0        3.615605   -4.913594    1.380104
     35          6           0        2.629904   -3.991694    1.767604
     36          6           0        1.244505   -4.389895    1.972404
     37          6           0        0.705505   -5.641695    2.211804
     38          6           0       -0.705495   -5.641696    2.211704
     39          6           0       -1.244395   -4.389996    1.972404
     40         16           0        0.000004   -3.213196    1.755104
     41          6           0       -2.629796   -3.991797    1.767504
     42          6           0       -3.014696   -2.643697    1.854704
     43          6           0       -4.273997   -2.264398    1.433904
     44          7           0       -5.165096   -3.148098    0.958604
     45          6           0       -4.859995   -4.454898    0.980604
     46          6           0       -3.615495   -4.913697    1.379704
     47          1           0        2.325103   -1.875394    2.208504
     48          1           0        4.562003   -1.210793    1.433104
     49          1           0        5.622405   -5.145993    0.616504
     50          1           0        3.401505   -5.980394    1.314004
     51          1           0        1.309906   -6.532395    2.386704
     52          1           0       -1.309794   -6.532396    2.386604
     53          1           0       -2.325297   -1.875597    2.208904
     54          1           0       -4.562197   -1.210998    1.433404
     55          1           0       -5.622195   -5.146099    0.616004
     56          1           0       -3.401195   -5.980497    1.313304
     57          6           0       -9.908596   -2.472101    2.473804
     58          6           0       -9.770297   -1.234901    3.154104
     59          6           0       -8.613098   -0.451400    2.869304
     60          6           0       -8.392498    0.799800    3.526404
     61          6           0       -9.366698    1.257799    4.391204
     62          6           0      -10.524398    0.491599    4.661104
     63          6           0      -10.722997   -0.738301    4.075104
     64          6           0       -7.141999    1.553701    3.277404
     65          6           0       -7.165099    2.859501    2.769504
     66          6           0       -5.981900    3.539201    2.502004
     67          6           0       -4.736699    2.929702    2.742904
     68          6           0       -3.515300    3.617003    2.488904
     69          6           0       -2.454700    4.190403    2.309104
     70          6           0       -1.218500    4.880304    2.142004
     71          6           0       -1.207601    6.263204    1.881304
     72          6           0       -0.000001    6.940704    1.757804
     73          6           0        1.207599    6.263305    1.881404
     74          6           0        1.218600    4.880405    2.142004
     75          6           0        2.454800    4.190506    2.309204
     76          6           0        3.515500    3.617206    2.488904
     77          6           0        4.736801    2.929807    2.743004
     78          6           0        4.713801    1.623207    3.266904
     79          6           0        5.898702    0.951108    3.529404
     80          6           0        7.142201    1.553808    3.277304
     81          6           0        8.392602    0.799809    3.526404
     82          6           0        8.613102   -0.451391    2.869304
     83          6           0        9.770203   -1.234990    3.154104
     84          6           0        9.908504   -2.472190    2.473904
     85          6           0        8.977704   -2.859091    1.544704
     86          7           0        7.914203   -2.066491    1.240204
     87          6           0        7.737203   -0.922291    1.873704
     88          6           0       10.722903   -0.738490    4.075204
     89          6           0       10.524402    0.491510    4.661204
     90          6           0        9.366802    1.257709    4.391204
     91          6           0        7.165201    2.859608    2.769504
     92          6           0        5.982000    3.539308    2.501904
     93          6           0        0.000100    4.195404    2.267404
     94          6           0       -4.713699    1.623002    3.266804
     95          6           0       -5.898598    0.951001    3.529404
     96          6           0       -7.737097   -0.922300    1.873804
     97          7           0       -7.914197   -2.066600    1.240304
     98          6           0       -8.977696   -2.859100    1.544604
     99          1           0      -10.764696   -3.116901    2.678304
    100          1           0       -9.226099    2.214000    4.899604
    101          1           0      -11.263798    0.882798    5.363304
    102          1           0      -11.610197   -1.332102    4.303104
    103          1           0       -8.123800    3.339900    2.561104
    104          1           0       -6.014000    4.551601    2.095404
    105          1           0       -2.154101    6.796503    1.778204
    106          1           0       -0.000002    8.012704    1.553504
    107          1           0        2.154099    6.796606    1.778204
    108          1           0        3.755502    1.143306    3.474104
    109          1           0        5.862302   -0.057392    3.948804
    110          1           0       10.764604   -3.117090    2.678504
    111          1           0        9.056104   -3.801591    1.001404
    112          1           0        6.883102   -0.313092    1.574804
    113          1           0       11.610103   -1.332289    4.303304
    114          1           0       11.263802    0.882610    5.363504
    115          1           0        9.226201    2.214009    4.899604
    116          1           0        8.123900    3.339909    2.561004
    117          1           0        6.014200    4.551708    2.095304
    118          1           0        0.000101    3.124304    2.474604
    119          1           0       -3.755398    1.143102    3.474004
    120          1           0       -5.862198   -0.057499    3.948704
    121          1           0       -6.882898   -0.313199    1.575004
    122          1           0       -9.056096   -3.801600    1.001404
    123          6           0      -10.021497   -1.484601   -2.670596
    124          6           0       -9.878698   -0.099401   -2.937396
    125          6           0       -8.678198    0.539700   -2.503796
    126          6           0       -8.460099    1.930400   -2.761496
    127          6           0       -9.474799    2.642099   -3.373996
    128          6           0      -10.672999    2.014899   -3.782296
    129          6           0      -10.872398    0.666699   -3.590696
    130          6           0       -7.179599    2.586701   -2.414196
    131          6           0       -5.960599    2.057101   -2.869096
    132          6           0       -4.758499    2.693402   -2.593596
    133          6           0       -4.738700    3.894302   -1.859296
    134          6           0       -3.509100    4.584703   -1.652496
    135          6           0       -2.451801    5.182803   -1.552096
    136          6           0       -1.217801    5.896204   -1.503896
    137          6           0       -1.208202    7.303404   -1.498196
    138          6           0       -0.000002    7.992504   -1.496196
    139          6           0        1.208098    7.303305   -1.498196
    140          6           0        1.217699    5.896205   -1.503896
    141          6           0        2.451699    5.182806   -1.552096
    142          6           0        3.509000    4.584606   -1.652496
    143          6           0        4.738600    3.894207   -1.859396
    144          6           0        5.957100    4.419208   -1.391596
    145          6           0        7.156300    3.773408   -1.667496
    146          6           0        7.179501    2.586608   -2.414296
    147          6           0        8.460001    1.930409   -2.761596
    148          6           0        8.678102    0.539709   -2.503896
    149          6           0        9.878702   -0.099390   -2.937496
    150          6           0       10.021503   -1.484590   -2.670696
    151          6           0        9.051103   -2.156891   -1.976296
    152          7           0        7.943603   -1.516591   -1.511296
    153          6           0        7.761402   -0.233891   -1.764796
    154          6           0       10.872302    0.666810   -3.590796
    155          6           0       10.672901    2.014910   -3.782396
    156          6           0        9.474701    2.642110   -3.374096
    157          6           0        5.960501    2.057108   -2.869296
    158          6           0        4.758401    2.693407   -2.593796
    159          6           0       -0.000101    5.200504   -1.502096
    160          6           0       -5.957200    4.419401   -1.391696
    161          6           0       -7.156400    3.773501   -1.667496
    162          6           0       -7.761398   -0.233900   -1.764696
    163          7           0       -7.943597   -1.516600   -1.511296
    164          6           0       -9.051097   -2.156900   -1.976196
    165          1           0      -10.911597   -2.018401   -3.007096
    166          1           0       -9.332100    3.705199   -3.579096
    167          1           0      -11.441399    2.613398   -4.276296
    168          1           0      -11.789698    0.179898   -3.927196
    169          1           0       -5.956898    1.150801   -3.479496
    170          1           0       -3.822299    2.277902   -2.971096
    171          1           0       -2.155102    7.845903   -1.499296
    172          1           0       -0.000003    9.084604   -1.492596
    173          1           0        2.155098    7.845806   -1.499296
    174          1           0        5.956099    5.345708   -0.814396
    175          1           0        8.092900    4.192709   -1.293196
    176          1           0       10.911603   -2.018390   -3.007196
    177          1           0        9.129804   -3.220991   -1.751196
    178          1           0        6.868202    0.236908   -1.350296
    179          1           0       11.789702    0.180011   -3.927296
    180          1           0       11.441301    2.613511   -4.276396
    181          1           0        9.332000    3.705209   -3.579096
    182          1           0        5.956802    1.150908   -3.479696
    183          1           0        3.822201    2.278007   -2.971396
    184          1           0       -0.000100    4.109804   -1.507696
    185          1           0       -5.956201    5.345901   -0.814596
    186          1           0       -8.093100    4.192900   -1.293296
    187          1           0       -6.868298    0.237001   -1.350196
    188          1           0       -9.129796   -3.221100   -1.751196
 ---------------------------------------------------------------------

 SCF Done:  E(RPBE1PBE) =  -5637.22343345     A.U. after   20 cycles

 The electronic state is 1-A.
 Alpha  occ. eigenvalues --  -89.07130 -89.07098 -14.48409 -14.48409 -14.48374
 Alpha  occ. eigenvalues --  -14.48374 -14.48298 -14.48298 -14.48278 -14.48278
 Alpha  occ. eigenvalues --  -10.32332 -10.32332 -10.32233 -10.32233 -10.32220
 Alpha  occ. eigenvalues --  -10.32219 -10.32194 -10.32193 -10.32111 -10.32111
 Alpha  occ. eigenvalues --  -10.32100 -10.32100 -10.31398 -10.31395 -10.31375
 Alpha  occ. eigenvalues --  -10.31372 -10.30968 -10.30968 -10.30945 -10.30945
 Alpha  occ. eigenvalues --  -10.30703 -10.30702 -10.30689 -10.30687 -10.29065
 Alpha  occ. eigenvalues --  -10.29064 -10.29061 -10.29060 -10.28885 -10.28885
 Alpha  occ. eigenvalues --  -10.28782 -10.28782 -10.28684 -10.28684 -10.28671
 Alpha  occ. eigenvalues --  -10.28670 -10.28657 -10.28656 -10.28649 -10.28648
 Alpha  occ. eigenvalues --  -10.28555 -10.28554 -10.28545 -10.28544 -10.28535
 Alpha  occ. eigenvalues --  -10.28535 -10.28497 -10.28497 -10.28302 -10.28300
 Alpha  occ. eigenvalues --  -10.28230 -10.28228 -10.27894 -10.27894 -10.27874
 Alpha  occ. eigenvalues --  -10.27874 -10.27738 -10.27735 -10.27703 -10.27700
 Alpha  occ. eigenvalues --  -10.27617 -10.27617 -10.27561 -10.27561 -10.27160
 Alpha  occ. eigenvalues --  -10.27159 -10.27145 -10.27145 -10.26932 -10.26931
 Alpha  occ. eigenvalues --  -10.26925 -10.26925 -10.26788 -10.26787 -10.26784
 Alpha  occ. eigenvalues --  -10.26783 -10.26620 -10.26617 -10.26527 -10.26526
 Alpha  occ. eigenvalues --  -10.26513 -10.26512 -10.26464 -10.26463 -10.26460
 Alpha  occ. eigenvalues --  -10.26460 -10.26447 -10.26447 -10.26415 -10.26414
 Alpha  occ. eigenvalues --  -10.26323 -10.26322 -10.26301 -10.26301 -10.26187
 Alpha  occ. eigenvalues --  -10.26183 -10.26168 -10.26165 -10.25937 -10.25933
 Alpha  occ. eigenvalues --  -10.25919 -10.25917 -10.25721 -10.25716 -10.25713
 Alpha  occ. eigenvalues --  -10.25685 -10.25682 -10.25615  -8.07233  -8.07203
 Alpha  occ. eigenvalues --   -6.01363  -6.01333  -6.00976  -6.00947  -6.00686
 Alpha  occ. eigenvalues --   -6.00657  -3.56974  -3.56974  -2.24985  -2.24984
 Alpha  occ. eigenvalues --   -2.24621  -2.24621  -2.20687  -2.20687  -1.03558
 Alpha  occ. eigenvalues --   -1.03552  -1.02913  -1.02911  -1.02714  -1.02703
 Alpha  occ. eigenvalues --   -1.02587  -1.02587  -0.95519  -0.95483  -0.92549
 Alpha  occ. eigenvalues --   -0.92549  -0.92503  -0.92502  -0.91027  -0.90692
 Alpha  occ. eigenvalues --   -0.90422  -0.90381  -0.90378  -0.90304  -0.89517
 Alpha  occ. eigenvalues --   -0.89367  -0.87126  -0.86945  -0.85552  -0.85484
 Alpha  occ. eigenvalues --   -0.85480  -0.85417  -0.83625  -0.83440  -0.83248
 Alpha  occ. eigenvalues --   -0.83178  -0.82885  -0.82799  -0.82760  -0.82682
 Alpha  occ. eigenvalues --   -0.82492  -0.82380  -0.82172  -0.82007  -0.81639
 Alpha  occ. eigenvalues --   -0.81458  -0.80340  -0.80151  -0.79337  -0.79270
 Alpha  occ. eigenvalues --   -0.78802  -0.78802  -0.78746  -0.78744  -0.78539
 Alpha  occ. eigenvalues --   -0.78399  -0.78395  -0.78350  -0.78291  -0.78258
 Alpha  occ. eigenvalues --   -0.75188  -0.75114  -0.74549  -0.74448  -0.71605
 Alpha  occ. eigenvalues --   -0.71383  -0.70748  -0.70657  -0.70601  -0.70460
 Alpha  occ. eigenvalues --   -0.70406  -0.70215  -0.70001  -0.69572  -0.68960
 Alpha  occ. eigenvalues --   -0.68956  -0.68793  -0.68783  -0.67981  -0.67920
 Alpha  occ. eigenvalues --   -0.67911  -0.67850  -0.67630  -0.67445  -0.65583
 Alpha  occ. eigenvalues --   -0.65481  -0.65277  -0.65140  -0.64570  -0.64510
 Alpha  occ. eigenvalues --   -0.64489  -0.64431  -0.63077  -0.62922  -0.62901
 Alpha  occ. eigenvalues --   -0.62751  -0.62017  -0.61635  -0.61633  -0.61324
 Alpha  occ. eigenvalues --   -0.59250  -0.59162  -0.58765  -0.58435  -0.58427
 Alpha  occ. eigenvalues --   -0.58094  -0.58092  -0.57999  -0.57931  -0.57529
 Alpha  occ. eigenvalues --   -0.57389  -0.57325  -0.57157  -0.57118  -0.56742
 Alpha  occ. eigenvalues --   -0.56738  -0.56332  -0.56181  -0.55836  -0.55806
 Alpha  occ. eigenvalues --   -0.55685  -0.55669  -0.55475  -0.55301  -0.54579
 Alpha  occ. eigenvalues --   -0.54442  -0.53686  -0.53433  -0.51893  -0.51890
 Alpha  occ. eigenvalues --   -0.51840  -0.51693  -0.51679  -0.51588  -0.51422
 Alpha  occ. eigenvalues --   -0.51370  -0.51264  -0.51260  -0.51021  -0.50996
 Alpha  occ. eigenvalues --   -0.50728  -0.50668  -0.50512  -0.50497  -0.50418
 Alpha  occ. eigenvalues --   -0.50375  -0.50196  -0.50136  -0.49971  -0.49947
 Alpha  occ. eigenvalues --   -0.49387  -0.49235  -0.49220  -0.49183  -0.49042
 Alpha  occ. eigenvalues --   -0.48876  -0.48643  -0.48605  -0.48598  -0.48561
 Alpha  occ. eigenvalues --   -0.48505  -0.48443  -0.47746  -0.47706  -0.47679
 Alpha  occ. eigenvalues --   -0.47664  -0.47471  -0.47165  -0.46946  -0.46848
 Alpha  occ. eigenvalues --   -0.46725  -0.46708  -0.46532  -0.46490  -0.46469
 Alpha  occ. eigenvalues --   -0.46133  -0.46098  -0.45801  -0.45772  -0.45720
 Alpha  occ. eigenvalues --   -0.45645  -0.45639  -0.45417  -0.45415  -0.44829
 Alpha  occ. eigenvalues --   -0.44520  -0.44322  -0.44279  -0.44260  -0.44186
 Alpha  occ. eigenvalues --   -0.44047  -0.43965  -0.43703  -0.43254  -0.43064
 Alpha  occ. eigenvalues --   -0.43053  -0.42999  -0.42593  -0.42513  -0.42443
 Alpha  occ. eigenvalues --   -0.42293  -0.42123  -0.42088  -0.42081  -0.41891
 Alpha  occ. eigenvalues --   -0.41605  -0.41528  -0.41515  -0.41438  -0.41433
 Alpha  occ. eigenvalues --   -0.41155  -0.41146  -0.40649  -0.40463  -0.40030
 Alpha  occ. eigenvalues --   -0.39999  -0.39982  -0.39916  -0.39609  -0.39477
 Alpha  occ. eigenvalues --   -0.39277  -0.38782  -0.38709  -0.38689  -0.38426
 Alpha  occ. eigenvalues --   -0.38394  -0.38243  -0.38099  -0.38030  -0.37891
 Alpha  occ. eigenvalues --   -0.37807  -0.37766  -0.37721  -0.37412  -0.37371
 Alpha  occ. eigenvalues --   -0.37246  -0.36684  -0.36507  -0.36123  -0.36095
 Alpha  occ. eigenvalues --   -0.35762  -0.35371  -0.35175  -0.34714  -0.34319
 Alpha  occ. eigenvalues --   -0.34242  -0.34220  -0.34090  -0.33967  -0.33959
 Alpha  occ. eigenvalues --   -0.33472  -0.33389  -0.33343  -0.33134  -0.32705
 Alpha  occ. eigenvalues --   -0.32666  -0.32211  -0.31557  -0.31373  -0.31336
 Alpha  occ. eigenvalues --   -0.31166  -0.31005  -0.30991  -0.30817  -0.30691
 Alpha  occ. eigenvalues --   -0.30648  -0.30346  -0.29974  -0.29968  -0.29701
 Alpha  occ. eigenvalues --   -0.29580  -0.29565  -0.29218  -0.29123  -0.29058
 Alpha  occ. eigenvalues --   -0.29058  -0.28777  -0.28771  -0.27503  -0.27295
 Alpha  occ. eigenvalues --   -0.27071  -0.26795  -0.26633  -0.26469  -0.25147
 Alpha  occ. eigenvalues --   -0.24674  -0.24458  -0.23558
 Alpha virt. eigenvalues --   -0.11941  -0.11212  -0.09706  -0.09617  -0.09151
 Alpha virt. eigenvalues --   -0.09079  -0.08695  -0.07968  -0.07784  -0.07676
 Alpha virt. eigenvalues --   -0.07050  -0.07023  -0.06684  -0.06574  -0.06281

 Mulliken charges:
               1
     1  Pd   0.511602
     2  Pd   0.511562
     3  C   -0.056930
     4  C    0.142105
     5  N   -0.323729
     6  C    0.153032
     7  C   -0.041749
     8  C    0.096110
     9  C   -0.106968
    10  C    0.006220
    11  C    0.006192
    12  C   -0.106975
    13  S    0.163914
    14  C    0.096153
    15  C   -0.057034
    16  C    0.142118
    17  N   -0.323767
    18  C    0.153028
    19  C   -0.041695
    20  H    0.073210
    21  H    0.098957
    22  H    0.104598
    23  H    0.070214
    24  H    0.064130
    25  H    0.064165
    26  H    0.073278
    27  H    0.098964
    28  H    0.104591
    29  H    0.070153
    30  C   -0.059562
    31  C    0.148253
    32  N   -0.321614
    33  C    0.152947
    34  C   -0.041798
    35  C    0.096563
    36  C   -0.105893
    37  C    0.005760
    38  C    0.005715
    39  C   -0.105777
    40  S    0.161262
    41  C    0.096459
    42  C   -0.059446
    43  C    0.148212
    44  N   -0.321586
    45  C    0.152953
    46  C   -0.041788
    47  H    0.073671
    48  H    0.093224
    49  H    0.105139
    50  H    0.070118
    51  H    0.064150
    52  H    0.064123
    53  H    0.073598
    54  H    0.093224
    55  H    0.105130
    56  H    0.070156
    57  C   -0.034631
    58  C    0.033216
    59  C   -0.022264
    60  C    0.046339
    61  C   -0.020517
    62  C    0.002184
    63  C   -0.004830
    64  C   -0.066932
    65  C    0.002044
    66  C    0.006666
    67  C   -0.074879
    68  C   -0.032443
    69  C    0.001830
    70  C   -0.078275
    71  C    0.027494
    72  C   -0.021068
    73  C    0.027494
    74  C   -0.078251
    75  C    0.001866
    76  C   -0.032483
    77  C   -0.074851
    78  C    0.008863
    79  C   -0.045124
    80  C   -0.066984
    81  C    0.046390
    82  C   -0.022270
    83  C    0.033193
    84  C   -0.034629
    85  C    0.138495
    86  N   -0.318117
    87  C    0.141491
    88  C   -0.004882
    89  C    0.002167
    90  C   -0.020573
    91  C    0.002043
    92  C    0.006657
    93  C    0.013918
    94  C    0.008871
    95  C   -0.045135
    96  C    0.141470
    97  N   -0.318117
    98  C    0.138538
    99  H    0.061182
   100  H    0.045897
   101  H    0.060812
   102  H    0.047115
   103  H    0.041374
   104  H    0.041185
   105  H    0.037791
   106  H    0.049332
   107  H    0.037789
   108  H    0.041232
   109  H    0.051362
   110  H    0.061228
   111  H    0.093843
   112  H    0.113147
   113  H    0.047133
   114  H    0.060827
   115  H    0.045937
   116  H    0.041347
   117  H    0.041197
   118  H    0.029207
   119  H    0.041239
   120  H    0.051336
   121  H    0.113165
   122  H    0.093830
   123  C   -0.032498
   124  C    0.029776
   125  C   -0.022147
   126  C    0.050165
   127  C   -0.024738
   128  C    0.004126
   129  C   -0.004977
   130  C   -0.046015
   131  C   -0.046983
   132  C    0.008566
   133  C   -0.079139
   134  C   -0.035391
   135  C    0.010800
   136  C   -0.064845
   137  C    0.009019
   138  C   -0.026769
   139  C    0.008960
   140  C   -0.064847
   141  C    0.010812
   142  C   -0.035410
   143  C   -0.079154
   144  C    0.008115
   145  C   -0.013056
   146  C   -0.046050
   147  C    0.050186
   148  C   -0.022132
   149  C    0.029787
   150  C   -0.032485
   151  C    0.140285
   152  N   -0.315317
   153  C    0.139755
   154  C   -0.005007
   155  C    0.004122
   156  C   -0.024732
   157  C   -0.046900
   158  C    0.008571
   159  C    0.021174
   160  C    0.008128
   161  C   -0.013102
   162  C    0.139808
   163  N   -0.315263
   164  C    0.140227
   165  H    0.061309
   166  H    0.047624
   167  H    0.060525
   168  H    0.047349
   169  H    0.052924
   170  H    0.040389
   171  H    0.039255
   172  H    0.050495
   173  H    0.039295
   174  H    0.043640
   175  H    0.042287
   176  H    0.061311
   177  H    0.095061
   178  H    0.101529
   179  H    0.047387
   180  H    0.060551
   181  H    0.047610
   182  H    0.052870
   183  H    0.040387
   184  H    0.029086
   185  H    0.043610
   186  H    0.042333
   187  H    0.101520
   188  H    0.095102
 Sum of Mulliken charges =   4.00000

 Dipole moment (field-independent basis, Debye):
    X=              0.0008    Y=            -36.0003    Z=             -4.5853  Tot=             36.2912
 Quadrupole moment (field-independent basis, Debye-Ang):
   XX=            352.6640   YY=           -423.3752   ZZ=           -600.4275
   XY=             -0.0059   XZ=             -0.0037   YZ=             12.7805

 Normal termination of Gaussian 16 at Fri Jun  2 07:04:36 2023.
