 Gaussian 16, Revision C.01,
 Gaussian 16:  ES64L-G16RevC.01  3-Jul-2019

 ------------------------------------------------------------------
 # SP PBE1PBE/def2svp empiricaldispersion=GD3BJ scrf=(solvent=dmso)
 ------------------------------------------------------------------

 ---------
 cis_l1_lc
 ---------
 Symbolic Z-matrix:
 Charge =  4 Multiplicity = 1

                         Standard orientation:
 ---------------------------------------------------------------------
 Center     Atomic      Atomic             Coordinates (Angstroms)
 Number     Number       Type             X           Y           Z
 ---------------------------------------------------------------------
      1         46           0       -7.176497   -1.811594   -0.303103
      2         46           0        7.176503   -1.811313    0.303397
      3          6           0       -5.032497   -2.005796    1.650497
      4          7           0       -6.058398   -2.706695    1.142897
      5          6           0       -6.231500   -3.980495    1.521797
      6          6           0       -5.359400   -4.610996    2.396197
      7          6           0       -4.249599   -3.915597    2.896597
      8          6           0       -3.233300   -4.561099    3.747797
      9          6           0       -3.596002   -5.514198    4.723897
     10          6           0       -2.648402   -6.138100    5.530197
     11          6           0       -1.319902   -5.794201    5.317997
     12          8           0       -0.246203   -6.305103    5.980797
     13          6           0        0.860598   -5.725104    5.442597
     14          6           0        2.175498   -5.981406    5.807797
     15          6           0        3.166699   -5.307208    5.101597
     16          6           0        2.861500   -4.392307    4.069397
     17          6           0        3.931201   -3.731309    3.299097
     18          6           0        3.748603   -2.455508    2.743097
     19          6           0        4.730603   -1.903010    1.940697
     20          7           0        5.877102   -2.545711    1.675797
     21          6           0        6.097301   -3.745712    2.233797
     22          6           0        5.158600   -4.361610    3.044397
     23          6           0        1.524300   -4.140005    3.737897
     24          6           0        0.520199   -4.816104    4.424497
     25          6           0       -0.923701   -4.858702    4.345197
     26          6           0       -1.885800   -4.229601    3.561097
     27          6           0       -4.117598   -2.570898    2.518997
     28          1           0       -4.942495   -0.961397    1.343597
     29          1           0       -7.081900   -4.512994    1.091297
     30          1           0       -5.528102   -5.659696    2.644097
     31          1           0       -4.651202   -5.753397    4.871197
     32          1           0       -2.933803   -6.863699    6.292597
     33          1           0        2.418297   -6.681807    6.607597
     34          1           0        4.209898   -5.482809    5.371497
     35          1           0        2.841303   -1.880807    2.930297
     36          1           0        4.597205   -0.919109    1.486497
     37          1           0        7.048300   -4.229013    1.998397
     38          1           0        5.377199   -5.355211    3.436397
     39          1           0        1.268201   -3.456205    2.926897
     40          1           0       -1.588399   -3.517501    2.788897
     41          1           0       -3.305297   -1.953599    2.903697
     42          6           0       -6.096999   -3.746495   -2.232803
     43          7           0       -5.876798   -2.546395   -1.675003
     44          6           0       -4.730397   -1.903597   -1.940103
     45          6           0       -3.748297   -2.456298   -2.742503
     46          6           0       -3.930999   -3.732198   -3.298203
     47          6           0       -2.861300   -4.393299   -4.068403
     48          6           0       -3.166401   -5.308499   -5.100403
     49          6           0       -2.175202   -5.982800   -5.806503
     50          6           0       -0.860202   -5.726302   -5.441403
     51          8           0        0.246497   -6.306404   -5.979503
     52          6           0        1.320198   -5.795305   -5.316803
     53          6           0        2.648698   -6.139207   -5.528903
     54          6           0        3.596298   -5.515108   -4.722703
     55          6           0        3.233500   -4.561808   -3.746903
     56          6           0        4.249701   -3.916109   -2.895803
     57          6           0        5.359500   -4.611311   -2.395003
     58          6           0        6.231400   -3.980612   -1.520603
     59          7           0        6.058302   -2.706711   -1.142103
     60          6           0        5.032503   -2.005910   -1.650103
     61          6           0        4.117702   -2.571209   -2.518603
     62          6           0        1.886000   -4.230306   -3.560203
     63          6           0        0.923899   -4.859605   -4.344203
     64          6           0       -0.520001   -4.817103   -4.423503
     65          6           0       -1.524000   -4.140901   -3.737003
     66          6           0       -5.158300   -4.362496   -3.043303
     67          1           0       -7.047900   -4.229794   -1.997303
     68          1           0       -4.596895   -0.919697   -1.486103
     69          1           0       -2.840997   -1.881599   -2.929803
     70          1           0       -4.209602   -5.484098   -5.370203
     71          1           0       -2.418003   -6.683300   -6.606203
     72          1           0        2.934197   -6.865007   -6.291203
     73          1           0        4.651498   -5.754310   -4.870003
     74          1           0        5.528198   -5.660111   -2.642503
     75          1           0        7.081800   -4.512913   -1.089803
     76          1           0        4.942505   -0.961310   -1.343603
     77          1           0        3.305503   -1.954008   -2.903603
     78          1           0        1.588601   -3.518005   -2.788303
     79          1           0       -1.267899   -3.456902   -2.926203
     80          1           0       -5.376801   -5.356196   -3.435103
     81          6           0       10.497704   -1.310718   -2.308503
     82          6           0       10.349506   -0.000117   -2.828803
     83          6           0        9.178107    0.730284   -2.465403
     84          6           0        8.957909    2.049285   -2.974903
     85          6           0        9.941909    2.611583   -3.767003
     86          6           0       11.111408    1.896882   -4.108303
     87          6           0       11.311907    0.608581   -3.667903
     88          6           0        7.708710    2.784586   -2.681203
     89          6           0        7.747811    4.094986   -2.182803
     90          6           0        6.576212    4.797288   -1.930803
     91          6           0        5.323412    4.205990   -2.175303
     92          6           0        4.112813    4.923191   -1.962603
     93          6           0        3.058313    5.520993   -1.837003
     94          6           0        1.824014    6.226194   -1.745403
     95          6           0        1.809116    7.632994   -1.701503
     96          6           0        0.598917    8.315296   -1.653003
     97          6           0       -0.605684    7.620198   -1.641203
     98          6           0       -0.610986    6.213698   -1.679803
     99          6           0       -1.848987    5.506699   -1.703103
    100          6           0       -2.925487    4.938801   -1.772403
    101          6           0       -4.198088    4.324102   -1.953303
    102          6           0       -4.309290    3.071403   -2.585003
    103          6           0       -5.557291    2.535404   -2.874803
    104          6           0       -6.734690    3.226106   -2.542403
    105          6           0       -8.059790    2.733708   -2.982503
    106          6           0       -8.499592    1.391508   -2.749303
    107          6           0       -9.740193    0.933810   -3.290403
    108          6           0      -10.114695   -0.410390   -3.042303
    109          6           0       -9.325696   -1.211191   -2.261303
    110          7           0       -8.181595   -0.740292   -1.695503
    111          6           0       -7.779293    0.495707   -1.932903
    112          6           0      -10.550992    1.829011   -4.026403
    113          6           0      -10.141490    3.131311   -4.195503
    114          6           0       -8.904789    3.577909   -3.681203
    115          6           0       -6.620788    4.451906   -1.868303
    116          6           0       -5.376487    4.993504   -1.574403
    117          6           0        0.609713    5.524496   -1.731103
    118          6           0        5.282210    2.890890   -2.674403
    119          6           0        6.456509    2.196588   -2.925303
    120          6           0        8.291606    0.125285   -1.551403
    121          7           0        8.473404   -1.091415   -1.074503
    122          6           0        9.555603   -1.823816   -1.457703
    123          1           0       11.368303   -1.911619   -2.576403
    124          1           0        9.795811    3.617583   -4.165903
    125          1           0       11.855709    2.374881   -4.748803
    126          1           0       12.206706    0.050380   -3.949803
    127          1           0        8.712612    4.563985   -1.977303
    128          1           0        6.623014    5.815388   -1.540403
    129          1           0        2.753717    8.179493   -1.710903
    130          1           0        0.593519    9.406696   -1.617403
    131          1           0       -1.554283    8.157599   -1.599003
    132          1           0       -3.405091    2.538301   -2.884203
    133          1           0       -5.614992    1.588204   -3.416403
    134          1           0      -11.041495   -0.806888   -3.459703
    135          1           0       -9.584997   -2.247690   -2.042403
    136          1           0       -6.864893    0.826406   -1.436603
    137          1           0      -11.496592    1.476812   -4.443003
    138          1           0      -10.767089    3.831811   -4.752803
    139          1           0       -8.590088    4.605908   -3.872903
    140          1           0       -7.524487    4.991007   -1.575203
    141          1           0       -5.305086    5.954204   -1.061603
    142          1           0        0.614912    4.434196   -1.763103
    143          1           0        4.317109    2.425291   -2.882003
    144          1           0        6.400208    1.188488   -3.343003
    145          1           0        7.419907    0.673087   -1.190503
    146          1           0        9.637402   -2.826116   -1.035103
    147          6           0       10.115605   -0.409617    3.041497
    148          6           0        9.741107    0.934684    3.289597
    149          6           0        8.500308    1.392185    2.748797
    150          6           0        8.060610    2.734386    2.981897
    151          6           0        8.905711    3.578785    3.680197
    152          6           0       10.142510    3.132283    4.194197
    153          6           0       10.552008    1.829982    4.025197
    154          6           0        6.735310    3.226688    2.542097
    155          6           0        5.558109    2.535889    2.874997
    156          6           0        4.310010    3.071791    2.585297
    157          6           0        4.198512    4.324191    1.953297
    158          6           0        2.925713    4.938693    1.772497
    159          6           0        1.849113    5.506394    1.703297
    160          6           0        0.611114    6.213296    1.680197
    161          6           0        0.605716    7.619696    1.641497
    162          6           0       -0.598983    8.314798    1.653397
    163          6           0       -1.809084    7.632399    1.701897
    164          6           0       -1.823886    6.225699    1.745797
    165          6           0       -3.058287    5.520401    1.837397
    166          6           0       -4.112787    4.922702    1.962797
    167          6           0       -5.323688    4.205804    2.175297
    168          6           0       -6.576288    4.797106    1.929697
    169          6           0       -7.748089    4.095107    2.181197
    170          6           0       -7.709490    2.785007    2.680397
    171          6           0       -8.958991    2.050009    2.973497
    172          6           0       -9.179193    0.731009    2.463997
    173          6           0      -10.351194    0.001011    2.826497
    174          6           0      -10.499496   -1.309489    2.306097
    175          6           0       -9.556897   -1.822990    1.456097
    176          7           0       -8.473996   -1.091292    1.074097
    177          6           0       -8.292094    0.125408    1.550997
    178          6           0      -11.314193    0.610212    3.664697
    179          6           0      -11.113492    1.898512    4.105097
    180          6           0       -9.943491    2.612710    3.764697
    181          6           0       -6.457491    2.197006    2.925797
    182          6           0       -5.282990    2.891004    2.675397
    183          6           0       -0.609587    5.523998    1.731497
    184          6           0        5.376713    4.993589    1.573897
    185          6           0        6.621112    4.452288    1.867597
    186          6           0        7.779907    0.496286    1.932697
    187          7           0        8.182105   -0.739714    1.695297
    188          6           0        9.326404   -1.210616    2.260897
    189          1           0       11.042505   -0.806018    3.458697
    190          1           0        8.591012    4.606785    3.871797
    191          1           0       10.768311    3.832882    4.751197
    192          1           0       11.497808    1.477881    4.441597
    193          1           0        5.616008    1.588889    3.416897
    194          1           0        3.405809    2.538592    2.884997
    195          1           0        1.554217    8.157195    1.599297
    196          1           0       -0.593581    9.406198    1.617797
    197          1           0       -2.753783    8.178900    1.711297
    198          1           0       -6.622586    5.815006    1.538597
    199          1           0       -8.712688    4.564109    1.974797
    200          1           0      -11.370597   -1.909988    2.573197
    201          1           0       -9.638898   -2.825290    1.033497
    202          1           0       -7.419693    0.672807    1.190897
    203          1           0      -12.209394    0.052413    3.945797
    204          1           0      -11.858191    2.376813    4.744897
    205          1           0       -9.797389    3.618810    4.163497
    206          1           0       -6.401692    1.189205    3.344197
    207          1           0       -4.317991    2.425503    2.883797
    208          1           0       -0.614788    4.433698    1.763497
    209          1           0        5.305014    5.954090    1.060797
    210          1           0        7.524613    4.991287    1.574097
    211          1           0        6.865307    0.826887    1.436697
    212          1           0        9.585603   -2.247016    2.041997
 ---------------------------------------------------------------------

 SCF Done:  E(RPBE1PBE) =  -5605.03127250     A.U. after   19 cycles

 The electronic state is 1-A.
 Alpha  occ. eigenvalues --  -19.30235 -19.30234 -14.48186 -14.48185 -14.48157
 Alpha  occ. eigenvalues --  -14.48157 -14.48099 -14.48098 -14.48065 -14.48064
 Alpha  occ. eigenvalues --  -10.32301 -10.32301 -10.32266 -10.32266 -10.32227
 Alpha  occ. eigenvalues --  -10.32226 -10.32118 -10.32118 -10.31685 -10.31684
 Alpha  occ. eigenvalues --  -10.31670 -10.31670 -10.31667 -10.31666 -10.31640
 Alpha  occ. eigenvalues --  -10.31640 -10.30820 -10.30819 -10.30786 -10.30785
 Alpha  occ. eigenvalues --  -10.30138 -10.30137 -10.30097 -10.30095 -10.28980
 Alpha  occ. eigenvalues --  -10.28979 -10.28960 -10.28960 -10.28844 -10.28843
 Alpha  occ. eigenvalues --  -10.28765 -10.28765 -10.28507 -10.28507 -10.28441
 Alpha  occ. eigenvalues --  -10.28441 -10.28350 -10.28349 -10.28348 -10.28347
 Alpha  occ. eigenvalues --  -10.28127 -10.28124 -10.28076 -10.28076 -10.28007
 Alpha  occ. eigenvalues --  -10.28006 -10.27960 -10.27959 -10.27948 -10.27946
 Alpha  occ. eigenvalues --  -10.27940 -10.27939 -10.27760 -10.27759 -10.27753
 Alpha  occ. eigenvalues --  -10.27753 -10.27688 -10.27688 -10.27637 -10.27637
 Alpha  occ. eigenvalues --  -10.27494 -10.27494 -10.27445 -10.27444 -10.27296
 Alpha  occ. eigenvalues --  -10.27296 -10.27249 -10.27249 -10.27170 -10.27169
 Alpha  occ. eigenvalues --  -10.27145 -10.27145 -10.27063 -10.27063 -10.27057
 Alpha  occ. eigenvalues --  -10.27056 -10.27024 -10.27023 -10.27004 -10.27004
 Alpha  occ. eigenvalues --  -10.26827 -10.26826 -10.26826 -10.26826 -10.26729
 Alpha  occ. eigenvalues --  -10.26729 -10.26717 -10.26716 -10.26705 -10.26704
 Alpha  occ. eigenvalues --  -10.26696 -10.26696 -10.26471 -10.26469 -10.26372
 Alpha  occ. eigenvalues --  -10.26372 -10.26355 -10.26355 -10.26323 -10.26323
 Alpha  occ. eigenvalues --  -10.26307 -10.26307 -10.26300 -10.26299 -10.26257
 Alpha  occ. eigenvalues --  -10.26256 -10.26157 -10.26156 -10.26111 -10.26109
 Alpha  occ. eigenvalues --  -10.26039 -10.26032 -10.26024 -10.26023 -10.25729
 Alpha  occ. eigenvalues --  -10.25729 -10.25725 -10.25723 -10.25568 -10.25563
 Alpha  occ. eigenvalues --  -10.25509 -10.25508 -10.25482 -10.25481  -3.56688
 Alpha  occ. eigenvalues --   -3.56688  -2.24603  -2.24603  -2.24418  -2.24418
 Alpha  occ. eigenvalues --   -2.20404  -2.20403  -1.16384  -1.16382  -1.03129
 Alpha  occ. eigenvalues --   -1.03128  -1.02586  -1.02585  -1.02436  -1.02436
 Alpha  occ. eigenvalues --   -1.02402  -1.02400  -0.92435  -0.92434  -0.92376
 Alpha  occ. eigenvalues --   -0.92375  -0.92025  -0.92012  -0.91524  -0.91505
 Alpha  occ. eigenvalues --   -0.90926  -0.90513  -0.90306  -0.90268  -0.90224
 Alpha  occ. eigenvalues --   -0.90153  -0.87644  -0.87556  -0.87258  -0.87170
 Alpha  occ. eigenvalues --   -0.85451  -0.85384  -0.85348  -0.85290  -0.83487
 Alpha  occ. eigenvalues --   -0.83285  -0.82977  -0.82944  -0.82643  -0.82544
 Alpha  occ. eigenvalues --   -0.82532  -0.82455  -0.82372  -0.82362  -0.82295
 Alpha  occ. eigenvalues --   -0.82272  -0.82080  -0.81921  -0.81526  -0.81382
 Alpha  occ. eigenvalues --   -0.80535  -0.80490  -0.80274  -0.79955  -0.78708
 Alpha  occ. eigenvalues --   -0.78705  -0.78588  -0.78582  -0.78418  -0.78369
 Alpha  occ. eigenvalues --   -0.78267  -0.78196  -0.78119  -0.78111  -0.77138
 Alpha  occ. eigenvalues --   -0.77126  -0.75027  -0.74958  -0.74362  -0.74295
 Alpha  occ. eigenvalues --   -0.71007  -0.70902  -0.70886  -0.70767  -0.70562
 Alpha  occ. eigenvalues --   -0.70519  -0.70330  -0.70321  -0.69791  -0.69496
 Alpha  occ. eigenvalues --   -0.69362  -0.69167  -0.68886  -0.68868  -0.68722
 Alpha  occ. eigenvalues --   -0.68709  -0.67820  -0.67774  -0.67719  -0.67699
 Alpha  occ. eigenvalues --   -0.67299  -0.67217  -0.65431  -0.65342  -0.65111
 Alpha  occ. eigenvalues --   -0.65020  -0.64516  -0.64435  -0.64408  -0.64356
 Alpha  occ. eigenvalues --   -0.64289  -0.64246  -0.63272  -0.63224  -0.62949
 Alpha  occ. eigenvalues --   -0.62775  -0.62769  -0.62615  -0.62545  -0.62509
 Alpha  occ. eigenvalues --   -0.59828  -0.59350  -0.59146  -0.59032  -0.58988
 Alpha  occ. eigenvalues --   -0.58434  -0.58064  -0.58044  -0.57916  -0.57864
 Alpha  occ. eigenvalues --   -0.57515  -0.57421  -0.57241  -0.57140  -0.57066
 Alpha  occ. eigenvalues --   -0.57005  -0.56644  -0.56632  -0.56581  -0.56553
 Alpha  occ. eigenvalues --   -0.56110  -0.55983  -0.55676  -0.55674  -0.55577
 Alpha  occ. eigenvalues --   -0.55567  -0.54831  -0.54740  -0.53798  -0.53712
 Alpha  occ. eigenvalues --   -0.52980  -0.52891  -0.51800  -0.51659  -0.51655
 Alpha  occ. eigenvalues --   -0.51478  -0.51355  -0.51262  -0.51194  -0.51168
 Alpha  occ. eigenvalues --   -0.51046  -0.51033  -0.50977  -0.50868  -0.50800
 Alpha  occ. eigenvalues --   -0.50659  -0.50579  -0.50413  -0.50392  -0.50347
 Alpha  occ. eigenvalues --   -0.50338  -0.50314  -0.50019  -0.49915  -0.49863
 Alpha  occ. eigenvalues --   -0.49834  -0.49765  -0.49690  -0.49115  -0.49084
 Alpha  occ. eigenvalues --   -0.48995  -0.48927  -0.48682  -0.48609  -0.48535
 Alpha  occ. eigenvalues --   -0.48466  -0.48457  -0.48374  -0.48286  -0.48083
 Alpha  occ. eigenvalues --   -0.47975  -0.47815  -0.47764  -0.47566  -0.47566
 Alpha  occ. eigenvalues --   -0.47549  -0.47548  -0.47401  -0.47360  -0.47222
 Alpha  occ. eigenvalues --   -0.47049  -0.46751  -0.46703  -0.46563  -0.46459
 Alpha  occ. eigenvalues --   -0.46368  -0.46353  -0.46328  -0.45890  -0.45808
 Alpha  occ. eigenvalues --   -0.45731  -0.45588  -0.45551  -0.45546  -0.45488
 Alpha  occ. eigenvalues --   -0.45426  -0.45229  -0.45225  -0.44626  -0.44572
 Alpha  occ. eigenvalues --   -0.44334  -0.44143  -0.44107  -0.43414  -0.43401
 Alpha  occ. eigenvalues --   -0.43333  -0.43322  -0.42740  -0.42530  -0.42392
 Alpha  occ. eigenvalues --   -0.42316  -0.42302  -0.42246  -0.42141  -0.41917
 Alpha  occ. eigenvalues --   -0.41855  -0.41785  -0.41519  -0.41512  -0.41449
 Alpha  occ. eigenvalues --   -0.41391  -0.41280  -0.41224  -0.41178  -0.41159
 Alpha  occ. eigenvalues --   -0.41004  -0.40865  -0.40783  -0.40431  -0.40427
 Alpha  occ. eigenvalues --   -0.40335  -0.40142  -0.39767  -0.39740  -0.39663
 Alpha  occ. eigenvalues --   -0.39626  -0.39413  -0.39411  -0.38663  -0.38631
 Alpha  occ. eigenvalues --   -0.38624  -0.38540  -0.38224  -0.38093  -0.37973
 Alpha  occ. eigenvalues --   -0.37961  -0.37834  -0.37813  -0.37659  -0.37626
 Alpha  occ. eigenvalues --   -0.37435  -0.37408  -0.37220  -0.37034  -0.37014
 Alpha  occ. eigenvalues --   -0.36511  -0.36212  -0.35901  -0.35830  -0.35717
 Alpha  occ. eigenvalues --   -0.35449  -0.35049  -0.34909  -0.34789  -0.34715
 Alpha  occ. eigenvalues --   -0.34289  -0.34150  -0.33730  -0.33569  -0.33390
 Alpha  occ. eigenvalues --   -0.33364  -0.33243  -0.33160  -0.33095  -0.32262
 Alpha  occ. eigenvalues --   -0.32142  -0.32008  -0.31922  -0.31776  -0.31559
 Alpha  occ. eigenvalues --   -0.31343  -0.31328  -0.31227  -0.30944  -0.30925
 Alpha  occ. eigenvalues --   -0.30657  -0.30512  -0.30487  -0.29993  -0.29579
 Alpha  occ. eigenvalues --   -0.29573  -0.29414  -0.29272  -0.29203  -0.29021
 Alpha  occ. eigenvalues --   -0.28878  -0.28745  -0.28744  -0.28529  -0.28523
 Alpha  occ. eigenvalues --   -0.27493  -0.27054  -0.26856  -0.26757  -0.26170
 Alpha  occ. eigenvalues --   -0.26152  -0.26122  -0.26098  -0.24816  -0.24435
 Alpha  occ. eigenvalues --   -0.23988  -0.23549
 Alpha virt. eigenvalues --   -0.09679  -0.09596  -0.09129  -0.09078  -0.08795
 Alpha virt. eigenvalues --   -0.08495  -0.08254  -0.08075  -0.07488  -0.07306
 Alpha virt. eigenvalues --   -0.07168  -0.06843  -0.06527  -0.06445  -0.06345

 Mulliken charges:
               1
     1  Pd   0.506546
     2  Pd   0.506527
     3  C    0.145444
     4  N   -0.321033
     5  C    0.150799
     6  C   -0.042522
     7  C    0.053542
     8  C    0.015050
     9  C   -0.027736
    10  C   -0.073719
    11  C    0.205864
    12  O   -0.264441
    13  C    0.206452
    14  C   -0.072138
    15  C   -0.036365
    16  C    0.027121
    17  C    0.063139
    18  C   -0.056074
    19  C    0.150636
    20  N   -0.319486
    21  C    0.150965
    22  C   -0.048285
    23  C   -0.051529
    24  C    0.017664
    25  C    0.018264
    26  C   -0.048464
    27  C   -0.048024
    28  H    0.103217
    29  H    0.101302
    30  H    0.065617
    31  H    0.051881
    32  H    0.048188
    33  H    0.048083
    34  H    0.052738
    35  H    0.065483
    36  H    0.095956
    37  H    0.106226
    38  H    0.065346
    39  H    0.039375
    40  H    0.040271
    41  H    0.065017
    42  C    0.151030
    43  N   -0.319480
    44  C    0.150677
    45  C   -0.056131
    46  C    0.063165
    47  C    0.027034
    48  C   -0.036345
    49  C   -0.072068
    50  C    0.206364
    51  O   -0.264388
    52  C    0.205875
    53  C   -0.073794
    54  C   -0.027753
    55  C    0.015080
    56  C    0.053477
    57  C   -0.042476
    58  C    0.150771
    59  N   -0.321055
    60  C    0.145402
    61  C   -0.047990
    62  C   -0.048395
    63  C    0.018250
    64  C    0.017713
    65  C   -0.051513
    66  C   -0.048284
    67  H    0.106195
    68  H    0.095927
    69  H    0.065505
    70  H    0.052718
    71  H    0.048074
    72  H    0.048245
    73  H    0.051887
    74  H    0.065621
    75  H    0.101313
    76  H    0.103270
    77  H    0.065011
    78  H    0.040227
    79  H    0.039359
    80  H    0.065346
    81  C   -0.031831
    82  C    0.029114
    83  C   -0.020325
    84  C    0.051943
    85  C   -0.027938
    86  C    0.004148
    87  C   -0.006316
    88  C   -0.044513
    89  C   -0.013552
    90  C    0.008035
    91  C   -0.075199
    92  C   -0.038887
    93  C    0.018324
    94  C   -0.071810
    95  C    0.006870
    96  C   -0.023380
    97  C    0.029270
    98  C   -0.076350
    99  C    0.010060
   100  C   -0.025207
   101  C   -0.079320
   102  C    0.001242
   103  C   -0.033400
   104  C   -0.041515
   105  C    0.050879
   106  C   -0.020149
   107  C    0.027059
   108  C   -0.031639
   109  C    0.139303
   110  N   -0.318967
   111  C    0.132542
   112  C   -0.005930
   113  C    0.005010
   114  C   -0.028992
   115  C   -0.018257
   116  C    0.011670
   117  C    0.022253
   118  C    0.002171
   119  C   -0.043178
   120  C    0.140947
   121  N   -0.317927
   122  C    0.136034
   123  H    0.059764
   124  H    0.046734
   125  H    0.059783
   126  H    0.046582
   127  H    0.041237
   128  H    0.041047
   129  H    0.037332
   130  H    0.047226
   131  H    0.036573
   132  H    0.037835
   133  H    0.049701
   134  H    0.060072
   135  H    0.098268
   136  H    0.103515
   137  H    0.046824
   138  H    0.059652
   139  H    0.048225
   140  H    0.040514
   141  H    0.038606
   142  H    0.027080
   143  H    0.038277
   144  H    0.051407
   145  H    0.101247
   146  H    0.099835
   147  C   -0.031610
   148  C    0.027052
   149  C   -0.020096
   150  C    0.050841
   151  C   -0.028939
   152  C    0.004991
   153  C   -0.005990
   154  C   -0.041577
   155  C   -0.033415
   156  C    0.001093
   157  C   -0.079240
   158  C   -0.025151
   159  C    0.010009
   160  C   -0.076310
   161  C    0.029214
   162  C   -0.023371
   163  C    0.006803
   164  C   -0.071707
   165  C    0.018297
   166  C   -0.038964
   167  C   -0.075249
   168  C    0.008040
   169  C   -0.013497
   170  C   -0.044596
   171  C    0.051893
   172  C   -0.020307
   173  C    0.029083
   174  C   -0.031855
   175  C    0.135995
   176  N   -0.317843
   177  C    0.140886
   178  C   -0.006241
   179  C    0.004157
   180  C   -0.027939
   181  C   -0.043088
   182  C    0.002205
   183  C    0.022242
   184  C    0.011703
   185  C   -0.018140
   186  C    0.132514
   187  N   -0.318985
   188  C    0.139391
   189  H    0.060052
   190  H    0.048212
   191  H    0.059660
   192  H    0.046851
   193  H    0.049703
   194  H    0.037928
   195  H    0.036550
   196  H    0.047225
   197  H    0.037374
   198  H    0.041058
   199  H    0.041228
   200  H    0.059747
   201  H    0.099843
   202  H    0.101294
   203  H    0.046543
   204  H    0.059779
   205  H    0.046759
   206  H    0.051376
   207  H    0.038287
   208  H    0.027082
   209  H    0.038581
   210  H    0.040448
   211  H    0.103513
   212  H    0.098219
 Sum of Mulliken charges =   4.00000

 Dipole moment (field-independent basis, Debye):
    X=             -0.0013    Y=            -25.8533    Z=             -0.0042  Tot=             25.8533
 Quadrupole moment (field-independent basis, Debye-Ang):
   XX=            406.0781   YY=           -503.7960   ZZ=           -639.7644
   XY=              0.0002   XZ=             22.4541   YZ=             -0.0043

 Normal termination of Gaussian 16 at Fri Jun  2 05:35:51 2023.
