   * xtb version 6.3.1 (2faf18d) compiled by 'ehlert@majestix' on 2020-06-10
          program call               : /home/atarzia/software/xtb-6.3.1/bin/xtb input_structure_1.xyz --gfn 2 --opt tight --parallel 6 --etemp 300 --chrg 2 --uhf 0
          number of atoms            :                    43
          number of electrons        :                   126
          charge                     :                     2
          spin                       :                   0.0

   ID    Z sym.   atoms
    1   30 Zn     1
    2    6 C      2-4, 7-9, 16-18, 21-23, 30-32, 35-37
    3    1 H      5, 10-12, 14, 19, 24-26, 28, 29, 33, 38-40, 42, 43
    4    7 N      6, 13, 20, 27, 34, 41
    5   35 Br     15
########################################################################
[WARNING] Please study the warnings concerning your input carefully
-1- prog_main_parseArguments: Process number higher than OMP_NUM_THREADS, I hope you know what you are doing.
########################################################################

          :  Hamiltonian                  GFN2-xTB          :
 * total energy  :   -68.4741584 Eh     change       -0.1228571E-08 Eh
 * total energy  :   -68.5114176 Eh     change       -0.3725911E-01 Eh
 * total energy  :   -68.5194030 Eh     change       -0.7985397E-02 Eh
 * total energy  :   -68.5204585 Eh     change       -0.1055512E-02 Eh
 * total energy  :   -68.5208064 Eh     change       -0.3479136E-03 Eh
 * total energy  :   -68.5209583 Eh     change       -0.1519649E-03 Eh
 * total energy  :   -68.5210976 Eh     change       -0.1392815E-03 Eh
 * total energy  :   -68.5212057 Eh     change       -0.1080692E-03 Eh
 * total energy  :   -68.5212801 Eh     change       -0.7435494E-04 Eh
 * total energy  :   -68.5213414 Eh     change       -0.6136341E-04 Eh
 * total energy  :   -68.5217800 Eh     change       -0.2300915E-05 Eh
 * total energy  :   -68.5217788 Eh     change        0.1203584E-05 Eh
 * total energy  :   -68.5217807 Eh     change       -0.1920110E-05 Eh
 * total energy  :   -68.5217799 Eh     change        0.8658264E-06 Eh
 * total energy  :   -68.5217814 Eh     change       -0.1548909E-05 Eh
 * total energy  :   -68.5217809 Eh     change        0.5611558E-06 Eh
 * total energy  :   -68.5217821 Eh     change       -0.1240266E-05 Eh
 * total energy  :   -68.5217818 Eh     change        0.2699051E-06 Eh
 * total energy  :   -68.5217828 Eh     change       -0.9243256E-06 Eh
   *** GEOMETRY OPTIMIZATION CONVERGED AFTER 42 ITERATIONS ***

 final structure:
================
43
 xtb: 6.3.1 (2faf18d)
Zn       -0.38869130226941    0.27571930392622    0.29053636231738
C         1.01519700484323    4.94891021470576    0.75091980594137
C         1.90129222966162    3.88135144525417    0.73066928249663
C         1.39649440294906    2.58546062519717    0.63186658317636
H         2.96595507109102    4.04632114657321    0.78744419442929
N         0.07768692705115    2.33364160275394    0.55742394507592
C         2.29559301813699    1.44427975126944    0.61033178091792
C        -0.76119141959339    3.35884592103550    0.58155813723404
C        -0.34310410703480    4.68128613706536    0.67687859895139
H        -1.81392313395036    3.11866619305885    0.52500953931969
H        -1.06874521171697    5.47856854283322    0.69208743241816
H         1.37794959097516    5.96251362005460    0.82348904720154
N         1.80984066941158    0.27302192967556    0.48688763425798
H         3.35986883106167    1.65041261307846    0.70339385602800
Br        2.92851986487800   -1.20163915651619    0.46997475862993
C        -0.49686676055074   -1.17468602080519    4.95711232611459
C        -0.42938267660846   -2.03182451797131    3.86614304931460
C        -0.45664572226296   -1.49142024218257    2.58405470720188
H        -0.35490045950382   -3.09927110278120    4.00502325575194
N        -0.54648721862444   -0.16961453818727    2.36275770776011
C        -0.38656713845396   -2.34088123954193    1.40013744902848
C        -0.61533465311064    0.64165979927240    3.40596625480552
C        -0.59466557928682    0.18709245241585    4.72104532964387
H        -0.69249819760969    1.69871786115282    3.19148637084031
H        -0.65311807209832    0.89007247257714    5.53659526386130
H        -0.47451646208553   -1.56296754154340    5.96359764968255
N        -0.40110490327555   -1.80919103688782    0.25054910411359
H        -0.32402623084451   -3.41514922473515    1.56985428915683
H        -0.33759272179097   -2.45296574964315   -0.53282441527954
C        -5.01267927412825    0.61969297207295   -1.24060117408155
C        -3.90343979282664    0.61123109639530   -2.07694131806849
C        -2.63405349800017    0.54403283000693   -1.50997914929501
H        -4.01961955049259    0.65224305030308   -3.14895027916400
N        -2.44318381622220    0.49149587662086   -0.18092664250166
C        -1.43352681430473    0.51952679157225   -2.33928619635693
C        -3.50354353025280    0.50224470429172    0.61076917915645
C        -4.80761591375317    0.56464846931387    0.12855568932497
H        -3.31122405105354    0.46062940685367    1.67403371715014
H        -5.63840357096398    0.56894887273786    0.81593030290731
H        -6.00959290881858    0.66750102418693   -1.65071974341515
N        -0.29484956321610    0.42318172880779   -1.79174401448787
H        -1.58308312913915    0.58229729464543   -3.41691524129968
H         0.49928377378425    0.40036662108896   -2.42528843026177

          :  Hamiltonian                  GFN2-xTB          :
         :: total energy             -68.521782759242 Eh    ::
         :: gradient norm              0.000121921096 Eh/a0 ::
         :: HOMO-LUMO gap              2.270934325683 eV    ::
         :: SCC energy               -69.591076374861 Eh    ::
         :: -> dispersion             -0.056776775004 Eh    ::
         :: repulsion energy           1.067594799502 Eh    ::

    * Orbital Energies and Occupations

         #    Occupation            Energy/Eh            Energy/eV
      -------------------------------------------------------------
         1        2.0000           -1.0580361             -28.7906
       ...           ...                  ...                  ...
        51        2.0000           -0.6800149             -18.5041
        52        2.0000           -0.6790790             -18.4787
        53        2.0000           -0.6778051             -18.4440
        54        2.0000           -0.6709014             -18.2562
        55        2.0000           -0.6677977             -18.1717
        56        2.0000           -0.6637215             -18.0608
        57        2.0000           -0.6615458             -18.0016
        58        2.0000           -0.6521919             -17.7470
        59        2.0000           -0.6506034             -17.7038
        60        2.0000           -0.6375702             -17.3492
        61        2.0000           -0.6347944             -17.2736
        62        2.0000           -0.6331564             -17.2291
        63        2.0000           -0.6255958             -17.0233 (HOMO)
        64                         -0.5421405             -14.7524 (LUMO)
        65                         -0.5413178             -14.7300
        66                         -0.5393902             -14.6776
        67                         -0.4934512             -13.4275
        68                         -0.4926271             -13.4051
        69                         -0.4917940             -13.3824
        70                         -0.4831970             -13.1485
        71                         -0.4463423             -12.1456
        72                         -0.4453698             -12.1191
        73                         -0.4432710             -12.0620
        74                         -0.3575825              -9.7303
       ...                                ...                  ...
       126                          0.5242106              14.2645
      -------------------------------------------------------------
                  HL-Gap            0.0834553 Eh            2.2709 eV

     #   Z        covCN         q      C6AA      Î±(0)
     1  30 Zn     4.360     0.202   122.864    21.653
     2   6 C      2.923     0.012    27.749     8.639
     3   6 C      2.919    -0.017    28.431     8.744
     4   6 C      2.973     0.088    26.044     8.371
     5   1 H      0.926     0.098     1.799     2.097
     6   7 N      2.541    -0.105    23.327     7.173
     7   6 C      3.021     0.070    26.412     8.430
     8   6 C      2.896     0.058    26.691     8.471
     9   6 C      2.914    -0.014    28.358     8.732
    10   1 H      0.925     0.077     2.009     2.217
    11   1 H      0.926     0.101     1.776     2.084
    12   1 H      0.926     0.107     1.720     2.051
    13   7 N      2.522    -0.071    22.652     7.068
    14   1 H      0.925     0.097     1.809     2.103
    15  35 Br     1.152     0.023   184.390    21.894
    16   6 C      2.923     0.012    27.743     8.638
    17   6 C      2.918    -0.015    28.382     8.736
    18   6 C      2.983     0.087    26.065     8.375
    19   1 H      0.926     0.099     1.793     2.094
    20   7 N      2.544    -0.098    23.193     7.152
    21   6 C      2.867     0.090    25.991     8.357
    22   6 C      2.896     0.058    26.700     8.472
    23   6 C      2.915    -0.012    28.324     8.727
    24   1 H      0.925     0.077     2.012     2.218
    25   1 H      0.926     0.101     1.776     2.084
    26   1 H      0.926     0.107     1.722     2.052
    27   7 N      2.507    -0.174    24.805     7.396
    28   1 H      0.925     0.096     1.826     2.113
    29   1 H      0.860     0.212     1.045     1.601
    30   6 C      2.923     0.012    27.747     8.638
    31   6 C      2.918    -0.015    28.395     8.738
    32   6 C      2.982     0.085    26.102     8.381
    33   1 H      0.926     0.099     1.795     2.095
    34   7 N      2.548    -0.101    23.257     7.162
    35   6 C      2.867     0.088    26.030     8.363
    36   6 C      2.895     0.059    26.680     8.469
    37   6 C      2.914    -0.012    28.313     8.725
    38   1 H      0.925     0.080     1.982     2.202
    39   1 H      0.926     0.103     1.761     2.075
    40   1 H      0.926     0.108     1.716     2.049
    41   7 N      2.505    -0.178    24.898     7.410
    42   1 H      0.925     0.094     1.838     2.120
    43   1 H      0.860     0.211     1.051     1.606

Wiberg/Mayer (AO) data.
largest (>0.10) Wiberg bond orders for each atom
          total WBO             WBO to atom ...

molecular dipole:
                 x           y           z       tot (Debye)
 q only:       -3.444       2.851       2.799
   full:       -3.035       2.793       2.653      12.465

           -------------------------------------------------
          | TOTAL ENERGY              -68.521782759242 Eh   |
          | GRADIENT NORM               0.000121921096 Eh/Î± |
          | HOMO-LUMO GAP               2.270934325683 eV   |
           -------------------------------------------------

 * finished run on 2020/10/19 at 12:54:42.178
