 Gaussian 16, Revision C.01,
 Gaussian 16:  ES64L-G16RevC.01  3-Jul-2019

 ----------------------------------------------------------------------
 #P PBE1PBE/Def2SVP SP SCF=(YQC,MaxCycle=900) int=(Grid=Superfinegrid)
 EmpiricalDispersion=GD3BJ SCRF=(PCM,Solvent=DiMethylSulfoxide)
 ----------------------------------------------------------------------

 --------
 _s_5b4_c
 --------
 Symbolic Z-matrix:
 Charge =  4 Multiplicity = 1

                         Standard orientation:
 ---------------------------------------------------------------------
 Center     Atomic      Atomic             Coordinates (Angstroms)
 Number     Number       Type             X           Y           Z
 ---------------------------------------------------------------------
      1         46           0       -6.896873   -0.791442    0.030027
      2         46           0        6.897070    0.791442    0.028550
      3          6           0        0.998341    4.425059   -3.355737
      4          6           0        2.196668    4.589951   -3.330796
      5          6           0        3.587204    4.782691   -3.232136
      6          6           0        4.180115    5.955941   -3.666001
      7          6           0        5.554704    6.168985   -3.512199
      8          6           0        6.351803    5.231637   -2.906356
      9          6           0        5.787223    4.019994   -2.454092
     10          6           0        6.540127    3.038361   -1.781622
     11          7           0        6.015571    1.907433   -1.359476
     12          6           0        4.709763    1.630520   -1.604338
     13          6           0        3.886413    2.526778   -2.223007
     14          6           0        4.397313    3.772468   -2.640315
     15          1           0        3.570272    6.719656   -4.124430
     16          1           0        5.982557    7.093980   -3.866964
     17          1           0        7.406663    5.409534   -2.770991
     18          1           0        7.596850    3.198999   -1.582998
     19          1           0        4.367493    0.651672   -1.273932
     20          1           0        2.846089    2.302654   -2.395286
     21          6           0       -0.394762    4.222347   -3.364791
     22          6           0       -1.246592    5.177787   -3.931057
     23          6           0       -2.609192    4.976222   -3.933265
     24          6           0       -3.150855    3.816049   -3.366250
     25          6           0       -2.298635    2.863423   -2.795879
     26          6           0       -0.936749    3.062897   -2.796870
     27          1           0       -0.829003    6.071658   -4.369944
     28          1           0       -3.266727    5.710672   -4.373936
     29          1           0       -2.718766    1.967075   -2.368914
     30          1           0       -0.277332    2.327112   -2.364655
     31          6           0       -4.541593    3.602186   -3.401430
     32          6           0       -5.734134    3.401832   -3.455372
     33          6           0       -7.111782    3.178097   -3.627902
     34          6           0       -7.827693    3.956990   -4.520464
     35          6           0       -9.181033    3.709954   -4.769316
     36          6           0       -9.836347    2.674680   -4.149543
     37          6           0       -9.152592    1.863280   -3.226606
     38          6           0       -9.761751    0.772406   -2.565817
     39          6           0       -9.046526    0.038021   -1.665390
     40          7           0       -7.761430    0.336685   -1.351898
     41          6           0       -7.150575    1.331385   -1.964869
     42          6           0       -7.782138    2.124898   -2.935089
     43          1           0       -7.327884    4.759759   -5.040796
     44          1           0       -9.707457    4.338011   -5.471754
     45          1           0      -10.874492    2.472476   -4.361530
     46          1           0      -10.789531    0.529330   -2.783124
     47          1           0       -9.478407   -0.822034   -1.156746
     48          1           0       -6.118959    1.533166   -1.684874
     49          6           0        0.986759    4.609267    3.194038
     50          6           0        2.183858    4.778453    3.150009
     51          6           0        3.573562    4.970467    3.030958
     52          6           0        4.164324    6.170598    3.385767
     53          6           0        5.536919    6.379175    3.207198
     54          6           0        6.333527    5.408116    2.657026
     55          6           0        5.771500    4.166465    2.290539
     56          6           0        6.525177    3.144055    1.683115
     57          7           0        6.004478    1.982910    1.345891
     58          6           0        4.702467    1.717078    1.619629
     59          6           0        3.877608    2.650990    2.178146
     60          6           0        4.383919    3.926160    2.501919
     61          1           0        3.554318    6.959968    3.798054
     62          1           0        5.962857    7.327097    3.497756
     63          1           0        7.386427    5.581397    2.501718
     64          1           0        7.579822    3.296559    1.466273
     65          1           0        4.363763    0.714304    1.368576
     66          1           0        2.840658    2.431363    2.375575
     67          6           0       -0.403019    4.384928    3.231704
     68          6           0       -1.219743    5.119972    4.098242
     69          6           0       -2.574817    4.876917    4.143891
     70          6           0       -3.144183    3.897624    3.320160
     71          6           0       -2.329180    3.178172    2.438719
     72          6           0       -0.974058    3.416138    2.397479
     73          1           0       -0.780553    5.871675    4.737092
     74          1           0       -3.204600    5.436533    4.819317
     75          1           0       -2.771670    2.434328    1.796100
     76          1           0       -0.341494    2.861842    1.722468
     77          6           0       -4.522071    3.626103    3.414594
     78          6           0       -5.699223    3.370112    3.533669
     79          6           0       -7.053909    3.085314    3.781020
     80          6           0       -7.742704    3.811785    4.737277
     81          6           0       -9.070206    3.510350    5.055398
     82          6           0       -9.725708    2.471392    4.441963
     83          6           0       -9.068689    1.709282    3.459552
     84          6           0       -9.678409    0.615965    2.803440
     85          6           0       -8.989815   -0.073114    1.848191
     86          7           0       -7.732138    0.272438    1.477843
     87          6           0       -7.121544    1.273270    2.080914
     88          6           0       -7.725997    2.025617    3.099921
     89          1           0       -7.241695    4.618111    5.250742
     90          1           0       -9.575703    4.099599    5.805133
     91          1           0      -10.743168    2.228252    4.704890
     92          1           0      -10.684964    0.334492    3.068494
     93          1           0       -9.421315   -0.933540    1.339931
     94          1           0       -6.111853    1.512800    1.753818
     95          6           0       -0.985396   -4.607470    3.195909
     96          6           0       -2.182566   -4.776637    3.152495
     97          6           0       -3.572237   -4.968603    3.034194
     98          6           0       -4.163023   -6.168265    3.390458
     99          6           0       -5.535674   -6.376850    3.212673
    100          6           0       -6.332406   -5.406249    2.661726
    101          6           0       -5.770449   -4.164977    2.293873
    102          6           0       -6.524229   -3.142973    1.686007
    103          7           0       -6.003587   -1.982202    1.347539
    104          6           0       -4.701317   -1.716392    1.620295
    105          6           0       -3.876330   -2.649916    2.179207
    106          6           0       -4.382707   -3.924680    2.504452
    107          1           0       -3.553035   -6.957283    3.803346
    108          1           0       -5.961681   -7.324405    3.504472
    109          1           0       -7.385441   -5.579512    2.507053
    110          1           0       -7.578980   -3.295531    1.469759
    111          1           0       -4.362702   -0.713902    1.368193
    112          1           0       -2.839258   -2.430251    2.375937
    113          6           0        0.404468   -4.383326    3.232922
    114          6           0        0.975516   -3.416126    2.396927
    115          6           0        2.330681   -3.178114    2.437882
    116          6           0        3.145595   -3.895879    3.320831
    117          6           0        2.576152   -4.873753    4.146179
    118          6           0        1.221017   -5.116909    4.100767
    119          1           0        0.343126   -2.863150    1.720782
    120          1           0        2.773195   -2.435558    1.793939
    121          1           0        3.205784   -5.432256    4.822545
    122          1           0        0.781818   -5.867498    4.741032
    123          6           0        4.523457   -3.624266    3.414889
    124          6           0        5.700635   -3.368365    3.533949
    125          6           0        7.055445   -3.083543    3.781101
    126          6           0        7.744318   -3.809404    4.737660
    127          6           0        9.071760   -3.507668    5.055579
    128          6           0        9.727056   -2.468799    4.441593
    129          6           0        9.069872   -1.707315    3.458846
    130          6           0        9.679419   -0.614226    2.802155
    131          6           0        8.990692    0.074252    1.846570
    132          7           0        7.733088   -0.271639    1.476562
    133          6           0        7.122659   -1.272390    2.080060
    134          6           0        7.727309   -2.024120    3.099398
    135          1           0        7.243470   -4.615622    5.251490
    136          1           0        9.577475   -4.096444    5.805586
    137          1           0       10.744443   -2.225488    4.704429
    138          1           0       10.686064   -0.332468    3.066992
    139          1           0        9.422085    0.934509    1.337822
    140          1           0        6.113077   -1.512231    1.753178
    141          6           0       -1.000196   -4.425096   -3.356351
    142          6           0       -2.198476   -4.590542   -3.331300
    143          6           0       -3.588971   -4.783479   -3.231680
    144          6           0       -4.181982   -5.956960   -3.664837
    145          6           0       -5.556417   -6.170106   -3.509864
    146          6           0       -6.353217   -5.232778   -2.903668
    147          6           0       -5.788461   -4.020961   -2.452170
    148          6           0       -6.540938   -3.039304   -1.779342
    149          7           0       -6.016233   -1.908085   -1.358075
    150          6           0       -4.710719   -1.630907   -1.604180
    151          6           0       -3.887724   -2.527225   -2.223226
    152          6           0       -4.398789   -3.773225   -2.639687
    153          1           0       -3.572383   -6.720685   -4.123434
    154          1           0       -5.984403   -7.095296   -3.864052
    155          1           0       -7.407920   -5.410850   -2.767418
    156          1           0       -7.597453   -3.200190   -1.579621
    157          1           0       -4.368479   -0.651857   -1.274434
    158          1           0       -2.847621   -2.302940   -2.396603
    159          6           0        0.392896   -4.222562   -3.365100
    160          6           0        0.934615   -3.061377   -2.800500
    161          6           0        2.296480   -2.862101   -2.799013
    162          6           0        3.149002   -3.816809   -3.365419
    163          6           0        2.607669   -4.978672   -3.929218
    164          6           0        1.245112   -5.180018   -3.927591
    165          1           0        0.274946   -2.323990   -2.371305
    166          1           0        2.716387   -1.964357   -2.374709
    167          1           0        3.265505   -5.714647   -4.366973
    168          1           0        0.827694   -6.075189   -4.363803
    169          6           0        4.539932   -3.603412   -3.400153
    170          6           0        5.732587   -3.403856   -3.453791
    171          6           0        7.110464   -3.181139   -3.626047
    172          6           0        7.826139   -3.961509   -4.517470
    173          6           0        9.179798   -3.715730   -4.765940
    174          6           0        9.835534   -2.680209   -4.146997
    175          6           0        9.151862   -1.867284   -3.225399
    176          6           0        9.761489   -0.776046   -2.565632
    177          6           0        9.046386   -0.040079   -1.666409
    178          7           0        7.760922   -0.337628   -1.352952
    179          6           0        7.149757   -1.332646   -1.965072
    180          6           0        7.781122   -2.127706   -2.934140
    181          1           0        7.326031   -4.764461   -5.037067
    182          1           0        9.705995   -4.345016   -5.467518
    183          1           0       10.873934   -2.479076   -4.358795
    184          1           0       10.789548   -0.533809   -2.782813
    185          1           0        9.478604    0.820217   -1.158594
    186          1           0        6.117831   -1.533411   -1.685271
 ---------------------------------------------------------------------

 SCF Done:  E(RPBE1PBE) =  -4990.86434993     a.u. after   21 cycles
 SCF Done:  E(RPBE1PBE) =  -4990.86454302     A.U. after    9 cycles

 The electronic state is 1-A.
 Alpha  occ. eigenvalues --  -14.48463 -14.48463 -14.48458 -14.48458 -14.48412
 Alpha  occ. eigenvalues --  -14.48412 -14.48402 -14.48402 -10.32532 -10.32531
 Alpha  occ. eigenvalues --  -10.32528 -10.32528 -10.32344 -10.32343 -10.32339
 Alpha  occ. eigenvalues --  -10.32339 -10.31201 -10.31201 -10.31184 -10.31183
 Alpha  occ. eigenvalues --  -10.30967 -10.30967 -10.30963 -10.30963 -10.29804
 Alpha  occ. eigenvalues --  -10.29804 -10.29799 -10.29798 -10.29530 -10.29530
 Alpha  occ. eigenvalues --  -10.29525 -10.29525 -10.29414 -10.29414 -10.29409
 Alpha  occ. eigenvalues --  -10.29408 -10.29108 -10.29107 -10.29104 -10.29104
 Alpha  occ. eigenvalues --  -10.29071 -10.29070 -10.29068 -10.29068 -10.28929
 Alpha  occ. eigenvalues --  -10.28929 -10.28925 -10.28925 -10.28510 -10.28510
 Alpha  occ. eigenvalues --  -10.28505 -10.28505 -10.28504 -10.28503 -10.28491
 Alpha  occ. eigenvalues --  -10.28491 -10.27926 -10.27925 -10.27913 -10.27913
 Alpha  occ. eigenvalues --  -10.27797 -10.27796 -10.27795 -10.27794 -10.27648
 Alpha  occ. eigenvalues --  -10.27647 -10.27646 -10.27646 -10.27440 -10.27440
 Alpha  occ. eigenvalues --  -10.27439 -10.27439 -10.27259 -10.27258 -10.27257
 Alpha  occ. eigenvalues --  -10.27257 -10.27055 -10.27054 -10.27053 -10.27052
 Alpha  occ. eigenvalues --  -10.26855 -10.26855 -10.26854 -10.26854 -10.26840
 Alpha  occ. eigenvalues --  -10.26840 -10.26839 -10.26839 -10.26538 -10.26538
 Alpha  occ. eigenvalues --  -10.26533 -10.26533 -10.26492 -10.26492 -10.26481
 Alpha  occ. eigenvalues --  -10.26481 -10.26436 -10.26435 -10.26419 -10.26419
 Alpha  occ. eigenvalues --  -10.26412 -10.26412 -10.26406 -10.26406 -10.26369
 Alpha  occ. eigenvalues --  -10.26368 -10.26353 -10.26353 -10.26352 -10.26352
 Alpha  occ. eigenvalues --  -10.26345 -10.26344 -10.26200 -10.26200 -10.26196
 Alpha  occ. eigenvalues --  -10.26195 -10.26086 -10.26085 -10.26068 -10.26068
 Alpha  occ. eigenvalues --   -3.57319  -3.57319  -2.25349  -2.25348  -2.25095
 Alpha  occ. eigenvalues --   -2.25095  -2.21037  -2.21037  -1.03992  -1.03992
 Alpha  occ. eigenvalues --   -1.03249  -1.03249  -1.03085  -1.03085  -1.03071
 Alpha  occ. eigenvalues --   -1.03070  -0.92914  -0.92905  -0.92825  -0.92823
 Alpha  occ. eigenvalues --   -0.92712  -0.92699  -0.92669  -0.92666  -0.91859
 Alpha  occ. eigenvalues --   -0.91856  -0.91848  -0.91847  -0.86188  -0.86176
 Alpha  occ. eigenvalues --   -0.86152  -0.86144  -0.85694  -0.85691  -0.85606
 Alpha  occ. eigenvalues --   -0.85584  -0.84678  -0.84629  -0.84592  -0.84569
 Alpha  occ. eigenvalues --   -0.83733  -0.83649  -0.83581  -0.83566  -0.83035
 Alpha  occ. eigenvalues --   -0.83000  -0.82934  -0.82910  -0.81595  -0.81538
 Alpha  occ. eigenvalues --   -0.81439  -0.81335  -0.80936  -0.80885  -0.80769
 Alpha  occ. eigenvalues --   -0.80664  -0.79492  -0.79491  -0.79480  -0.79480
 Alpha  occ. eigenvalues --   -0.77996  -0.77992  -0.77961  -0.77928  -0.75449
 Alpha  occ. eigenvalues --   -0.75447  -0.75426  -0.75410  -0.71683  -0.71561
 Alpha  occ. eigenvalues --   -0.71444  -0.71397  -0.71292  -0.71276  -0.71129
 Alpha  occ. eigenvalues --   -0.70904  -0.69809  -0.69736  -0.69683  -0.69632
 Alpha  occ. eigenvalues --   -0.69209  -0.69173  -0.69001  -0.68967  -0.68723
 Alpha  occ. eigenvalues --   -0.68698  -0.68639  -0.68611  -0.67026  -0.67000
 Alpha  occ. eigenvalues --   -0.66955  -0.66955  -0.65638  -0.65592  -0.65563
 Alpha  occ. eigenvalues --   -0.65557  -0.65343  -0.65343  -0.65334  -0.65333
 Alpha  occ. eigenvalues --   -0.60736  -0.60527  -0.60290  -0.60159  -0.60118
 Alpha  occ. eigenvalues --   -0.59979  -0.59946  -0.59876  -0.58661  -0.58632
 Alpha  occ. eigenvalues --   -0.58189  -0.58172  -0.58166  -0.58122  -0.58111
 Alpha  occ. eigenvalues --   -0.58092  -0.58043  -0.58007  -0.57790  -0.57786
 Alpha  occ. eigenvalues --   -0.57221  -0.57212  -0.57013  -0.57011  -0.56286
 Alpha  occ. eigenvalues --   -0.56212  -0.56164  -0.56108  -0.55269  -0.55268
 Alpha  occ. eigenvalues --   -0.55230  -0.55204  -0.52874  -0.52627  -0.52617
 Alpha  occ. eigenvalues --   -0.52369  -0.52336  -0.52129  -0.52114  -0.51863
 Alpha  occ. eigenvalues --   -0.51715  -0.51704  -0.51620  -0.51615  -0.51588
 Alpha  occ. eigenvalues --   -0.51544  -0.51212  -0.51199  -0.51192  -0.51145
 Alpha  occ. eigenvalues --   -0.50653  -0.50646  -0.50577  -0.50546  -0.49763
 Alpha  occ. eigenvalues --   -0.49757  -0.49706  -0.49702  -0.49487  -0.49482
 Alpha  occ. eigenvalues --   -0.49071  -0.49049  -0.48881  -0.48876  -0.48681
 Alpha  occ. eigenvalues --   -0.48674  -0.48383  -0.48381  -0.48282  -0.48270
 Alpha  occ. eigenvalues --   -0.48225  -0.48221  -0.47711  -0.47710  -0.47392
 Alpha  occ. eigenvalues --   -0.47380  -0.47372  -0.47362  -0.47237  -0.47228
 Alpha  occ. eigenvalues --   -0.46304  -0.46300  -0.46269  -0.46266  -0.45885
 Alpha  occ. eigenvalues --   -0.45876  -0.45524  -0.45523  -0.44829  -0.44827
 Alpha  occ. eigenvalues --   -0.44456  -0.44301  -0.44300  -0.44224  -0.43890
 Alpha  occ. eigenvalues --   -0.43888  -0.43888  -0.43792  -0.43769  -0.43736
 Alpha  occ. eigenvalues --   -0.43627  -0.43207  -0.43112  -0.42711  -0.42670
 Alpha  occ. eigenvalues --   -0.42311  -0.41877  -0.41866  -0.41821  -0.41788
 Alpha  occ. eigenvalues --   -0.41729  -0.41612  -0.41602  -0.41546  -0.41524
 Alpha  occ. eigenvalues --   -0.41411  -0.40206  -0.40160  -0.40091  -0.40006
 Alpha  occ. eigenvalues --   -0.39709  -0.39699  -0.39532  -0.39518  -0.39447
 Alpha  occ. eigenvalues --   -0.39421  -0.39414  -0.39396  -0.39055  -0.39033
 Alpha  occ. eigenvalues --   -0.39023  -0.39019  -0.38882  -0.38493  -0.38433
 Alpha  occ. eigenvalues --   -0.38268  -0.37387  -0.36954  -0.36811  -0.36711
 Alpha  occ. eigenvalues --   -0.36369  -0.36334  -0.36326  -0.36301  -0.36159
 Alpha  occ. eigenvalues --   -0.35989  -0.35231  -0.34865  -0.34847  -0.34823
 Alpha  occ. eigenvalues --   -0.34135  -0.33925  -0.33904  -0.33902  -0.32845
 Alpha  occ. eigenvalues --   -0.32727  -0.32598  -0.32425  -0.31751  -0.31691
 Alpha  occ. eigenvalues --   -0.31672  -0.31542  -0.31405  -0.31373  -0.31314
 Alpha  occ. eigenvalues --   -0.31277  -0.31210  -0.31192  -0.31152  -0.31123
 Alpha  occ. eigenvalues --   -0.30950  -0.30897  -0.30545  -0.30536  -0.29811
 Alpha  occ. eigenvalues --   -0.29805  -0.29778  -0.29728  -0.29727  -0.29464
 Alpha  occ. eigenvalues --   -0.29207  -0.29086  -0.28837  -0.28829  -0.26893
 Alpha  occ. eigenvalues --   -0.26652  -0.26501  -0.26453  -0.23920  -0.23837
 Alpha  occ. eigenvalues --   -0.23758  -0.23748
 Alpha virt. eigenvalues --   -0.11219  -0.10871  -0.10756  -0.10701  -0.10240
 Alpha virt. eigenvalues --   -0.09630  -0.09447  -0.09268  -0.07713  -0.07582
 Alpha virt. eigenvalues --   -0.07500  -0.07269  -0.06561  -0.06487  -0.06345

 Mulliken charges:
               1
     1  Pd   0.483346
     2  Pd   0.483316
     3  C    0.012245
     4  C   -0.060557
     5  C   -0.022672
     6  C    0.022249
     7  C   -0.001718
     8  C    0.021202
     9  C   -0.061064
    10  C    0.178886
    11  N   -0.321162
    12  C    0.149599
    13  C   -0.011860
    14  C    0.070864
    15  H    0.044292
    16  H    0.054944
    17  H    0.044408
    18  H    0.092440
    19  H    0.095111
    20  H    0.048568
    21  C   -0.069908
    22  C    0.015002
    23  C    0.013445
    24  C   -0.072576
    25  C    0.012776
    26  C    0.007088
    27  H    0.038595
    28  H    0.038921
    29  H    0.034133
    30  H    0.037002
    31  C    0.021597
    32  C   -0.071378
    33  C   -0.010520
    34  C    0.004764
    35  C    0.014673
    36  C    0.006362
    37  C    0.030664
    38  C   -0.015675
    39  C    0.143672
    40  N   -0.315625
    41  C    0.182779
    42  C   -0.013651
    43  H    0.042037
    44  H    0.055828
    45  H    0.041393
    46  H    0.053470
    47  H    0.095661
    48  H    0.082388
    49  C    0.010781
    50  C   -0.058321
    51  C   -0.024426
    52  C    0.023400
    53  C   -0.002006
    54  C    0.021465
    55  C   -0.060754
    56  C    0.179027
    57  N   -0.320643
    58  C    0.151169
    59  C   -0.012240
    60  C    0.070425
    61  H    0.044234
    62  H    0.054907
    63  H    0.044396
    64  H    0.092028
    65  H    0.092457
    66  H    0.049748
    67  C   -0.073563
    68  C    0.016072
    69  C    0.012458
    70  C   -0.072077
    71  C    0.011786
    72  C    0.011594
    73  H    0.038504
    74  H    0.039060
    75  H    0.035207
    76  H    0.034730
    77  C    0.020363
    78  C   -0.070342
    79  C   -0.009975
    80  C    0.003856
    81  C    0.014917
    82  C    0.006295
    83  C    0.030858
    84  C   -0.015788
    85  C    0.142407
    86  N   -0.315876
    87  C    0.182747
    88  C   -0.012571
    89  H    0.041991
    90  H    0.055737
    91  H    0.041305
    92  H    0.053434
    93  H    0.095886
    94  H    0.083326
    95  C    0.010823
    96  C   -0.058361
    97  C   -0.024396
    98  C    0.023409
    99  C   -0.002021
   100  C    0.021419
   101  C   -0.060723
   102  C    0.179008
   103  N   -0.320660
   104  C    0.151185
   105  C   -0.012206
   106  C    0.070380
   107  H    0.044208
   108  H    0.054929
   109  H    0.044417
   110  H    0.092006
   111  H    0.092433
   112  H    0.049742
   113  C   -0.073519
   114  C    0.011657
   115  C    0.011827
   116  C   -0.072088
   117  C    0.012462
   118  C    0.016008
   119  H    0.034685
   120  H    0.035160
   121  H    0.039018
   122  H    0.038553
   123  C    0.020316
   124  C   -0.070292
   125  C   -0.009908
   126  C    0.003841
   127  C    0.014882
   128  C    0.006267
   129  C    0.030897
   130  C   -0.015860
   131  C    0.142365
   132  N   -0.315889
   133  C    0.182841
   134  C   -0.012576
   135  H    0.041997
   136  H    0.055758
   137  H    0.041278
   138  H    0.053500
   139  H    0.095920
   140  H    0.083272
   141  C    0.012271
   142  C   -0.060558
   143  C   -0.022731
   144  C    0.022332
   145  C   -0.001745
   146  C    0.021227
   147  C   -0.061064
   148  C    0.178871
   149  N   -0.321171
   150  C    0.149608
   151  C   -0.011784
   152  C    0.070842
   153  H    0.044261
   154  H    0.054955
   155  H    0.044400
   156  H    0.092444
   157  H    0.095082
   158  H    0.048547
   159  C   -0.069983
   160  C    0.007034
   161  C    0.012821
   162  C   -0.072579
   163  C    0.013444
   164  C    0.015095
   165  H    0.037036
   166  H    0.034135
   167  H    0.038941
   168  H    0.038546
   169  C    0.021613
   170  C   -0.071447
   171  C   -0.010537
   172  C    0.004799
   173  C    0.014636
   174  C    0.006338
   175  C    0.030692
   176  C   -0.015713
   177  C    0.143722
   178  N   -0.315664
   179  C    0.182764
   180  C   -0.013587
   181  H    0.041991
   182  H    0.055852
   183  H    0.041404
   184  H    0.053508
   185  H    0.095623
   186  H    0.082419
 Sum of Mulliken charges =   4.00000

 Dipole moment (field-independent basis, Debye):
    X=              0.0030    Y=             -0.0034    Z=              0.3481  Tot=              0.3481
 Quadrupole moment (field-independent basis, Debye-Ang):
   XX=            410.3574   YY=           -432.0488   ZZ=           -536.3418
   XY=             87.4588   XZ=             -0.0435   YZ=             -0.0374

 Normal termination of Gaussian 16 at Fri Feb 26 14:44:25 2021.
