 Gaussian 16, Revision C.01,
 Gaussian 16:  ES64L-G16RevC.01  3-Jul-2019

 ------------------------------------------------------------------
 # SP PBE1PBE/def2svp empiricaldispersion=GD3BJ scrf=(solvent=dmso)
 ------------------------------------------------------------------

 -----------
 trans_l1_lb
 -----------
 Symbolic Z-matrix:
 Charge =  4 Multiplicity = 1

                         Standard orientation:
 ---------------------------------------------------------------------
 Center     Atomic      Atomic             Coordinates (Angstroms)
 Number     Number       Type             X           Y           Z
 ---------------------------------------------------------------------
      1         46           0        6.143201    1.947807    1.334606
      2         46           0       -6.691999    1.550295   -0.275294
      3          6           0        4.664903    0.116605   -0.172394
      4          7           0        5.681603    0.004806    0.704606
      5          6           0        5.956504   -1.209493    1.206006
      6          6           0        5.180505   -2.327894    0.909806
      7          6           0        4.064605   -2.206795    0.066106
      8          6           0        3.097606   -3.287296   -0.214194
      9          6           0        3.495807   -4.624396   -0.424394
     10          6           0        2.579208   -5.617996   -0.762894
     11          6           0        1.246707   -5.241398   -0.864594
     12          8           0        0.199708   -6.054599   -1.184094
     13          6           0       -0.927593   -5.292400   -1.130794
     14          6           0       -2.222192   -5.717601   -1.399594
     15          6           0       -3.242293   -4.780602   -1.249694
     16          6           0       -2.983094   -3.454201   -0.840294
     17          6           0       -4.059895   -2.468402   -0.626994
     18          6           0       -3.880096   -1.446002    0.318406
     19          6           0       -4.808697   -0.434803    0.434306
     20          7           0       -5.924197   -0.378704   -0.320594
     21          6           0       -6.163796   -1.388704   -1.170494
     22          6           0       -5.270695   -2.442904   -1.338394
     23          6           0       -1.658895   -3.048100   -0.615694
     24          6           0       -0.628694   -3.968799   -0.764094
     25          6           0        0.810206   -3.928698   -0.613994
     26          6           0        1.740805   -2.943897   -0.301594
     27          6           0        3.855203   -0.946095   -0.513594
     28          1           0        4.477402    1.104505   -0.599194
     29          1           0        6.800104   -1.279393    1.895606
     30          1           0        5.425906   -3.276794    1.389806
     31          1           0        4.554607   -4.883295   -0.359094
     32          1           0        2.894309   -6.645196   -0.946894
     33          1           0       -2.432391   -6.746101   -1.693094
     34          1           0       -4.272993   -5.099503   -1.417194
     35          1           0       -3.007896   -1.423901    0.970906
     36          1           0       -4.641198    0.370797    1.151306
     37          1           0       -7.082896   -1.333605   -1.756794
     38          1           0       -5.516494   -3.216304   -2.066994
     39          1           0       -1.429196   -2.016500   -0.345594
     40          1           0        1.412104   -1.921998   -0.103594
     41          1           0        3.051003   -0.782796   -1.230994
     42          6           0        4.214599    3.988005    2.086806
     43          7           0        5.395099    3.921506    1.440606
     44          6           0        5.688698    4.911406    0.582906
     45          6           0        4.816897    5.955306    0.310906
     46          6           0        3.557397    5.998704    0.925006
     47          6           0        2.531996    6.997803    0.572006
     48          6           0        2.886095    8.313204    0.199806
     49          6           0        1.931894    9.255903   -0.171294
     50          6           0        0.606395    8.840802   -0.176894
     51          8           0       -0.466006    9.595501   -0.540894
     52          6           0       -1.563405    8.797200   -0.436594
     53          6           0       -2.867806    9.158499   -0.748794
     54          6           0       -3.844805    8.176798   -0.610094
     55          6           0       -3.536304    6.877198   -0.152794
     56          6           0       -4.566603    5.826997   -0.054694
     57          6           0       -5.612002    5.701596   -0.980194
     58          6           0       -6.436301    4.585595   -0.948394
     59          7           0       -6.291401    3.605996   -0.044494
     60          6           0       -5.365801    3.772696    0.921306
     61          6           0       -4.501602    4.849297    0.949506
     62          6           0       -2.212803    6.547299    0.169406
     63          6           0       -1.219704    7.510200    0.015306
     64          6           0        0.217796    7.538401    0.185806
     65          6           0        1.184297    6.613302    0.570206
     66          6           0        3.292498    4.992404    1.864906
     67          1           0        3.987700    3.190305    2.792406
     68          1           0        6.643698    4.859607    0.061106
     69          1           0        5.112897    6.698306   -0.430894
     70          1           0        3.936295    8.611205    0.220506
     71          1           0        2.210393   10.273003   -0.449394
     72          1           0       -3.112306   10.164198   -1.092594
     73          1           0       -4.880805    8.430197   -0.844394
     74          1           0       -5.754603    6.433396   -1.776494
     75          1           0       -7.213501    4.460695   -1.702094
     76          1           0       -5.302200    2.998896    1.687906
     77          1           0       -3.766402    4.909498    1.752306
     78          1           0       -1.953902    5.538299    0.495506
     79          1           0        0.895198    5.592202    0.825006
     80          1           0        2.359298    4.974703    2.428706
     81          6           0        6.356901    2.263507    5.483306
     82          6           0        6.251300    2.498307    4.141606
     83          7           0        5.661101    1.600506    3.294106
     84          6           0        5.144502    0.486906    3.780406
     85          6           0        5.221203    0.139306    5.147006
     86          6           0        4.755904   -1.120495    5.637906
     87          6           0        4.072105   -2.104595    4.771406
     88          6           0        2.902004   -1.768696    4.072906
     89          6           0        2.194605   -2.736597    3.375406
     90          6           0        2.642006   -4.070796    3.355606
     91          6           0        1.807607   -5.065597    2.775006
     92          6           0        0.979108   -5.854298    2.359306
     93          6           0       -0.135491   -6.646799    1.937606
     94          7           0       -1.325592   -6.067400    2.129106
     95          6           0       -2.430591   -6.725101    1.765306
     96          6           0       -3.647592   -6.015602    2.028406
     97          6           0       -4.565493   -5.277703    2.335906
     98          6           0       -5.521193   -4.328204    2.799406
     99          6           0       -5.367294   -3.802704    4.095406
    100          6           0       -6.215595   -2.806804    4.556006
    101          6           0       -7.233395   -2.300505    3.736806
    102          6           0       -8.070196   -1.181106    4.224306
    103          6           0       -8.787696   -1.287707    5.400206
    104          6           0       -9.580397   -0.220607    5.878706
    105          6           0       -9.661998    0.968393    5.190806
    106          6           0       -8.927598    1.132193    3.993506
    107          6           0       -8.941799    2.325893    3.231506
    108          6           0       -8.197400    2.423994    2.088006
    109          7           0       -7.403399    1.400495    1.649206
    110          6           0       -7.367698    0.274395    2.340006
    111          6           0       -8.121497    0.058794    3.511806
    112          6           0       -7.410795   -2.852905    2.458406
    113          6           0       -6.569294   -3.855705    1.992206
    114          6           0       -2.394490   -8.001201    1.182906
    115          6           0       -1.152390   -8.598700    0.988406
    116          6           0        0.001810   -7.923499    1.370606
    117          6           0        3.847007   -4.395995    3.999706
    118          6           0        4.545606   -3.422895    4.702706
    119          6           0        4.971104   -1.422294    6.970706
    120          6           0        5.595103   -0.508394    7.846406
    121          6           0        6.030002    0.716207    7.395406
    122          6           0        5.867702    1.053706    6.032706
    123          1           0        6.845600    3.000907    6.121906
    124          1           0        6.648200    3.407007    3.688206
    125          1           0        4.672403   -0.195095    3.074606
    126          1           0        2.511103   -0.749697    4.121306
    127          1           0        1.263405   -2.478498    2.868406
    128          1           0       -4.558394   -4.170403    4.729206
    129          1           0       -6.068295   -2.387404    5.553606
    130          1           0       -8.756795   -2.224507    5.960706
    131          1           0      -10.141797   -0.352608    6.806206
    132          1           0      -10.281699    1.789492    5.556206
    133          1           0       -9.550700    3.173993    3.548506
    134          1           0       -8.208800    3.324794    1.476406
    135          1           0       -6.726697   -0.521605    1.968406
    136          1           0       -8.220095   -2.493106    1.818506
    137          1           0       -6.708994   -4.266605    0.990706
    138          1           0       -3.319490   -8.502002    0.894706
    139          1           0       -1.084889   -9.590700    0.537306
    140          1           0        0.991610   -8.358498    1.227306
    141          1           0        4.213108   -5.423795    3.973906
    142          1           0        5.469306   -3.689094    5.221106
    143          1           0        4.626805   -2.382995    7.359006
    144          1           0        5.727003   -0.783094    8.895106
    145          1           0        6.514101    1.426507    8.068306
    146          6           0        9.396500    3.454710   -0.816494
    147          6           0        8.351700    3.210709    0.030106
    148          7           0        7.387601    2.283408   -0.252294
    149          6           0        7.509601    1.530108   -1.328794
    150          6           0        8.601901    1.638009   -2.219094
    151          6           0        8.765002    0.754109   -3.331794
    152          6           0        7.905503   -0.437592   -3.484294
    153          6           0        7.770504   -1.353592   -2.428194
    154          6           0        6.951305   -2.466893   -2.551594
    155          6           0        6.239705   -2.688293   -3.742394
    156          6           0        5.291706   -3.745994   -3.847294
    157          6           0        4.387707   -4.554795   -3.944294
    158          6           0        3.161107   -5.289296   -4.048294
    159          7           0        2.075907   -4.514797   -4.126494
    160          6           0        0.873307   -5.093798   -4.201694
    161          6           0       -0.219294   -4.173599   -4.269694
    162          6           0       -1.035694   -3.273300   -4.331294
    163          6           0       -1.913495   -2.164200   -4.472494
    164          6           0       -3.294895   -2.283802   -4.250694
    165          6           0       -4.131596   -1.198602   -4.468794
    166          6           0       -3.618197    0.025098   -4.928194
    167          6           0       -4.553598    1.091797   -5.339594
    168          6           0       -4.517599    1.566197   -6.638894
    169          6           0       -5.512800    2.433896   -7.135994
    170          6           0       -6.579000    2.806095   -6.349494
    171          6           0       -6.633799    2.379295   -5.003594
    172          6           0       -7.699800    2.720194   -4.135994
    173          6           0       -7.645899    2.357294   -2.820594
    174          7           0       -6.559699    1.719195   -2.291394
    175          6           0       -5.582999    1.313796   -3.081494
    176          6           0       -5.586599    1.566096   -4.473994
    177          6           0       -2.235597    0.151799   -5.119494
    178          6           0       -1.391097   -0.923800   -4.885994
    179          6           0        0.703708   -6.487498   -4.213894
    180          6           0        1.839309   -7.286497   -4.138594
    181          6           0        3.094409   -6.690496   -4.052094
    182          6           0        6.404004   -1.793993   -4.815294
    183          6           0        7.230403   -0.686492   -4.686294
    184          6           0        9.779602    1.017510   -4.233594
    185          6           0       10.673801    2.092911   -4.042394
    186          6           0       10.582300    2.901111   -2.931794
    187          6           0        9.544900    2.685010   -1.996494
    188          1           0       10.120699    4.232310   -0.568994
    189          1           0        8.249199    3.751009    0.972906
    190          1           0        6.726002    0.799207   -1.523994
    191          1           0        8.323304   -1.195791   -1.498994
    192          1           0        6.843705   -3.164993   -1.719494
    193          1           0       -3.704394   -3.244502   -3.935394
    194          1           0       -5.209696   -1.315703   -4.337794
    195          1           0       -3.732698    1.213398   -7.311294
    196          1           0       -5.452900    2.773396   -8.172194
    197          1           0       -7.381900    3.430795   -6.745294
    198          1           0       -8.561100    3.275694   -4.509694
    199          1           0       -8.459900    2.587894   -2.130794
    200          1           0       -4.739498    0.798997   -2.616394
    201          1           0       -1.822398    1.102400   -5.463794
    202          1           0       -0.315997   -0.822799   -5.044394
    203          1           0       -0.295691   -6.919999   -4.271594
    204          1           0        1.746910   -8.374497   -4.142294
    205          1           0        4.005409   -7.286295   -3.985094
    206          1           0        5.856204   -1.964094   -5.743794
    207          1           0        7.330603    0.015208   -5.517294
    208          1           0        9.917502    0.352710   -5.088994
    209          1           0       11.467901    2.258712   -4.773394
    210          1           0       11.298999    3.706211   -2.759694
 ---------------------------------------------------------------------

 SCF Done:  E(RPBE1PBE) =  -5636.97511414     A.U. after   20 cycles

 The electronic state is 1-A.
 Alpha  occ. eigenvalues --  -19.30272 -19.30115 -14.48925 -14.48825 -14.48759
 Alpha  occ. eigenvalues --  -14.48550 -14.48544 -14.48512 -14.48146 -14.47990
 Alpha  occ. eigenvalues --  -14.41041 -14.41025 -10.32854 -10.32525 -10.32520
 Alpha  occ. eigenvalues --  -10.32338 -10.32331 -10.32172 -10.32170 -10.32124
 Alpha  occ. eigenvalues --  -10.32091 -10.32037 -10.32002 -10.31973 -10.31632
 Alpha  occ. eigenvalues --  -10.31601 -10.31587 -10.31448 -10.31284 -10.31235
 Alpha  occ. eigenvalues --  -10.31233 -10.31233 -10.31225 -10.31222 -10.31037
 Alpha  occ. eigenvalues --  -10.30789 -10.30477 -10.30438 -10.30165 -10.30113
 Alpha  occ. eigenvalues --  -10.29232 -10.29164 -10.29145 -10.29139 -10.29068
 Alpha  occ. eigenvalues --  -10.29020 -10.29017 -10.28831 -10.28679 -10.28631
 Alpha  occ. eigenvalues --  -10.28581 -10.28547 -10.28529 -10.28523 -10.28512
 Alpha  occ. eigenvalues --  -10.28497 -10.28464 -10.28455 -10.28151 -10.28116
 Alpha  occ. eigenvalues --  -10.28080 -10.28070 -10.28012 -10.27958 -10.27948
 Alpha  occ. eigenvalues --  -10.27865 -10.27802 -10.27764 -10.27721 -10.27717
 Alpha  occ. eigenvalues --  -10.27702 -10.27687 -10.27624 -10.27592 -10.27591
 Alpha  occ. eigenvalues --  -10.27586 -10.27333 -10.27320 -10.27296 -10.27238
 Alpha  occ. eigenvalues --  -10.27235 -10.27227 -10.27227 -10.27225 -10.27207
 Alpha  occ. eigenvalues --  -10.27179 -10.27112 -10.27064 -10.27059 -10.27056
 Alpha  occ. eigenvalues --  -10.27033 -10.27008 -10.26978 -10.26962 -10.26917
 Alpha  occ. eigenvalues --  -10.26912 -10.26894 -10.26886 -10.26870 -10.26849
 Alpha  occ. eigenvalues --  -10.26848 -10.26773 -10.26766 -10.26763 -10.26756
 Alpha  occ. eigenvalues --  -10.26755 -10.26743 -10.26726 -10.26616 -10.26604
 Alpha  occ. eigenvalues --  -10.26578 -10.26560 -10.26547 -10.26541 -10.26533
 Alpha  occ. eigenvalues --  -10.26508 -10.26489 -10.26477 -10.26473 -10.26465
 Alpha  occ. eigenvalues --  -10.26448 -10.26430 -10.26338 -10.26300 -10.26277
 Alpha  occ. eigenvalues --  -10.26226 -10.26189 -10.26174 -10.26167 -10.26087
 Alpha  occ. eigenvalues --  -10.25669 -10.25667 -10.25660 -10.25585  -3.57512
 Alpha  occ. eigenvalues --   -3.57373  -2.25672  -2.25542  -2.24971  -2.24831
 Alpha  occ. eigenvalues --   -2.21226  -2.21071  -1.16411  -1.16057  -1.03373
 Alpha  occ. eigenvalues --   -1.03323  -1.02865  -1.02835  -1.02740  -1.02603
 Alpha  occ. eigenvalues --   -1.02301  -1.02300  -0.99663  -0.99618  -0.92755
 Alpha  occ. eigenvalues --   -0.92668  -0.92637  -0.92550  -0.92028  -0.91844
 Alpha  occ. eigenvalues --   -0.91527  -0.91366  -0.90595  -0.90528  -0.90515
 Alpha  occ. eigenvalues --   -0.90461  -0.87670  -0.87601  -0.87295  -0.87226
 Alpha  occ. eigenvalues --   -0.85828  -0.85709  -0.85679  -0.85526  -0.84527
 Alpha  occ. eigenvalues --   -0.84443  -0.84216  -0.84187  -0.82975  -0.82926
 Alpha  occ. eigenvalues --   -0.82850  -0.82801  -0.82724  -0.82697  -0.82605
 Alpha  occ. eigenvalues --   -0.82540  -0.82443  -0.82342  -0.82221  -0.82040
 Alpha  occ. eigenvalues --   -0.81914  -0.81767  -0.80529  -0.80375  -0.79428
 Alpha  occ. eigenvalues --   -0.79333  -0.78943  -0.78889  -0.78841  -0.78790
 Alpha  occ. eigenvalues --   -0.78576  -0.78445  -0.78403  -0.78275  -0.77164
 Alpha  occ. eigenvalues --   -0.76949  -0.76245  -0.76183  -0.74911  -0.74854
 Alpha  occ. eigenvalues --   -0.71085  -0.71013  -0.70940  -0.70902  -0.70868
 Alpha  occ. eigenvalues --   -0.70777  -0.70723  -0.70560  -0.69868  -0.69523
 Alpha  occ. eigenvalues --   -0.69466  -0.69398  -0.69359  -0.69283  -0.69165
 Alpha  occ. eigenvalues --   -0.69066  -0.68541  -0.68495  -0.68432  -0.68374
 Alpha  occ. eigenvalues --   -0.67415  -0.67297  -0.66817  -0.66746  -0.66587
 Alpha  occ. eigenvalues --   -0.66536  -0.64714  -0.64631  -0.64629  -0.64614
 Alpha  occ. eigenvalues --   -0.64587  -0.64552  -0.63347  -0.63240  -0.63183
 Alpha  occ. eigenvalues --   -0.63102  -0.63078  -0.62980  -0.62554  -0.62403
 Alpha  occ. eigenvalues --   -0.59982  -0.59789  -0.59709  -0.59352  -0.59145
 Alpha  occ. eigenvalues --   -0.58370  -0.58274  -0.58171  -0.58137  -0.58027
 Alpha  occ. eigenvalues --   -0.57745  -0.57647  -0.57554  -0.57419  -0.57145
 Alpha  occ. eigenvalues --   -0.57002  -0.56950  -0.56812  -0.56621  -0.56487
 Alpha  occ. eigenvalues --   -0.56462  -0.56323  -0.56204  -0.56009  -0.55577
 Alpha  occ. eigenvalues --   -0.55507  -0.54988  -0.54736  -0.53966  -0.53748
 Alpha  occ. eigenvalues --   -0.53725  -0.53596  -0.53030  -0.52497  -0.51989
 Alpha  occ. eigenvalues --   -0.51972  -0.51825  -0.51699  -0.51588  -0.51547
 Alpha  occ. eigenvalues --   -0.51450  -0.51342  -0.51242  -0.51220  -0.51199
 Alpha  occ. eigenvalues --   -0.51069  -0.50918  -0.50799  -0.50701  -0.50670
 Alpha  occ. eigenvalues --   -0.50469  -0.50388  -0.50318  -0.50262  -0.50209
 Alpha  occ. eigenvalues --   -0.49778  -0.49648  -0.49614  -0.49538  -0.49376
 Alpha  occ. eigenvalues --   -0.49297  -0.49217  -0.49094  -0.49090  -0.48724
 Alpha  occ. eigenvalues --   -0.48643  -0.48541  -0.48402  -0.48295  -0.48083
 Alpha  occ. eigenvalues --   -0.47969  -0.47918  -0.47874  -0.47810  -0.47714
 Alpha  occ. eigenvalues --   -0.47562  -0.47499  -0.47419  -0.47328  -0.47193
 Alpha  occ. eigenvalues --   -0.47116  -0.47052  -0.46912  -0.46803  -0.46667
 Alpha  occ. eigenvalues --   -0.46621  -0.46466  -0.46424  -0.46327  -0.46181
 Alpha  occ. eigenvalues --   -0.45807  -0.45741  -0.45710  -0.45629  -0.45625
 Alpha  occ. eigenvalues --   -0.45577  -0.45307  -0.45020  -0.45000  -0.44708
 Alpha  occ. eigenvalues --   -0.44194  -0.44160  -0.43843  -0.43822  -0.43395
 Alpha  occ. eigenvalues --   -0.43355  -0.43200  -0.43031  -0.42878  -0.42714
 Alpha  occ. eigenvalues --   -0.42463  -0.42413  -0.42322  -0.42255  -0.42206
 Alpha  occ. eigenvalues --   -0.42151  -0.42049  -0.41911  -0.41724  -0.41695
 Alpha  occ. eigenvalues --   -0.41629  -0.41558  -0.41488  -0.41419  -0.41313
 Alpha  occ. eigenvalues --   -0.41202  -0.41159  -0.41124  -0.41010  -0.40958
 Alpha  occ. eigenvalues --   -0.40735  -0.40511  -0.40301  -0.40237  -0.40173
 Alpha  occ. eigenvalues --   -0.39952  -0.39485  -0.39404  -0.38845  -0.38529
 Alpha  occ. eigenvalues --   -0.38492  -0.38398  -0.38292  -0.38246  -0.38066
 Alpha  occ. eigenvalues --   -0.37993  -0.37893  -0.37744  -0.37720  -0.37687
 Alpha  occ. eigenvalues --   -0.37521  -0.37345  -0.37118  -0.36890  -0.36809
 Alpha  occ. eigenvalues --   -0.36784  -0.36705  -0.36362  -0.35643  -0.35593
 Alpha  occ. eigenvalues --   -0.35314  -0.35136  -0.34987  -0.34801  -0.34659
 Alpha  occ. eigenvalues --   -0.34426  -0.34073  -0.34023  -0.33502  -0.33421
 Alpha  occ. eigenvalues --   -0.33139  -0.32984  -0.32681  -0.32640  -0.32446
 Alpha  occ. eigenvalues --   -0.32209  -0.32007  -0.31887  -0.31770  -0.31698
 Alpha  occ. eigenvalues --   -0.31399  -0.31276  -0.30986  -0.30748  -0.30581
 Alpha  occ. eigenvalues --   -0.30342  -0.30297  -0.30071  -0.29864  -0.29732
 Alpha  occ. eigenvalues --   -0.29703  -0.29505  -0.29390  -0.29381  -0.29322
 Alpha  occ. eigenvalues --   -0.29275  -0.29200  -0.28871  -0.28816  -0.28555
 Alpha  occ. eigenvalues --   -0.28125  -0.27824  -0.27273  -0.27129  -0.26277
 Alpha  occ. eigenvalues --   -0.26163  -0.26124  -0.26073  -0.25525  -0.25249
 Alpha  occ. eigenvalues --   -0.24585  -0.24210
 Alpha virt. eigenvalues --   -0.12070  -0.11426  -0.09901  -0.09875  -0.09390
 Alpha virt. eigenvalues --   -0.09350  -0.08957  -0.08646  -0.08489  -0.08047
 Alpha virt. eigenvalues --   -0.07546  -0.07413  -0.07021  -0.06628  -0.06461

 Mulliken charges:
               1
     1  Pd   0.586705
     2  Pd   0.563952
     3  C    0.129174
     4  N   -0.346591
     5  C    0.100639
     6  C   -0.038351
     7  C    0.055890
     8  C    0.029423
     9  C   -0.017584
    10  C   -0.057931
    11  C    0.206315
    12  O   -0.284029
    13  C    0.206182
    14  C   -0.063069
    15  C   -0.027683
    16  C    0.031082
    17  C    0.083018
    18  C   -0.043899
    19  C    0.127234
    20  N   -0.354717
    21  C    0.125451
    22  C   -0.066013
    23  C   -0.069710
    24  C    0.050090
    25  C    0.048069
    26  C   -0.072720
    27  C   -0.035627
    28  H    0.119150
    29  H    0.103904
    30  H    0.067726
    31  H    0.045732
    32  H    0.043593
    33  H    0.044011
    34  H    0.047960
    35  H    0.066827
    36  H    0.106950
    37  H    0.106005
    38  H    0.070354
    39  H    0.035974
    40  H    0.037638
    41  H    0.067881
    42  C    0.135882
    43  N   -0.333436
    44  C    0.137561
    45  C   -0.050411
    46  C    0.065040
    47  C    0.021748
    48  C   -0.031185
    49  C   -0.072592
    50  C    0.205916
    51  O   -0.264332
    52  C    0.206189
    53  C   -0.073037
    54  C   -0.029821
    55  C    0.019646
    56  C    0.059966
    57  C   -0.047140
    58  C    0.143898
    59  N   -0.341166
    60  C    0.134722
    61  C   -0.047334
    62  C   -0.049716
    63  C    0.018212
    64  C    0.018290
    65  C   -0.050233
    66  C   -0.049688
    67  H    0.109378
    68  H    0.085604
    69  H    0.063555
    70  H    0.052738
    71  H    0.048411
    72  H    0.048542
    73  H    0.052447
    74  H    0.065440
    75  H    0.087298
    76  H    0.112534
    77  H    0.066831
    78  H    0.041030
    79  H    0.040422
    80  H    0.064925
    81  C   -0.019169
    82  C    0.122044
    83  N   -0.352171
    84  C    0.144284
    85  C   -0.019079
    86  C    0.039324
    87  C   -0.054673
    88  C   -0.023381
    89  C    0.005586
    90  C   -0.085403
    91  C   -0.045130
    92  C    0.086366
    93  C   -0.080585
    94  N   -0.191891
    95  C   -0.062860
    96  C    0.070537
    97  C   -0.042621
    98  C   -0.083992
    99  C    0.006481
   100  C   -0.000255
   101  C   -0.057612
   102  C    0.034128
   103  C   -0.023877
   104  C    0.005248
   105  C   -0.005139
   106  C    0.037257
   107  C   -0.027061
   108  C    0.125313
   109  N   -0.326904
   110  C    0.144595
   111  C   -0.018226
   112  C   -0.044339
   113  C    0.012851
   114  C    0.022766
   115  C    0.027621
   116  C    0.039973
   117  C    0.009643
   118  C   -0.012295
   119  C   -0.023614
   120  C    0.005873
   121  C   -0.003631
   122  C    0.029918
   123  H    0.061862
   124  H    0.115896
   125  H    0.108927
   126  H    0.049153
   127  H    0.040808
   128  H    0.042135
   129  H    0.042777
   130  H    0.046718
   131  H    0.060824
   132  H    0.046967
   133  H    0.059779
   134  H    0.109263
   135  H    0.106090
   136  H    0.052931
   137  H    0.043389
   138  H    0.047200
   139  H    0.059614
   140  H    0.045527
   141  H    0.041968
   142  H    0.043212
   143  H    0.048877
   144  H    0.061115
   145  H    0.047997
   146  C   -0.017090
   147  C    0.106416
   148  N   -0.328149
   149  C    0.152126
   150  C   -0.037430
   151  C    0.045120
   152  C   -0.050036
   153  C   -0.044668
   154  C    0.010770
   155  C   -0.083637
   156  C   -0.039385
   157  C    0.061778
   158  C   -0.058650
   159  N   -0.192522
   160  C   -0.077252
   161  C    0.064117
   162  C   -0.031763
   163  C   -0.085419
   164  C    0.010245
   165  C   -0.013030
   166  C   -0.055533
   167  C    0.041491
   168  C   -0.011911
   169  C    0.005344
   170  C   -0.001874
   171  C    0.029943
   172  C   -0.012135
   173  C    0.101798
   174  N   -0.333874
   175  C    0.161173
   176  C   -0.040997
   177  C   -0.014185
   178  C    0.005745
   179  C    0.040843
   180  C    0.028174
   181  C    0.018119
   182  C    0.009040
   183  C   -0.007831
   184  C   -0.018965
   185  C    0.005389
   186  C   -0.004236
   187  C    0.034793
   188  H    0.063302
   189  H    0.112447
   190  H    0.096822
   191  H    0.054789
   192  H    0.044565
   193  H    0.037681
   194  H    0.048197
   195  H    0.050274
   196  H    0.061744
   197  H    0.048757
   198  H    0.064896
   199  H    0.116583
   200  H    0.101845
   201  H    0.042995
   202  H    0.041657
   203  H    0.045956
   204  H    0.059840
   205  H    0.047911
   206  H    0.042508
   207  H    0.043291
   208  H    0.048467
   209  H    0.061373
   210  H    0.048180
 Sum of Mulliken charges =   4.00000

 Dipole moment (field-independent basis, Debye):
    X=             -2.1647    Y=             24.6109    Z=              5.8223  Tot=             25.3826
 Quadrupole moment (field-independent basis, Debye-Ang):
   XX=             64.5604   YY=           -448.0077   ZZ=           -552.1634
   XY=              2.9598   XZ=             65.9847   YZ=             -0.7853

 Normal termination of Gaussian 16 at Sat Jun  3 02:10:55 2023.
