 Gaussian 16, Revision C.01,
 Gaussian 16:  ES64L-G16RevC.01  3-Jul-2019

 ----------------------------------------------------------------------
 #P PBE1PBE/Def2SVP SP SCF=(YQC,MaxCycle=900) int=(Grid=Superfinegrid)
 EmpiricalDispersion=GD3BJ SCRF=(PCM,Solvent=DiMethylSulfoxide)
 ----------------------------------------------------------------------

 --------
 _s_5a1_d
 --------
 Symbolic Z-matrix:
 Charge =  4 Multiplicity = 1

                         Standard orientation:
 ---------------------------------------------------------------------
 Center     Atomic      Atomic             Coordinates (Angstroms)
 Number     Number       Type             X           Y           Z
 ---------------------------------------------------------------------
      1         46           0        5.657707   -0.000510   -0.000378
      2         46           0       -5.674132   -0.001013   -0.000133
      3          6           0       -1.823127    4.873878    4.455542
      4          6           0       -2.997371    4.837772    4.168032
      5          6           0       -4.346199    4.697370    3.786239
      6          6           0       -5.328911    5.561699    4.233315
      7          6           0       -6.664131    5.393623    3.846370
      8          6           0       -7.038787    4.366715    3.017899
      9          6           0       -6.067114    3.460265    2.543557
     10          6           0       -6.385919    2.379733    1.695980
     11          7           0       -5.482022    1.533260    1.257767
     12          6           0       -4.177559    1.681277    1.616804
     13          6           0       -3.765486    2.693560    2.433413
     14          6           0       -4.705903    3.622083    2.925326
     15          1           0       -5.062060    6.377465    4.888076
     16          1           0       -7.403939    6.088582    4.213175
     17          1           0       -8.069727    4.243414    2.726414
     18          1           0       -7.411220    2.223311    1.377854
     19          1           0       -3.479763    0.938930    1.218558
     20          1           0       -2.730484    2.797985    2.716973
     21          6           0       -0.459013    4.856078    4.814035
     22          6           0       -0.062867    5.330115    6.088024
     23          6           0        1.243064    5.246773    6.473744
     24          6           0        2.219732    4.694506    5.616330
     25          6           0        3.568819    4.560893    6.003112
     26          6           0        4.492595    4.022795    5.154650
     27          6           0        4.123042    3.593473    3.857812
     28          6           0        2.809716    3.708771    3.460462
     29          6           0        1.833406    4.248271    4.323348
     30          6           0        0.480179    4.338811    3.945564
     31          1           0       -0.808535    5.746201    6.748934
     32          1           0        1.547318    5.598888    7.448819
     33          1           0        3.860524    4.887850    6.990334
     34          1           0        5.511997    3.901624    5.486595
     35          1           0        2.506693    3.420622    2.465726
     36          1           0        0.180574    3.997965    2.966264
     37          6           0        5.154118    3.038634    2.970243
     38          6           0        6.464181    3.527772    2.992963
     39          6           0        7.430251    2.952692    2.184446
     40          6           0        7.071659    1.908407    1.350136
     41          7           0        5.812490    1.463606    1.301846
     42          6           0        4.878410    1.995946    2.083904
     43          1           0        6.720179    4.359051    3.630797
     44          1           0        8.446237    3.312833    2.201407
     45          1           0        7.803997    1.418664    0.703780
     46          1           0        3.888058    1.559480    2.014144
     47          6           0        1.832472    4.684997   -4.622381
     48          6           0        3.010411    4.415909   -4.571333
     49          6           0        4.363799    4.052829   -4.427484
     50          6           0        5.353896    4.593113   -5.228080
     51          6           0        6.694207    4.224440   -5.061530
     52          6           0        7.066523    3.321687   -4.098247
     53          6           0        6.087207    2.751521   -3.257986
     54          6           0        6.402930    1.827304   -2.241935
     55          7           0        5.490359    1.303027   -1.457522
     56          6           0        4.181754    1.635087   -1.605519
     57          6           0        3.771727    2.522431   -2.558887
     58          6           0        4.720172    3.112994   -3.419483
     59          1           0        5.088392    5.307706   -5.992441
     60          1           0        7.439608    4.664876   -5.705880
     61          1           0        8.101226    3.044427   -3.974645
     62          1           0        7.431567    1.521117   -2.084151
     63          1           0        3.474131    1.159739   -0.918754
     64          1           0        2.732449    2.788404   -2.667715
     65          6           0        0.461119    5.013293   -4.628876
     66          6           0        0.046860    6.289633   -5.080940
     67          6           0       -1.270864    6.639006   -5.030892
     68          6           0       -2.242015    5.741445   -4.535620
     69          6           0       -3.605881    6.086773   -4.444048
     70          6           0       -4.524291    5.198255   -3.964689
     71          6           0       -4.132731    3.902446   -3.552383
     72          6           0       -2.805154    3.545587   -3.624843
     73          6           0       -1.835337    4.448513   -4.107612
     74          6           0       -0.470498    4.108475   -4.162722
     75          1           0        0.787710    6.980333   -5.455199
     76          1           0       -1.589684    7.614908   -5.367776
     77          1           0       -3.913745    7.073380   -4.757793
     78          1           0       -5.557643    5.496124   -3.876995
     79          1           0       -2.484936    2.553124   -3.347701
     80          1           0       -0.156432    3.128579   -3.837402
     81          6           0       -5.158370    2.971438   -3.062228
     82          6           0       -6.441152    2.957271   -3.618905
     83          6           0       -7.405239    2.106679   -3.105030
     84          6           0       -7.071937    1.273997   -2.051841
     85          7           0       -5.836767    1.261971   -1.536915
     86          6           0       -4.904957    2.082296   -2.016514
     87          1           0       -6.675834    3.598722   -4.453689
     88          1           0       -8.401249    2.090565   -3.517076
     89          1           0       -7.801985    0.595936   -1.606805
     90          1           0       -3.934048    2.042641   -1.534383
     91          6           0       -1.822156   -4.873394   -4.458144
     92          6           0       -2.996619   -4.836764   -4.171452
     93          6           0       -4.345562   -4.696309   -3.790256
     94          6           0       -5.328487   -5.559426   -4.239288
     95          6           0       -6.663798   -5.391352   -3.853064
     96          6           0       -7.038508   -4.365478   -3.023229
     97          6           0       -6.066782   -3.460222   -2.546936
     98          6           0       -6.385559   -2.380735   -1.698077
     99          7           0       -5.481612   -1.535185   -1.258322
    100          6           0       -4.176938   -1.683310   -1.616510
    101          6           0       -3.764900   -2.694721   -2.434194
    102          6           0       -4.705275   -3.622123   -2.928036
    103          1           0       -5.061520   -6.374315   -4.895182
    104          1           0       -7.403687   -6.085363   -4.221485
    105          1           0       -8.069567   -4.242155   -2.732301
    106          1           0       -7.411037   -2.224262   -1.380476
    107          1           0       -3.479091   -0.941734   -1.216791
    108          1           0       -2.729688   -2.799276   -2.717213
    109          6           0       -0.457934   -4.856337   -4.816046
    110          6           0       -0.061421   -5.331001   -6.089808
    111          6           0        1.244685   -5.248275   -6.474967
    112          6           0        2.221206   -4.695895   -5.617430
    113          6           0        3.570490   -4.562821   -6.003850
    114          6           0        4.494126   -4.024683   -5.155292
    115          6           0        4.124312   -3.594794   -3.858652
    116          6           0        2.810785   -3.709649   -3.461769
    117          6           0        1.834607   -4.249178   -4.324746
    118          6           0        0.481141   -4.339075   -3.947444
    119          1           0       -0.806966   -5.746993   -6.750774
    120          1           0        1.549282   -5.600922   -7.449743
    121          1           0        3.862490   -4.890284   -6.990833
    122          1           0        5.513680   -3.903962   -5.486916
    123          1           0        2.507466   -3.420984   -2.467255
    124          1           0        0.181310   -3.997708   -2.968456
    125          6           0        5.155115   -3.039916   -2.970875
    126          6           0        6.465177   -3.529007   -2.993271
    127          6           0        7.431070   -2.953840   -2.184477
    128          6           0        7.072235   -1.909440   -1.350478
    129          7           0        5.813052   -1.464627   -1.302480
    130          6           0        4.879182   -1.997096   -2.084728
    131          1           0        6.721359   -4.360484   -3.630836
    132          1           0        8.447023   -3.314086   -2.201098
    133          1           0        7.804467   -1.419583   -0.703977
    134          1           0        3.888790   -1.560701   -2.015234
    135          6           0        1.831811   -4.682005    4.625712
    136          6           0        3.009809   -4.412958    4.574161
    137          6           0        4.363162   -4.050251    4.429936
    138          6           0        5.353216   -4.589620    5.231238
    139          6           0        6.693498   -4.221388    5.064237
    140          6           0        7.066003   -3.319956    4.099882
    141          6           0        6.086803   -2.750667    3.258880
    142          6           0        6.402814   -1.827504    2.241903
    143          7           0        5.490297   -1.303930    1.456911
    144          6           0        4.181603   -1.635755    1.605064
    145          6           0        3.771482   -2.522049    2.559396
    146          6           0        4.719745   -3.111647    3.420667
    147          1           0        5.087454   -5.303058    5.996554
    148          1           0        7.438826   -4.661210    5.709223
    149          1           0        8.100873   -3.042997    3.976008
    150          1           0        7.431426   -1.521599    2.083804
    151          1           0        3.474223   -1.161240    0.917547
    152          1           0        2.732161   -2.787778    2.668275
    153          6           0        0.460485   -5.010482    4.632763
    154          6           0        0.046517   -6.286362    5.086238
    155          6           0       -1.271064   -6.636307    5.036484
    156          6           0       -2.242426   -5.739499    4.540100
    157          6           0       -3.606127   -6.085398    4.448701
    158          6           0       -4.524850   -5.197780    3.968212
    159          6           0       -4.133651   -3.902199    3.554747
    160          6           0       -2.806181   -3.544836    3.627055
    161          6           0       -1.836100   -4.446927    4.110791
    162          6           0       -0.471371   -4.106418    4.165623
    163          1           0        0.787589   -6.976422    5.461253
    164          1           0       -1.589566   -7.611910    5.374397
    165          1           0       -3.913651   -7.071875    4.763357
    166          1           0       -5.557958   -5.496134    3.880636
    167          1           0       -2.486263   -2.552538    3.349084
    168          1           0       -0.157536   -3.126742    3.839214
    169          6           0       -5.159411   -2.972014    3.063409
    170          6           0       -6.442471   -2.957723    3.619662
    171          6           0       -7.406574   -2.107789    3.104680
    172          6           0       -7.073059   -1.275752    2.051143
    173          7           0       -5.837750   -1.263842    1.536618
    174          6           0       -4.905987   -2.083624    2.017130
    175          1           0       -6.677268   -3.598615    4.454841
    176          1           0       -8.402736   -2.091567    3.516366
    177          1           0       -7.803100   -0.598075    1.605373
    178          1           0       -3.934815   -2.044235    1.535162
 ---------------------------------------------------------------------

 SCF Done:  E(RPBE1PBE) =  -4686.80542530     a.u. after   18 cycles
 SCF Done:  E(RPBE1PBE) =  -4686.80566270     A.U. after   10 cycles

 The electronic state is 1-A.
 Alpha  occ. eigenvalues --  -14.48748 -14.48745 -14.48709 -14.48706 -14.48619
 Alpha  occ. eigenvalues --  -14.48617 -14.48572 -14.48570 -10.32556 -10.32555
 Alpha  occ. eigenvalues --  -10.32554 -10.32553 -10.31984 -10.31983 -10.31960
 Alpha  occ. eigenvalues --  -10.31959 -10.31697 -10.31695 -10.31688 -10.31686
 Alpha  occ. eigenvalues --  -10.31225 -10.31223 -10.31204 -10.31202 -10.29435
 Alpha  occ. eigenvalues --  -10.29435 -10.29431 -10.29431 -10.29342 -10.29341
 Alpha  occ. eigenvalues --  -10.29340 -10.29340 -10.29284 -10.29284 -10.29246
 Alpha  occ. eigenvalues --  -10.29246 -10.28924 -10.28923 -10.28920 -10.28919
 Alpha  occ. eigenvalues --  -10.28761 -10.28760 -10.28753 -10.28752 -10.28153
 Alpha  occ. eigenvalues --  -10.28153 -10.28142 -10.28142 -10.27936 -10.27936
 Alpha  occ. eigenvalues --  -10.27929 -10.27928 -10.27871 -10.27871 -10.27853
 Alpha  occ. eigenvalues --  -10.27852 -10.27570 -10.27569 -10.27557 -10.27556
 Alpha  occ. eigenvalues --  -10.27487 -10.27487 -10.27465 -10.27465 -10.27385
 Alpha  occ. eigenvalues --  -10.27385 -10.27375 -10.27374 -10.26825 -10.26825
 Alpha  occ. eigenvalues --  -10.26825 -10.26825 -10.26785 -10.26785 -10.26773
 Alpha  occ. eigenvalues --  -10.26772 -10.26636 -10.26636 -10.26629 -10.26629
 Alpha  occ. eigenvalues --  -10.26381 -10.26381 -10.26371 -10.26370 -10.26326
 Alpha  occ. eigenvalues --  -10.26326 -10.26306 -10.26306 -10.26230 -10.26229
 Alpha  occ. eigenvalues --  -10.26222 -10.26220 -10.25983 -10.25982 -10.25976
 Alpha  occ. eigenvalues --  -10.25975 -10.25917 -10.25916 -10.25909 -10.25909
 Alpha  occ. eigenvalues --  -10.25881 -10.25880 -10.25873 -10.25872 -10.25676
 Alpha  occ. eigenvalues --  -10.25676 -10.25672 -10.25672 -10.25663 -10.25663
 Alpha  occ. eigenvalues --  -10.25659 -10.25659  -3.57693  -3.57509  -2.25670
 Alpha  occ. eigenvalues --   -2.25589  -2.25405  -2.25370  -2.21502  -2.21282
 Alpha  occ. eigenvalues --   -1.04289  -1.04034  -1.03555  -1.03425  -1.03413
 Alpha  occ. eigenvalues --   -1.03396  -1.03264  -1.03250  -0.92983  -0.92957
 Alpha  occ. eigenvalues --   -0.92956  -0.92951  -0.92822  -0.92790  -0.92759
 Alpha  occ. eigenvalues --   -0.92754  -0.89570  -0.89542  -0.89503  -0.89487
 Alpha  occ. eigenvalues --   -0.86620  -0.86587  -0.86499  -0.86491  -0.85506
 Alpha  occ. eigenvalues --   -0.85498  -0.85490  -0.85484  -0.84137  -0.84101
 Alpha  occ. eigenvalues --   -0.84077  -0.84054  -0.83715  -0.83657  -0.83594
 Alpha  occ. eigenvalues --   -0.83584  -0.81848  -0.81807  -0.81796  -0.81756
 Alpha  occ. eigenvalues --   -0.81371  -0.81360  -0.81340  -0.81331  -0.79943
 Alpha  occ. eigenvalues --   -0.79897  -0.79895  -0.79851  -0.77135  -0.77120
 Alpha  occ. eigenvalues --   -0.77084  -0.77070  -0.75506  -0.75503  -0.75500
 Alpha  occ. eigenvalues --   -0.75492  -0.71652  -0.71519  -0.71481  -0.71397
 Alpha  occ. eigenvalues --   -0.71004  -0.70999  -0.70916  -0.70882  -0.69548
 Alpha  occ. eigenvalues --   -0.69475  -0.69307  -0.69294  -0.69112  -0.69071
 Alpha  occ. eigenvalues --   -0.68954  -0.68929  -0.68231  -0.68218  -0.68158
 Alpha  occ. eigenvalues --   -0.68157  -0.66032  -0.66028  -0.66024  -0.66012
 Alpha  occ. eigenvalues --   -0.64980  -0.64942  -0.64830  -0.64809  -0.63819
 Alpha  occ. eigenvalues --   -0.63811  -0.63809  -0.63804  -0.60863  -0.60471
 Alpha  occ. eigenvalues --   -0.60258  -0.60146  -0.60115  -0.59817  -0.59237
 Alpha  occ. eigenvalues --   -0.59178  -0.58672  -0.58483  -0.58187  -0.58116
 Alpha  occ. eigenvalues --   -0.57358  -0.57334  -0.57324  -0.57289  -0.57039
 Alpha  occ. eigenvalues --   -0.56905  -0.56216  -0.56193  -0.55815  -0.55795
 Alpha  occ. eigenvalues --   -0.55768  -0.55750  -0.55295  -0.55269  -0.55240
 Alpha  occ. eigenvalues --   -0.55226  -0.53849  -0.53791  -0.53783  -0.53757
 Alpha  occ. eigenvalues --   -0.52596  -0.52468  -0.51931  -0.51825  -0.51808
 Alpha  occ. eigenvalues --   -0.51634  -0.51606  -0.51337  -0.51324  -0.51301
 Alpha  occ. eigenvalues --   -0.51288  -0.51042  -0.50303  -0.50289  -0.50079
 Alpha  occ. eigenvalues --   -0.49961  -0.49646  -0.49478  -0.49292  -0.49262
 Alpha  occ. eigenvalues --   -0.49102  -0.49026  -0.48991  -0.48976  -0.48945
 Alpha  occ. eigenvalues --   -0.48818  -0.48753  -0.48647  -0.48618  -0.48593
 Alpha  occ. eigenvalues --   -0.48129  -0.48103  -0.48092  -0.48085  -0.47884
 Alpha  occ. eigenvalues --   -0.47843  -0.47348  -0.47277  -0.46936  -0.46905
 Alpha  occ. eigenvalues --   -0.46860  -0.46786  -0.46778  -0.46746  -0.46055
 Alpha  occ. eigenvalues --   -0.45866  -0.45511  -0.45484  -0.45386  -0.45380
 Alpha  occ. eigenvalues --   -0.45343  -0.45336  -0.45315  -0.45314  -0.44595
 Alpha  occ. eigenvalues --   -0.44552  -0.44395  -0.44251  -0.44242  -0.44191
 Alpha  occ. eigenvalues --   -0.43868  -0.43795  -0.43551  -0.43259  -0.42960
 Alpha  occ. eigenvalues --   -0.42953  -0.42934  -0.42899  -0.42601  -0.42576
 Alpha  occ. eigenvalues --   -0.42069  -0.42064  -0.41631  -0.41584  -0.41352
 Alpha  occ. eigenvalues --   -0.41317  -0.40830  -0.40737  -0.40375  -0.40306
 Alpha  occ. eigenvalues --   -0.39920  -0.39748  -0.39731  -0.39514  -0.39502
 Alpha  occ. eigenvalues --   -0.39493  -0.39456  -0.39309  -0.38430  -0.38282
 Alpha  occ. eigenvalues --   -0.38273  -0.38272  -0.38258  -0.37472  -0.37402
 Alpha  occ. eigenvalues --   -0.37377  -0.37100  -0.37059  -0.36817  -0.36754
 Alpha  occ. eigenvalues --   -0.36433  -0.36417  -0.36354  -0.36083  -0.36026
 Alpha  occ. eigenvalues --   -0.35928  -0.35449  -0.35358  -0.34598  -0.34355
 Alpha  occ. eigenvalues --   -0.34202  -0.34174  -0.33930  -0.33913  -0.33488
 Alpha  occ. eigenvalues --   -0.33383  -0.33351  -0.33032  -0.32667  -0.32580
 Alpha  occ. eigenvalues --   -0.32071  -0.32005  -0.31871  -0.31860  -0.31698
 Alpha  occ. eigenvalues --   -0.31610  -0.31322  -0.31287  -0.31268  -0.31258
 Alpha  occ. eigenvalues --   -0.30899  -0.30871  -0.30711  -0.30546  -0.28998
 Alpha  occ. eigenvalues --   -0.28887  -0.28339  -0.28319  -0.28246  -0.28142
 Alpha  occ. eigenvalues --   -0.26007  -0.25962  -0.25960  -0.25892  -0.24299
 Alpha  occ. eigenvalues --   -0.24296  -0.24261  -0.24248
 Alpha virt. eigenvalues --   -0.10096  -0.10059  -0.09908  -0.09856  -0.08257
 Alpha virt. eigenvalues --   -0.08215  -0.08146  -0.07970  -0.07525  -0.07486
 Alpha virt. eigenvalues --   -0.07321  -0.07083  -0.06920  -0.06801  -0.06778

 Mulliken charges:
               1
     1  Pd   0.482450
     2  Pd   0.499124
     3  C    0.002564
     4  C   -0.055575
     5  C   -0.021087
     6  C    0.021331
     7  C   -0.001996
     8  C    0.020771
     9  C   -0.069081
    10  C    0.179952
    11  N   -0.325827
    12  C    0.144047
    13  C   -0.007492
    14  C    0.065754
    15  H    0.043612
    16  H    0.054620
    17  H    0.044117
    18  H    0.085111
    19  H    0.110215
    20  H    0.047598
    21  C   -0.066677
    22  C    0.025282
    23  C   -0.011013
    24  C    0.006222
    25  C   -0.013935
    26  C   -0.017318
    27  C    0.040941
    28  C   -0.043057
    29  C    0.032478
    30  C   -0.021626
    31  H    0.032430
    32  H    0.029483
    33  H    0.027928
    34  H    0.035127
    35  H    0.024543
    36  H    0.024597
    37  C   -0.034220
    38  C    0.056202
    39  C   -0.026363
    40  C    0.145835
    41  N   -0.319971
    42  C    0.157026
    43  H    0.063746
    44  H    0.066669
    45  H    0.120080
    46  H    0.081403
    47  C    0.004068
    48  C   -0.057453
    49  C   -0.020784
    50  C    0.020840
    51  C   -0.001619
    52  C    0.020720
    53  C   -0.068098
    54  C    0.180853
    55  N   -0.326521
    56  C    0.148242
    57  C   -0.007768
    58  C    0.065353
    59  H    0.043523
    60  H    0.054623
    61  H    0.043989
    62  H    0.083711
    63  H    0.111133
    64  H    0.047875
    65  C   -0.066126
    66  C    0.025031
    67  C   -0.010903
    68  C    0.006140
    69  C   -0.014068
    70  C   -0.016449
    71  C    0.038500
    72  C   -0.041900
    73  C    0.032765
    74  C   -0.022646
    75  H    0.032334
    76  H    0.029432
    77  H    0.027883
    78  H    0.035172
    79  H    0.024362
    80  H    0.024708
    81  C   -0.037220
    82  C    0.059009
    83  C   -0.028814
    84  C    0.146898
    85  N   -0.317436
    86  C    0.156383
    87  H    0.063792
    88  H    0.066718
    89  H    0.115368
    90  H    0.083158
    91  C    0.002570
    92  C   -0.055580
    93  C   -0.021053
    94  C    0.021300
    95  C   -0.001970
    96  C    0.020731
    97  C   -0.069023
    98  C    0.179905
    99  N   -0.325769
   100  C    0.144041
   101  C   -0.007623
   102  C    0.065771
   103  H    0.043632
   104  H    0.054619
   105  H    0.044096
   106  H    0.085078
   107  H    0.110268
   108  H    0.047639
   109  C   -0.066722
   110  C    0.025365
   111  C   -0.010981
   112  C    0.006174
   113  C   -0.013920
   114  C   -0.017310
   115  C    0.040945
   116  C   -0.043123
   117  C    0.032497
   118  C   -0.021593
   119  H    0.032382
   120  H    0.029481
   121  H    0.027941
   122  H    0.035118
   123  H    0.024545
   124  H    0.024573
   125  C   -0.034169
   126  C    0.056110
   127  C   -0.026357
   128  C    0.145811
   129  N   -0.319965
   130  C    0.157048
   131  H    0.063777
   132  H    0.066670
   133  H    0.120101
   134  H    0.081397
   135  C    0.004100
   136  C   -0.057466
   137  C   -0.020828
   138  C    0.020879
   139  C   -0.001639
   140  C    0.020669
   141  C   -0.068121
   142  C    0.180917
   143  N   -0.326561
   144  C    0.148259
   145  C   -0.007825
   146  C    0.065452
   147  H    0.043495
   148  H    0.054656
   149  H    0.044057
   150  H    0.083687
   151  H    0.111115
   152  H    0.047874
   153  C   -0.066118
   154  C    0.025002
   155  C   -0.010856
   156  C    0.006119
   157  C   -0.014113
   158  C   -0.016377
   159  C    0.038511
   160  C   -0.041918
   161  C    0.032794
   162  C   -0.022660
   163  H    0.032330
   164  H    0.029418
   165  H    0.027911
   166  H    0.035112
   167  H    0.024344
   168  H    0.024740
   169  C   -0.037236
   170  C    0.059042
   171  C   -0.028832
   172  C    0.146888
   173  N   -0.317388
   174  C    0.156239
   175  H    0.063791
   176  H    0.066715
   177  H    0.115403
   178  H    0.083201
 Sum of Mulliken charges =   4.00000

 Dipole moment (field-independent basis, Debye):
    X=             -0.0162    Y=             -0.0040    Z=             -0.0037  Tot=              0.0171
 Quadrupole moment (field-independent basis, Debye-Ang):
   XX=            133.6332   YY=           -443.4245   ZZ=           -457.8477
   XY=             -0.0044   XZ=              0.0386   YZ=             -0.6509

 Normal termination of Gaussian 16 at Fri Feb 26 13:29:40 2021.
