 Gaussian 16, Revision C.01,
 Gaussian 16:  ES64L-G16RevC.01  3-Jul-2019

 ----------------------------------------------------------------------
 #P PBE1PBE/Def2SVP SP SCF=(YQC,MaxCycle=900) int=(Grid=Superfinegrid)
 EmpiricalDispersion=GD3BJ SCRF=(PCM,Solvent=DiMethylSulfoxide)
 ----------------------------------------------------------------------

 --------
 _s_4b3_c
 --------
 Symbolic Z-matrix:
 Charge =  4 Multiplicity = 1

                         Standard orientation:
 ---------------------------------------------------------------------
 Center     Atomic      Atomic             Coordinates (Angstroms)
 Number     Number       Type             X           Y           Z
 ---------------------------------------------------------------------
      1         46           0       -6.798880   -1.390357   -0.048803
      2         46           0        6.800969    1.386202    0.025324
      3          6           0        4.042950   -3.067082    3.022346
      4          6           0        5.229728   -2.906274    3.196857
      5          6           0        6.596409   -2.744423    3.488454
      6          6           0        7.208719   -3.589828    4.397133
      7          6           0        8.553031   -3.424245    4.744588
      8          6           0        9.302736   -2.408514    4.204869
      9          6           0        8.723957   -1.525913    3.275098
     10          6           0        9.435075   -0.451571    2.694037
     11          6           0        8.816679    0.363305    1.790988
     12          7           0        7.530231    0.168392    1.409932
     13          6           0        6.828752   -0.814523    1.939602
     14          6           0        7.361147   -1.696085    2.892956
     15          1           0        6.636354   -4.386185    4.847783
     16          1           0        8.997705   -4.103686    5.455552
     17          1           0       10.335382   -2.274681    4.486186
     18          1           0       10.463049   -0.284485    2.973353
     19          1           0        9.329739    1.208846    1.336768
     20          1           0        5.799838   -0.929031    1.604707
     21          6           0        2.652104   -3.221470    2.866701
     22          6           0        1.954429   -2.496785    1.893279
     23          6           0        0.585958   -2.610475    1.794787
     24          6           0       -0.113612   -3.459963    2.660856
     25          6           0        0.584990   -4.205597    3.617084
     26          6           0        1.953469   -4.084443    3.720578
     27          1           0        2.495927   -1.848290    1.223377
     28          1           0        0.040982   -2.044170    1.056443
     29          1           0        0.046655   -4.866804    4.279010
     30          1           0        2.494445   -4.648470    4.465380
     31          6           0       -1.514781   -3.548852    2.561994
     32          6           0       -2.719082   -3.590754    2.460043
     33          6           0       -4.114141   -3.634162    2.280956
     34          6           0       -4.905116   -4.665606    2.806319
     35          6           0       -6.263958   -4.666793    2.547452
     36          6           0       -6.808725   -3.660827    1.763203
     37          7           0       -6.053931   -2.674233    1.272558
     38          6           0       -4.747258   -2.641086    1.528313
     39          1           0       -4.450959   -5.446173    3.396796
     40          1           0       -6.897579   -5.446334    2.938557
     41          1           0       -7.866991   -3.634374    1.517991
     42          1           0       -4.185731   -1.801609    1.120859
     43          6           0        3.941775   -2.830472   -3.336145
     44          6           0        5.142247   -2.703448   -3.418175
     45          6           0        6.531435   -2.597887   -3.626862
     46          6           0        7.151154   -3.453206   -4.519960
     47          6           0        8.516937   -3.339504   -4.799546
     48          6           0        9.280963   -2.367739   -4.202964
     49          6           0        8.696349   -1.484408   -3.277598
     50          6           0        9.426315   -0.461005   -2.631678
     51          6           0        8.805376    0.347310   -1.724995
     52          7           0        7.497625    0.192275   -1.399692
     53          6           0        6.776492   -0.735955   -1.997028
     54          6           0        7.310629   -1.602861   -2.964040
     55          1           0        6.566877   -4.211993   -5.017599
     56          1           0        8.965833   -4.022566   -5.504218
     57          1           0       10.330288   -2.270843   -4.433248
     58          1           0       10.471416   -0.329669   -2.862411
     59          1           0        9.335019    1.153348   -1.219560
     60          1           0        5.731284   -0.818392   -1.706586
     61          6           0        2.540505   -2.962282   -3.249871
     62          6           0        1.720566   -1.831258   -3.334114
     63          6           0        0.351432   -1.963443   -3.262347
     64          6           0       -0.225145   -3.228629   -3.101837
     65          6           0        0.593230   -4.361142   -3.031412
     66          6           0        1.963176   -4.228734   -3.104911
     67          1           0        2.167264   -0.859471   -3.473868
     68          1           0       -0.285885   -1.096786   -3.340169
     69          1           0        0.147425   -5.337196   -2.915179
     70          1           0        2.597833   -5.100115   -3.049680
     71          6           0       -1.623235   -3.348425   -2.976719
     72          6           0       -2.820824   -3.425007   -2.828217
     73          6           0       -4.203309   -3.511926   -2.574357
     74          6           0       -4.980698   -4.590517   -3.017522
     75          6           0       -6.321934   -4.633631   -2.680105
     76          6           0       -6.857961   -3.627632   -1.889926
     77          7           0       -6.114429   -2.600322   -1.470595
     78          6           0       -4.829965   -2.521503   -1.813244
     79          1           0       -4.531026   -5.372353   -3.609685
     80          1           0       -6.946300   -5.447226   -3.012135
     81          1           0       -7.899896   -3.635152   -1.580745
     82          1           0       -4.279691   -1.648112   -1.467572
     83          6           0       -4.045640    3.111205   -2.979681
     84          6           0       -5.237004    2.966519   -3.136656
     85          6           0       -6.610087    2.825869   -3.407909
     86          6           0       -7.230092    3.702577   -4.280997
     87          6           0       -8.581808    3.559242   -4.609204
     88          6           0       -9.331375    2.534806   -4.086166
     89          6           0       -8.744879    1.620524   -3.192502
     90          6           0       -9.455852    0.535871   -2.630607
     91          6           0       -8.829884   -0.309565   -1.761470
     92          7           0       -7.535989   -0.136139   -1.396269
     93          6           0       -6.834318    0.855141   -1.909847
     94          6           0       -7.374381    1.767786   -2.829151
     95          1           0       -6.658196    4.506505   -4.718525
     96          1           0       -9.032334    4.263013   -5.292331
     97          1           0      -10.369913    2.418153   -4.353196
     98          1           0      -10.489699    0.385482   -2.897351
     99          1           0       -9.342900   -1.163507   -1.323190
    100          1           0       -5.798887    0.951168   -1.589327
    101          6           0       -2.650900    3.248234   -2.844336
    102          6           0       -1.944999    2.496933   -1.897308
    103          6           0       -0.574342    2.596303   -1.817868
    104          6           0        0.119842    3.456907   -2.677487
    105          6           0       -0.586365    4.227554   -3.607865
    106          6           0       -1.957410    4.121708   -3.691884
    107          1           0       -2.482301    1.839880   -1.232602
    108          1           0       -0.023375    2.010096   -1.099850
    109          1           0       -0.052116    4.897021   -4.264835
    110          1           0       -2.504495    4.705656   -4.416437
    111          6           0        1.522903    3.532563   -2.596838
    112          6           0        2.728674    3.564498   -2.509719
    113          6           0        4.125565    3.596897   -2.344165
    114          6           0        4.922837    4.609163   -2.896596
    115          6           0        6.283649    4.601734   -2.648031
    116          6           0        6.824143    3.607060   -1.846404
    117          7           0        6.063178    2.638684   -1.329765
    118          6           0        4.754552    2.612956   -1.576047
    119          1           0        4.472184    5.382187   -3.499501
    120          1           0        6.922127    5.366286   -3.060115
    121          1           0        7.883866    3.575201   -1.608249
    122          1           0        4.187731    1.787668   -1.147649
    123          6           0       -3.938663    2.790818    3.352506
    124          6           0       -5.135997    2.648020    3.452291
    125          6           0       -6.520315    2.521210    3.680694
    126          6           0       -7.136069    3.349702    4.601364
    127          6           0       -8.495947    3.213640    4.899202
    128          6           0       -9.257883    2.246210    4.293033
    129          6           0       -8.677408    1.389874    3.340137
    130          6           0       -9.405578    0.372678    2.682499
    131          6           0       -8.789225   -0.408999    1.749688
    132          7           0       -7.487883   -0.232938    1.409888
    133          6           0       -6.768223    0.690451    2.016394
    134          6           0       -7.297946    1.531082    3.008837
    135          1           0       -6.553031    4.104760    5.106233
    136          1           0       -8.941742    3.876011    5.625406
    137          1           0      -10.302376    2.132121    4.536805
    138          1           0      -10.445766    0.224874    2.925189
    139          1           0       -9.317395   -1.209481    1.234194
    140          1           0       -5.728323    0.790516    1.713037
    141          6           0       -2.540369    2.938904    3.246765
    142          6           0       -1.978399    4.212342    3.103166
    143          6           0       -0.610966    4.359763    3.011818
    144          6           0        0.220059    3.235479    3.062858
    145          6           0       -0.341117    1.963112    3.221108
    146          6           0       -1.707707    1.815819    3.310523
    147          1           0       -2.622747    5.077403    3.063312
    148          1           0       -0.177128    5.341339    2.897003
    149          1           0        0.306132    1.102700    3.283425
    150          1           0       -2.142405    0.838396    3.448518
    151          6           0        1.615297    3.369777    2.922531
    152          6           0        2.810749    3.455966    2.762751
    153          6           0        4.190777    3.551302    2.499279
    154          6           0        4.958289    4.649973    2.909587
    155          6           0        6.297776    4.697922    2.566014
    156          6           0        6.841820    3.676115    1.802186
    157          7           0        6.107726    2.630150    1.413569
    158          6           0        4.825135    2.547300    1.762761
    159          1           0        4.502460    5.442804    3.481911
    160          1           0        6.914599    5.526840    2.873343
    161          1           0        7.882641    3.685786    1.489318
    162          1           0        4.283006    1.659080    1.442945
 ---------------------------------------------------------------------

 SCF Done:  E(RPBE1PBE) =  -4377.38637692     a.u. after   20 cycles
 SCF Done:  E(RPBE1PBE) =  -4377.38654051     A.U. after    9 cycles

 The electronic state is 1-A.
 Alpha  occ. eigenvalues --  -14.49078 -14.49070 -14.49044 -14.49040 -14.48587
 Alpha  occ. eigenvalues --  -14.48587 -14.48575 -14.48564 -10.32637 -10.32636
 Alpha  occ. eigenvalues --  -10.32632 -10.32631 -10.32464 -10.32464 -10.32427
 Alpha  occ. eigenvalues --  -10.32419 -10.32117 -10.32115 -10.32113 -10.32106
 Alpha  occ. eigenvalues --  -10.31070 -10.31067 -10.31063 -10.31058 -10.30955
 Alpha  occ. eigenvalues --  -10.30953 -10.30950 -10.30947 -10.29884 -10.29878
 Alpha  occ. eigenvalues --  -10.29878 -10.29877 -10.29481 -10.29480 -10.29473
 Alpha  occ. eigenvalues --  -10.29469 -10.29205 -10.29203 -10.29197 -10.29190
 Alpha  occ. eigenvalues --  -10.29158 -10.29156 -10.29154 -10.29151 -10.28757
 Alpha  occ. eigenvalues --  -10.28756 -10.28722 -10.28722 -10.28693 -10.28691
 Alpha  occ. eigenvalues --  -10.28684 -10.28683 -10.28354 -10.28353 -10.28348
 Alpha  occ. eigenvalues --  -10.28344 -10.27882 -10.27881 -10.27878 -10.27873
 Alpha  occ. eigenvalues --  -10.27351 -10.27347 -10.27341 -10.27339 -10.27123
 Alpha  occ. eigenvalues --  -10.27122 -10.27119 -10.27118 -10.27038 -10.27038
 Alpha  occ. eigenvalues --  -10.27015 -10.27015 -10.26922 -10.26918 -10.26918
 Alpha  occ. eigenvalues --  -10.26916 -10.26721 -10.26720 -10.26650 -10.26648
 Alpha  occ. eigenvalues --  -10.26645 -10.26644 -10.26636 -10.26636 -10.26635
 Alpha  occ. eigenvalues --  -10.26635 -10.26624 -10.26623 -10.26606 -10.26605
 Alpha  occ. eigenvalues --  -10.26603 -10.26601 -10.26593 -10.26593 -10.26568
 Alpha  occ. eigenvalues --  -10.26568 -10.26557 -10.26557 -10.26522 -10.26520
 Alpha  occ. eigenvalues --  -10.26337 -10.26337 -10.26289 -10.26287  -3.57520
 Alpha  occ. eigenvalues --   -3.57518  -2.25528  -2.25525  -2.25324  -2.25321
 Alpha  occ. eigenvalues --   -2.21226  -2.21225  -1.04461  -1.04460  -1.03762
 Alpha  occ. eigenvalues --   -1.03757  -1.03440  -1.03439  -1.03157  -1.03153
 Alpha  occ. eigenvalues --   -0.92802  -0.92800  -0.92748  -0.92746  -0.92097
 Alpha  occ. eigenvalues --   -0.92095  -0.92050  -0.92048  -0.88909  -0.88903
 Alpha  occ. eigenvalues --   -0.88764  -0.88761  -0.86251  -0.86223  -0.86196
 Alpha  occ. eigenvalues --   -0.86192  -0.85079  -0.85024  -0.84960  -0.84950
 Alpha  occ. eigenvalues --   -0.84240  -0.84205  -0.84075  -0.84054  -0.83113
 Alpha  occ. eigenvalues --   -0.83104  -0.83007  -0.82996  -0.81453  -0.81432
 Alpha  occ. eigenvalues --   -0.81333  -0.81285  -0.79698  -0.79696  -0.79633
 Alpha  occ. eigenvalues --   -0.79633  -0.78952  -0.78943  -0.78884  -0.78829
 Alpha  occ. eigenvalues --   -0.76218  -0.76216  -0.76164  -0.76122  -0.72058
 Alpha  occ. eigenvalues --   -0.72035  -0.71863  -0.71778  -0.71405  -0.71362
 Alpha  occ. eigenvalues --   -0.71181  -0.70996  -0.69758  -0.69658  -0.69552
 Alpha  occ. eigenvalues --   -0.69489  -0.69453  -0.69265  -0.69232  -0.69202
 Alpha  occ. eigenvalues --   -0.68329  -0.68241  -0.68227  -0.68180  -0.66190
 Alpha  occ. eigenvalues --   -0.66150  -0.66114  -0.66101  -0.65547  -0.65547
 Alpha  occ. eigenvalues --   -0.65507  -0.65504  -0.61974  -0.61819  -0.61325
 Alpha  occ. eigenvalues --   -0.61270  -0.60225  -0.60118  -0.60059  -0.60016
 Alpha  occ. eigenvalues --   -0.58597  -0.58488  -0.58472  -0.58380  -0.58211
 Alpha  occ. eigenvalues --   -0.58169  -0.57913  -0.57909  -0.57172  -0.56972
 Alpha  occ. eigenvalues --   -0.56832  -0.56760  -0.56737  -0.56614  -0.56577
 Alpha  occ. eigenvalues --   -0.56442  -0.55875  -0.55821  -0.55752  -0.55661
 Alpha  occ. eigenvalues --   -0.54347  -0.54242  -0.54109  -0.54005  -0.52675
 Alpha  occ. eigenvalues --   -0.52659  -0.52514  -0.52429  -0.52016  -0.52000
 Alpha  occ. eigenvalues --   -0.51512  -0.51511  -0.51459  -0.51445  -0.51150
 Alpha  occ. eigenvalues --   -0.51104  -0.51034  -0.50990  -0.50095  -0.50092
 Alpha  occ. eigenvalues --   -0.50076  -0.50073  -0.49821  -0.49807  -0.49551
 Alpha  occ. eigenvalues --   -0.49544  -0.49269  -0.49267  -0.49029  -0.49022
 Alpha  occ. eigenvalues --   -0.48435  -0.48434  -0.48313  -0.48309  -0.47896
 Alpha  occ. eigenvalues --   -0.47891  -0.47721  -0.47717  -0.47576  -0.47575
 Alpha  occ. eigenvalues --   -0.47532  -0.47528  -0.47120  -0.47113  -0.46505
 Alpha  occ. eigenvalues --   -0.46494  -0.46425  -0.46424  -0.45091  -0.45083
 Alpha  occ. eigenvalues --   -0.44612  -0.44608  -0.44166  -0.43962  -0.43824
 Alpha  occ. eigenvalues --   -0.43771  -0.43758  -0.43713  -0.43644  -0.43636
 Alpha  occ. eigenvalues --   -0.43565  -0.43444  -0.43312  -0.43209  -0.43172
 Alpha  occ. eigenvalues --   -0.43074  -0.42176  -0.42051  -0.41760  -0.41743
 Alpha  occ. eigenvalues --   -0.41678  -0.41665  -0.40951  -0.40879  -0.40664
 Alpha  occ. eigenvalues --   -0.40606  -0.40557  -0.40109  -0.39608  -0.39604
 Alpha  occ. eigenvalues --   -0.39563  -0.39520  -0.39504  -0.39348  -0.39289
 Alpha  occ. eigenvalues --   -0.39204  -0.39139  -0.38961  -0.38592  -0.37847
 Alpha  occ. eigenvalues --   -0.37716  -0.37210  -0.37080  -0.37012  -0.36966
 Alpha  occ. eigenvalues --   -0.36755  -0.36566  -0.35879  -0.35520  -0.35444
 Alpha  occ. eigenvalues --   -0.35026  -0.34826  -0.34255  -0.34170  -0.34110
 Alpha  occ. eigenvalues --   -0.33973  -0.33520  -0.33517  -0.33493  -0.33361
 Alpha  occ. eigenvalues --   -0.32083  -0.32047  -0.31915  -0.31885  -0.31743
 Alpha  occ. eigenvalues --   -0.31629  -0.31477  -0.31458  -0.31382  -0.31360
 Alpha  occ. eigenvalues --   -0.30972  -0.30945  -0.30852  -0.30748  -0.30066
 Alpha  occ. eigenvalues --   -0.30003  -0.29960  -0.29946  -0.29870  -0.29862
 Alpha  occ. eigenvalues --   -0.29024  -0.29022  -0.27877  -0.27733  -0.27224
 Alpha  occ. eigenvalues --   -0.27197  -0.24866  -0.24810  -0.24376  -0.24361
 Alpha virt. eigenvalues --   -0.11041  -0.10832  -0.10432  -0.10397  -0.09412
 Alpha virt. eigenvalues --   -0.08876  -0.08675  -0.08552  -0.07942  -0.07888
 Alpha virt. eigenvalues --   -0.07411  -0.07156  -0.06508  -0.06447  -0.06261

 Mulliken charges:
               1
     1  Pd   0.492598
     2  Pd   0.492364
     3  C    0.017561
     4  C   -0.064741
     5  C   -0.010186
     6  C    0.005093
     7  C    0.015249
     8  C    0.007664
     9  C    0.030468
    10  C   -0.014934
    11  C    0.140951
    12  N   -0.317651
    13  C    0.182749
    14  C   -0.010396
    15  H    0.042596
    16  H    0.056307
    17  H    0.041944
    18  H    0.054131
    19  H    0.097130
    20  H    0.084705
    21  C   -0.070583
    22  C    0.011276
    23  C    0.018580
    24  C   -0.078319
    25  C    0.020947
    26  C    0.013718
    27  H    0.037461
    28  H    0.034545
    29  H    0.040226
    30  H    0.040540
    31  C    0.011862
    32  C   -0.002584
    33  C   -0.120580
    34  C    0.111245
    35  C   -0.033997
    36  C    0.154712
    37  N   -0.314370
    38  C    0.184019
    39  H    0.064581
    40  H    0.072148
    41  H    0.110083
    42  H    0.091049
    43  C    0.022229
    44  C   -0.068414
    45  C   -0.015721
    46  C    0.008462
    47  C    0.014593
    48  C    0.008210
    49  C    0.029081
    50  C   -0.013648
    51  C    0.140682
    52  N   -0.318044
    53  C    0.180114
    54  C   -0.007668
    55  H    0.042432
    56  H    0.056349
    57  H    0.042045
    58  H    0.054209
    59  H    0.097440
    60  H    0.087133
    61  C   -0.079086
    62  C    0.016149
    63  C    0.016474
    64  C   -0.080232
    65  C    0.019752
    66  C    0.016962
    67  H    0.036338
    68  H    0.035063
    69  H    0.039868
    70  H    0.039725
    71  C    0.015186
    72  C   -0.002386
    73  C   -0.123819
    74  C    0.112640
    75  C   -0.033952
    76  C    0.154734
    77  N   -0.312184
    78  C    0.181982
    79  H    0.064743
    80  H    0.072260
    81  H    0.111143
    82  H    0.091367
    83  C    0.017498
    84  C   -0.064764
    85  C   -0.010200
    86  C    0.005047
    87  C    0.015217
    88  C    0.007664
    89  C    0.030465
    90  C   -0.015044
    91  C    0.141694
    92  N   -0.317706
    93  C    0.183201
    94  C   -0.010433
    95  H    0.042533
    96  H    0.056294
    97  H    0.041905
    98  H    0.054059
    99  H    0.096716
   100  H    0.084754
   101  C   -0.070563
   102  C    0.011310
   103  C    0.018678
   104  C   -0.078154
   105  C    0.020871
   106  C    0.013837
   107  H    0.037313
   108  H    0.034524
   109  H    0.040239
   110  H    0.040479
   111  C    0.012284
   112  C   -0.003150
   113  C   -0.120473
   114  C    0.111228
   115  C   -0.034050
   116  C    0.154669
   117  N   -0.314531
   118  C    0.184313
   119  H    0.064552
   120  H    0.072077
   121  H    0.110467
   122  H    0.090832
   123  C    0.022003
   124  C   -0.068011
   125  C   -0.015886
   126  C    0.008559
   127  C    0.014542
   128  C    0.008216
   129  C    0.029090
   130  C   -0.013670
   131  C    0.140467
   132  N   -0.318002
   133  C    0.180347
   134  C   -0.007685
   135  H    0.042492
   136  H    0.056408
   137  H    0.042046
   138  H    0.054192
   139  H    0.097331
   140  H    0.087045
   141  C   -0.079191
   142  C    0.017120
   143  C    0.019710
   144  C   -0.079809
   145  C    0.016372
   146  C    0.016248
   147  H    0.039720
   148  H    0.039867
   149  H    0.034908
   150  H    0.036305
   151  C    0.014680
   152  C   -0.002148
   153  C   -0.123213
   154  C    0.112487
   155  C   -0.033870
   156  C    0.154507
   157  N   -0.312230
   158  C    0.181000
   159  H    0.064679
   160  H    0.072276
   161  H    0.111446
   162  H    0.091632
 Sum of Mulliken charges =   4.00000

 Dipole moment (field-independent basis, Debye):
    X=             -0.0228    Y=             -0.0042    Z=             -0.0741  Tot=              0.0777
 Quadrupole moment (field-independent basis, Debye-Ang):
   XX=            451.4427   YY=           -381.8784   ZZ=           -453.0527
   XY=            112.9981   XZ=              1.2895   YZ=            -11.8709

 Normal termination of Gaussian 16 at Fri Feb 26 12:07:58 2021.
