 Gaussian 16, Revision C.01,
 Gaussian 16:  ES64L-G16RevC.01  3-Jul-2019

 ----------------------------------------------------------------------
 #P PBE1PBE/Def2SVP SP SCF=(YQC,MaxCycle=900) int=(Grid=Superfinegrid)
 EmpiricalDispersion=GD3BJ SCRF=(PCM,Solvent=DiMethylSulfoxide)
 ----------------------------------------------------------------------

 --------
 _s_4c1_a
 --------
 Symbolic Z-matrix:
 Charge =  4 Multiplicity = 1

                         Standard orientation:
 ---------------------------------------------------------------------
 Center     Atomic      Atomic             Coordinates (Angstroms)
 Number     Number       Type             X           Y           Z
 ---------------------------------------------------------------------
      1         46           0        5.870515    0.001526   -0.001139
      2         46           0       -6.626249   -0.001138   -0.000030
      3          6           0        2.115731   -3.793999   -2.271475
      4          6           0        2.788442   -4.270801   -1.386079
      5          6           0        3.653152   -4.844514   -0.431979
      6          6           0        3.560824   -6.179300   -0.090661
      7          6           0        4.497089   -6.767808    0.767821
      8          6           0        5.548329   -6.046994    1.277627
      9          6           0        5.681525   -4.682969    0.960531
     10          6           0        6.752765   -3.879954    1.413838
     11          6           0        6.811254   -2.559706    1.069588
     12          7           0        5.841686   -1.967641    0.327899
     13          6           0        4.832645   -2.688253   -0.125100
     14          6           0        4.708717   -4.061956    0.125601
     15          1           0        2.770428   -6.779708   -0.513365
     16          1           0        4.399247   -7.815351    1.010484
     17          1           0        6.283699   -6.514816    1.913115
     18          1           0        7.524240   -4.320294    2.025182
     19          1           0        7.632495   -1.919439    1.377022
     20          1           0        4.071577   -2.177000   -0.712327
     21          6           0        1.413029   -3.265985   -3.377237
     22          6           0        2.122941   -3.115752   -4.583226
     23          6           0        1.506397   -2.650793   -5.723009
     24          6           0        0.159760   -2.320908   -5.644875
     25          7           0       -0.676496   -1.846117   -6.619730
     26          6           0       -1.925237   -1.670553   -6.095811
     27          6           0       -3.089032   -1.226143   -6.709769
     28          6           0       -4.232006   -1.149884   -5.945702
     29          6           0       -4.235167   -1.491483   -4.582314
     30          6           0       -3.064782   -1.925522   -3.965795
     31          6           0       -1.908079   -2.024154   -4.722516
     32          6           0       -0.563123   -2.448200   -4.432175
     33          6           0        0.065600   -2.928455   -3.292753
     34          1           0        3.166346   -3.390357   -4.611312
     35          1           0        2.051347   -2.557151   -6.649100
     36          1           0       -0.427152   -1.704999   -7.584780
     37          1           0       -3.101708   -0.953460   -7.753462
     38          1           0       -5.141564   -0.790878   -6.401402
     39          1           0       -3.060799   -2.225389   -2.930522
     40          1           0       -0.470469   -3.049742   -2.365434
     41          6           0       -5.488056   -1.384760   -3.828261
     42          6           0       -6.717139   -1.737838   -4.398226
     43          6           0       -7.882201   -1.598592   -3.665094
     44          6           0       -7.808626   -1.105374   -2.373244
     45          7           0       -6.638297   -0.773193   -1.824668
     46          6           0       -5.508655   -0.908276   -2.517874
     47          1           0       -6.751315   -2.133274   -5.401151
     48          1           0       -8.835825   -1.869636   -4.088020
     49          1           0       -8.695860   -0.973377   -1.757915
     50          1           0       -4.594065   -0.606132   -2.011504
     51          6           0        2.115142   -2.276502    3.789418
     52          6           0        2.786610   -1.390402    4.266741
     53          6           0        3.649362   -0.435372    4.841962
     54          6           0        3.554948   -0.095193    6.176849
     55          6           0        4.488966    0.764544    6.767047
     56          6           0        5.540117    1.276555    6.047808
     57          6           0        5.675552    0.960756    4.683759
     58          6           0        6.746939    1.416444    3.882214
     59          6           0        6.807584    1.073161    2.561763
     60          7           0        5.840082    0.330211    1.968055
     61          6           0        4.830819   -0.124915    2.687202
     62          6           0        4.704886    0.124463    4.060975
     63          1           0        2.764474   -0.519669    6.775926
     64          1           0        4.389385    1.006319    7.814578
     65          1           0        6.273890    1.913025    6.516850
     66          1           0        7.516841    2.028850    4.323960
     67          1           0        7.628973    1.382452    1.922769
     68          1           0        4.071287   -0.712997    2.174678
     69          6           0        1.412598   -3.382171    3.260941
     70          6           0        2.122263   -4.588189    3.109972
     71          6           0        1.505318   -5.727728    2.644857
     72          6           0        0.158558   -5.649291    2.315586
     73          7           0       -0.678116   -6.623793    1.840762
     74          6           0       -1.926814   -6.099478    1.665900
     75          6           0       -3.090904   -6.713029    1.221784
     76          6           0       -4.233772   -5.948525    1.146016
     77          6           0       -4.236461   -4.585168    1.487966
     78          6           0       -3.065747   -3.969241    1.921847
     79          6           0       -1.909238   -4.726335    2.019942
     80          6           0       -0.563990   -4.436452    2.443509
     81          6           0        0.065026   -3.297323    2.923900
     82          1           0        3.165804   -4.616569    3.384013
     83          1           0        2.050106   -6.653830    2.550725
     84          1           0       -0.429068   -7.588825    1.699096
     85          1           0       -3.104050   -7.756642    0.948818
     86          1           0       -5.143544   -6.403863    0.787114
     87          1           0       -3.061309   -2.934092    2.222104
     88          1           0       -0.470717   -2.369905    3.045789
     89          6           0       -5.488966   -3.830638    1.381684
     90          6           0       -6.718486   -4.400414    1.733856
     91          6           0       -7.883111   -3.666766    1.594869
     92          6           0       -7.808918   -2.374432    1.102822
     93          7           0       -6.638287   -1.826084    0.771650
     94          6           0       -5.508941   -2.519741    0.906359
     95          1           0       -6.753230   -5.403693    2.128424
     96          1           0       -8.837009   -4.089640    1.865202
     97          1           0       -8.695902   -1.758668    0.971125
     98          1           0       -4.594142   -2.013488    0.604967
     99          6           0        2.113332    3.792403    2.273801
    100          6           0        2.784895    4.269959    1.387915
    101          6           0        3.648354    4.845093    0.433528
    102          6           0        3.554483    6.179952    0.092994
    103          6           0        4.489256    6.769782   -0.766049
    104          6           0        5.540758    6.050290   -1.277177
    105          6           0        5.675660    4.686282   -0.960946
    106          6           0        6.747368    3.884527   -1.415666
    107          6           0        6.807413    2.564116   -1.072130
    108          7           0        5.839177    1.970682   -0.329767
    109          6           0        4.829784    2.690137    0.124375
    110          6           0        4.704252    4.063833   -0.125349
    111          1           0        2.763721    6.779218    0.516664
    112          1           0        4.390183    7.817326   -1.008056
    113          1           0        6.275152    6.519117   -1.913073
    114          1           0        7.517824    4.326058   -2.027417
    115          1           0        7.628996    1.924834   -1.380686
    116          1           0        4.069767    2.177769    0.712013
    117          6           0        1.410859    3.263545    3.379205
    118          6           0        2.120770    3.112231    4.585138
    119          6           0        1.504255    2.646546    5.724544
    120          6           0        0.157506    2.316981    5.646222
    121          7           0       -0.678684    1.841628    6.620806
    122          6           0       -1.927467    1.666655    6.096750
    123          6           0       -3.091449    1.222179    6.710550
    124          6           0       -4.234489    1.146649    5.946355
    125          6           0       -4.237486    1.488955    4.583153
    126          6           0       -3.067077    1.923182    3.966956
    127          6           0       -1.910407    2.021312    4.723761
    128          6           0       -0.565398    2.445274    4.433633
    129          6           0        0.063290    2.926379    3.294612
    130          1           0        3.164378    3.386529    4.613261
    131          1           0        2.049214    2.552114    6.650469
    132          1           0       -0.429359    1.699615    7.585692
    133          1           0       -3.104199    0.948901    7.754105
    134          1           0       -5.144060    0.787499    6.401862
    135          1           0       -3.063090    2.223891    2.931870
    136          1           0       -0.472708    3.048508    2.367467
    137          6           0       -5.490206    1.382256    3.828810
    138          6           0       -6.719674    1.734444    4.398505
    139          6           0       -7.884376    1.594896    3.665093
    140          6           0       -7.810205    1.102192    2.373059
    141          7           0       -6.639566    0.770867    1.824695
    142          6           0       -5.510214    0.906133    2.518252
    143          1           0       -6.754258    2.129497    5.401623
    144          1           0       -8.838276    1.865276    4.087918
    145          1           0       -8.697284    0.969950    1.757503
    146          1           0       -4.595377    0.604705    2.012040
    147          6           0        2.111914    2.279230   -3.789136
    148          6           0        2.782944    1.392959   -4.266659
    149          6           0        3.645527    0.438334   -4.842653
    150          6           0        3.550269    0.098280   -6.177475
    151          6           0        4.484044   -0.761212   -6.768459
    152          6           0        5.535780   -1.273315   -6.050094
    153          6           0        5.672011   -0.957647   -4.685988
    154          6           0        6.744002   -1.413274   -3.885292
    155          6           0        6.805564   -1.070118   -2.564887
    156          7           0        5.838405   -0.327225   -1.970464
    157          6           0        4.828606    0.127775   -2.688921
    158          6           0        4.701805   -0.121548   -4.062425
    159          1           0        2.759356    0.522663   -6.776017
    160          1           0        4.383925   -1.002680   -7.816056
    161          1           0        6.269216   -1.909603   -6.519776
    162          1           0        7.513685   -2.025603   -4.327565
    163          1           0        7.627520   -1.379318   -1.926548
    164          1           0        4.069394    0.715835   -2.175727
    165          6           0        1.409022    3.384425   -3.260188
    166          6           0        2.118193    4.590759   -3.108905
    167          6           0        1.500627    5.729983   -2.643602
    168          6           0        0.153941    5.650843   -2.314382
    169          7           0       -0.683247    6.624896   -1.839661
    170          6           0       -1.931713    6.100067   -1.665078
    171          6           0       -3.096361    6.713045   -1.221450
    172          6           0       -4.238826    5.948000   -1.146176
    173          6           0       -4.240753    4.584662   -1.488041
    174          6           0       -3.069585    3.969276   -1.921644
    175          6           0       -1.913487    4.726853   -2.019334
    176          6           0       -0.568103    4.437639   -2.442693
    177          6           0        0.061545    3.298937   -2.923260
    178          1           0        3.161725    4.619614   -3.382866
    179          1           0        2.044983    6.656281   -2.549313
    180          1           0       -0.434597    7.589987   -1.697706
    181          1           0       -3.110076    7.756616   -0.948533
    182          1           0       -5.148965    6.402956   -0.787607
    183          1           0       -3.064597    2.934156   -2.221980
    184          1           0       -0.473908    2.371321   -3.045371
    185          6           0       -5.492826    3.829325   -1.381836
    186          6           0       -6.722653    4.398013   -1.734198
    187          6           0       -7.886775    3.663431   -1.595179
    188          6           0       -7.811603    2.371188   -1.103233
    189          7           0       -6.640467    1.823736   -0.771808
    190          6           0       -5.511751    2.518411   -0.906375
    191          1           0       -6.758182    5.401277   -2.128731
    192          1           0       -8.841000    4.085533   -1.865584
    193          1           0       -8.698016    1.754703   -0.971576
    194          1           0       -4.596525    2.012903   -0.604794
 ---------------------------------------------------------------------

 SCF Done:  E(RPBE1PBE) =  -5212.29596551     a.u. after   27 cycles
 SCF Done:  E(RPBE1PBE) =  -5212.29605035     A.U. after   10 cycles

 The electronic state is 1-A.
 Alpha  occ. eigenvalues --  -14.48406 -14.48398 -14.48398 -14.48395 -14.48382
 Alpha  occ. eigenvalues --  -14.48381 -14.48378 -14.48378 -14.45407 -14.45407
 Alpha  occ. eigenvalues --  -14.45406 -14.45406 -10.32237 -10.32236 -10.32235
 Alpha  occ. eigenvalues --  -10.32233 -10.31486 -10.31485 -10.31484 -10.31482
 Alpha  occ. eigenvalues --  -10.31320 -10.31320 -10.31319 -10.31316 -10.30886
 Alpha  occ. eigenvalues --  -10.30885 -10.30885 -10.30882 -10.29586 -10.29586
 Alpha  occ. eigenvalues --  -10.29585 -10.29585 -10.29427 -10.29427 -10.29427
 Alpha  occ. eigenvalues --  -10.29426 -10.29328 -10.29327 -10.29326 -10.29326
 Alpha  occ. eigenvalues --  -10.29058 -10.29058 -10.29058 -10.29057 -10.28888
 Alpha  occ. eigenvalues --  -10.28887 -10.28886 -10.28886 -10.28815 -10.28814
 Alpha  occ. eigenvalues --  -10.28814 -10.28813 -10.28365 -10.28364 -10.28363
 Alpha  occ. eigenvalues --  -10.28363 -10.27767 -10.27767 -10.27765 -10.27765
 Alpha  occ. eigenvalues --  -10.27690 -10.27690 -10.27690 -10.27689 -10.27210
 Alpha  occ. eigenvalues --  -10.27210 -10.27210 -10.27209 -10.27130 -10.27129
 Alpha  occ. eigenvalues --  -10.27129 -10.27129 -10.27071 -10.27071 -10.27071
 Alpha  occ. eigenvalues --  -10.27070 -10.26810 -10.26809 -10.26809 -10.26809
 Alpha  occ. eigenvalues --  -10.26417 -10.26416 -10.26416 -10.26416 -10.26192
 Alpha  occ. eigenvalues --  -10.26192 -10.26192 -10.26192 -10.26069 -10.26069
 Alpha  occ. eigenvalues --  -10.26069 -10.26068 -10.26030 -10.26030 -10.26030
 Alpha  occ. eigenvalues --  -10.26029 -10.25783 -10.25782 -10.25781 -10.25781
 Alpha  occ. eigenvalues --  -10.25771 -10.25771 -10.25770 -10.25770 -10.25711
 Alpha  occ. eigenvalues --  -10.25710 -10.25710 -10.25710 -10.25626 -10.25626
 Alpha  occ. eigenvalues --  -10.25625 -10.25624 -10.25424 -10.25424 -10.25423
 Alpha  occ. eigenvalues --  -10.25423 -10.25400 -10.25399 -10.25399 -10.25398
 Alpha  occ. eigenvalues --  -10.25394 -10.25394 -10.25393 -10.25392  -3.57167
 Alpha  occ. eigenvalues --   -3.57153  -2.25068  -2.25067  -2.25044  -2.25042
 Alpha  occ. eigenvalues --   -2.20911  -2.20800  -1.03877  -1.03790  -1.03170
 Alpha  occ. eigenvalues --   -1.03169  -1.03164  -1.03160  -1.03112  -1.03111
 Alpha  occ. eigenvalues --   -1.03053  -1.03011  -1.03009  -1.02847  -0.92668
 Alpha  occ. eigenvalues --   -0.92554  -0.92554  -0.92548  -0.90643  -0.90588
 Alpha  occ. eigenvalues --   -0.90583  -0.90583  -0.90021  -0.90020  -0.90016
 Alpha  occ. eigenvalues --   -0.90016  -0.86759  -0.86555  -0.86510  -0.86510
 Alpha  occ. eigenvalues --   -0.85895  -0.85850  -0.85840  -0.85840  -0.83653
 Alpha  occ. eigenvalues --   -0.83550  -0.83550  -0.83446  -0.83213  -0.83081
 Alpha  occ. eigenvalues --   -0.83071  -0.83070  -0.82715  -0.82670  -0.82666
 Alpha  occ. eigenvalues --   -0.82666  -0.81396  -0.81385  -0.81384  -0.81381
 Alpha  occ. eigenvalues --   -0.80166  -0.80134  -0.80133  -0.80102  -0.77967
 Alpha  occ. eigenvalues --   -0.77926  -0.77926  -0.77874  -0.76411  -0.76382
 Alpha  occ. eigenvalues --   -0.76382  -0.76353  -0.75337  -0.75325  -0.75318
 Alpha  occ. eigenvalues --   -0.75318  -0.71224  -0.71136  -0.71051  -0.71050
 Alpha  occ. eigenvalues --   -0.70943  -0.70838  -0.70838  -0.70653  -0.69556
 Alpha  occ. eigenvalues --   -0.69433  -0.69433  -0.69430  -0.69072  -0.68922
 Alpha  occ. eigenvalues --   -0.68754  -0.68754  -0.68540  -0.68430  -0.68348
 Alpha  occ. eigenvalues --   -0.68347  -0.66945  -0.66907  -0.66907  -0.66833
 Alpha  occ. eigenvalues --   -0.64908  -0.64830  -0.64830  -0.64804  -0.63950
 Alpha  occ. eigenvalues --   -0.63829  -0.63737  -0.63737  -0.61795  -0.61744
 Alpha  occ. eigenvalues --   -0.61676  -0.61676  -0.60535  -0.59975  -0.59944
 Alpha  occ. eigenvalues --   -0.59816  -0.59816  -0.59179  -0.58808  -0.58807
 Alpha  occ. eigenvalues --   -0.58047  -0.57862  -0.57857  -0.57856  -0.57836
 Alpha  occ. eigenvalues --   -0.57804  -0.57803  -0.57783  -0.57291  -0.57184
 Alpha  occ. eigenvalues --   -0.56210  -0.56210  -0.56201  -0.56042  -0.55897
 Alpha  occ. eigenvalues --   -0.55897  -0.55648  -0.55602  -0.55601  -0.55566
 Alpha  occ. eigenvalues --   -0.54940  -0.54940  -0.54899  -0.54766  -0.52812
 Alpha  occ. eigenvalues --   -0.52595  -0.52594  -0.52561  -0.51789  -0.51588
 Alpha  occ. eigenvalues --   -0.51419  -0.51404  -0.51403  -0.51167  -0.50862
 Alpha  occ. eigenvalues --   -0.50690  -0.50483  -0.50382  -0.50382  -0.50368
 Alpha  occ. eigenvalues --   -0.50293  -0.50293  -0.50239  -0.50180  -0.49881
 Alpha  occ. eigenvalues --   -0.49608  -0.49541  -0.49540  -0.49171  -0.48953
 Alpha  occ. eigenvalues --   -0.48953  -0.48608  -0.48434  -0.48431  -0.48314
 Alpha  occ. eigenvalues --   -0.48207  -0.48206  -0.47987  -0.47874  -0.47872
 Alpha  occ. eigenvalues --   -0.47870  -0.47793  -0.47701  -0.47701  -0.47464
 Alpha  occ. eigenvalues --   -0.47391  -0.47362  -0.47361  -0.47231  -0.47141
 Alpha  occ. eigenvalues --   -0.47028  -0.46992  -0.46992  -0.46799  -0.46799
 Alpha  occ. eigenvalues --   -0.46792  -0.46770  -0.46022  -0.46022  -0.45860
 Alpha  occ. eigenvalues --   -0.45709  -0.45507  -0.45443  -0.45299  -0.45208
 Alpha  occ. eigenvalues --   -0.45208  -0.44357  -0.44357  -0.44173  -0.43961
 Alpha  occ. eigenvalues --   -0.43961  -0.43915  -0.43751  -0.43681  -0.43513
 Alpha  occ. eigenvalues --   -0.42697  -0.42696  -0.42120  -0.42068  -0.42067
 Alpha  occ. eigenvalues --   -0.41971  -0.41796  -0.41675  -0.41674  -0.41251
 Alpha  occ. eigenvalues --   -0.41169  -0.40973  -0.40892  -0.40891  -0.40749
 Alpha  occ. eigenvalues --   -0.40378  -0.40374  -0.40373  -0.40334  -0.40086
 Alpha  occ. eigenvalues --   -0.39757  -0.39643  -0.39443  -0.39442  -0.39286
 Alpha  occ. eigenvalues --   -0.39247  -0.38976  -0.38975  -0.38659  -0.38219
 Alpha  occ. eigenvalues --   -0.38218  -0.38127  -0.37957  -0.37800  -0.37717
 Alpha  occ. eigenvalues --   -0.37716  -0.37504  -0.37431  -0.36985  -0.36765
 Alpha  occ. eigenvalues --   -0.36764  -0.36596  -0.36467  -0.36466  -0.36160
 Alpha  occ. eigenvalues --   -0.36159  -0.35462  -0.34585  -0.34583  -0.34208
 Alpha  occ. eigenvalues --   -0.33949  -0.33948  -0.33737  -0.33736  -0.33605
 Alpha  occ. eigenvalues --   -0.33538  -0.33465  -0.33464  -0.32926  -0.32475
 Alpha  occ. eigenvalues --   -0.32474  -0.32394  -0.31786  -0.31602  -0.31550
 Alpha  occ. eigenvalues --   -0.31548  -0.31355  -0.31340  -0.31132  -0.31131
 Alpha  occ. eigenvalues --   -0.31060  -0.30740  -0.30739  -0.30718  -0.30528
 Alpha  occ. eigenvalues --   -0.28835  -0.28712  -0.28013  -0.27978  -0.27978
 Alpha  occ. eigenvalues --   -0.27923  -0.26199  -0.26165  -0.26164  -0.26113
 Alpha  occ. eigenvalues --   -0.24874  -0.24854  -0.24852  -0.24822  -0.23368
 Alpha  occ. eigenvalues --   -0.23256  -0.23255  -0.23155
 Alpha virt. eigenvalues --   -0.09943  -0.09942  -0.09928  -0.09742  -0.07541
 Alpha virt. eigenvalues --   -0.07539  -0.07432  -0.06748  -0.06626  -0.06549
 Alpha virt. eigenvalues --   -0.06355  -0.06177  -0.06176  -0.05985  -0.05883

 Mulliken charges:
               1
     1  Pd   0.464828
     2  Pd   0.478218
     3  C    0.012166
     4  C   -0.084530
     5  C   -0.006562
     6  C    0.010560
     7  C    0.010212
     8  C    0.004366
     9  C    0.035722
    10  C   -0.018638
    11  C    0.143224
    12  N   -0.334739
    13  C    0.171086
    14  C   -0.016112
    15  H    0.038224
    16  H    0.056537
    17  H    0.039737
    18  H    0.053109
    19  H    0.105292
    20  H    0.095004
    21  C   -0.088978
    22  C   -0.003100
    23  C   -0.033606
    24  C    0.112642
    25  N   -0.120454
    26  C    0.118245
    27  C   -0.050123
    28  C   -0.035106
    29  C    0.022471
    30  C   -0.060259
    31  C    0.007870
    32  C    0.022347
    33  C   -0.033504
    34  H    0.030528
    35  H    0.021207
    36  H    0.165642
    37  H    0.023210
    38  H    0.033710
    39  H    0.020095
    40  H    0.018000
    41  C   -0.038640
    42  C    0.059559
    43  C   -0.032000
    44  C    0.140828
    45  N   -0.309780
    46  C    0.147278
    47  H    0.058866
    48  H    0.064457
    49  H    0.103083
    50  H    0.085091
    51  C    0.012331
    52  C   -0.084786
    53  C   -0.006551
    54  C    0.010529
    55  C    0.010263
    56  C    0.004333
    57  C    0.035718
    58  C   -0.018678
    59  C    0.143286
    60  N   -0.334772
    61  C    0.171111
    62  C   -0.016064
    63  H    0.038213
    64  H    0.056530
    65  H    0.039736
    66  H    0.053142
    67  H    0.105198
    68  H    0.095029
    69  C   -0.089060
    70  C   -0.002957
    71  C   -0.033461
    72  C    0.112665
    73  N   -0.120463
    74  C    0.118296
    75  C   -0.050154
    76  C   -0.035161
    77  C    0.022584
    78  C   -0.060354
    79  C    0.007912
    80  C    0.022366
    81  C   -0.033549
    82  H    0.030480
    83  H    0.021130
    84  H    0.165639
    85  H    0.023221
    86  H    0.033714
    87  H    0.020101
    88  H    0.018013
    89  C   -0.038628
    90  C    0.059524
    91  C   -0.032023
    92  C    0.140785
    93  N   -0.309691
    94  C    0.147286
    95  H    0.058879
    96  H    0.064469
    97  H    0.103123
    98  H    0.085005
    99  C    0.012335
   100  C   -0.084706
   101  C   -0.006545
   102  C    0.010630
   103  C    0.010228
   104  C    0.004304
   105  C    0.035645
   106  C   -0.018574
   107  C    0.143226
   108  N   -0.334765
   109  C    0.171020
   110  C   -0.016085
   111  H    0.038212
   112  H    0.056534
   113  H    0.039737
   114  H    0.053107
   115  H    0.105302
   116  H    0.095006
   117  C   -0.089103
   118  C   -0.003085
   119  C   -0.033409
   120  C    0.112521
   121  N   -0.120381
   122  C    0.118141
   123  C   -0.050087
   124  C   -0.035102
   125  C    0.022559
   126  C   -0.060376
   127  C    0.007912
   128  C    0.022413
   129  C   -0.033485
   130  H    0.030575
   131  H    0.021133
   132  H    0.165634
   133  H    0.023234
   134  H    0.033703
   135  H    0.020149
   136  H    0.017944
   137  C   -0.038651
   138  C    0.059546
   139  C   -0.032025
   140  C    0.140802
   141  N   -0.309731
   142  C    0.147285
   143  H    0.058875
   144  H    0.064473
   145  H    0.103089
   146  H    0.085063
   147  C    0.012616
   148  C   -0.085051
   149  C   -0.006494
   150  C    0.010563
   151  C    0.010176
   152  C    0.004395
   153  C    0.035724
   154  C   -0.018745
   155  C    0.143302
   156  N   -0.334804
   157  C    0.170966
   158  C   -0.015946
   159  H    0.038179
   160  H    0.056546
   161  H    0.039711
   162  H    0.053142
   163  H    0.105198
   164  H    0.095065
   165  C   -0.089009
   166  C   -0.002985
   167  C   -0.033478
   168  C    0.112679
   169  N   -0.120365
   170  C    0.118253
   171  C   -0.050113
   172  C   -0.035150
   173  C    0.022578
   174  C   -0.060414
   175  C    0.007928
   176  C    0.022366
   177  C   -0.033623
   178  H    0.030489
   179  H    0.021122
   180  H    0.165644
   181  H    0.023191
   182  H    0.033722
   183  H    0.020103
   184  H    0.018042
   185  C   -0.038583
   186  C    0.059517
   187  C   -0.032041
   188  C    0.140827
   189  N   -0.309751
   190  C    0.147263
   191  H    0.058866
   192  H    0.064479
   193  H    0.103054
   194  H    0.085078
 Sum of Mulliken charges =   4.00000

 Dipole moment (field-independent basis, Debye):
    X=             -8.1466    Y=             -0.0014    Z=             -0.0037  Tot=              8.1466
 Quadrupole moment (field-independent basis, Debye-Ang):
   XX=             48.2356   YY=           -430.5812   ZZ=           -430.7698
   XY=              0.0487   XZ=             -0.0046   YZ=              0.0417

 Normal termination of Gaussian 16 at Fri Feb 26 15:52:23 2021.
