 Gaussian 16, Revision C.01,
 Gaussian 16:  ES64L-G16RevC.01  3-Jul-2019

 ----------------------------------------------------------------------
 #P PBE1PBE/Def2SVP SP SCF=(YQC,MaxCycle=900) int=(Grid=Superfinegrid)
 EmpiricalDispersion=GD3BJ SCRF=(PCM,Solvent=DiMethylSulfoxide)
 ----------------------------------------------------------------------

 --------
 _s_5a1_b
 --------
 Symbolic Z-matrix:
 Charge =  4 Multiplicity = 1

                         Standard orientation:
 ---------------------------------------------------------------------
 Center     Atomic      Atomic             Coordinates (Angstroms)
 Number     Number       Type             X           Y           Z
 ---------------------------------------------------------------------
      1         46           0       -5.631488    0.199339    0.131071
      2         46           0        5.765409    0.549838   -0.247780
      3          6           0        1.043358    6.860926   -0.255542
      4          6           0        2.223694    6.612392   -0.170175
      5          6           0        3.605533    6.351243   -0.098254
      6          6           0        4.512084    7.395920   -0.043045
      7          6           0        5.890045    7.157000    0.008022
      8          6           0        6.382770    5.877886   -0.003878
      9          6           0        5.491040    4.785520   -0.062547
     10          6           0        5.938941    3.452434   -0.092628
     11          7           0        5.118748    2.424664   -0.147248
     12          6           0        3.776944    2.626607   -0.170819
     13          6           0        3.239086    3.883610   -0.153541
     14          6           0        4.085412    5.010858   -0.103020
     15          1           0        4.146988    8.411831   -0.039339
     16          1           0        6.564756    7.997930    0.053122
     17          1           0        7.445293    5.697246    0.029612
     18          1           0        7.005872    3.245028   -0.069962
     19          1           0        3.166064    1.725560   -0.207493
     20          1           0        2.171676    4.034071   -0.182263
     21          6           0       -0.338610    7.097904   -0.401803
     22          6           0       -0.789026    8.328708   -0.939452
     23          6           0       -2.120600    8.540528   -1.150210
     24          6           0       -3.072309    7.543161   -0.842911
     25          6           0       -4.450230    7.705004   -1.096302
     26          6           0       -5.340599    6.706618   -0.819511
     27          6           0       -4.905561    5.487436   -0.250237
     28          6           0       -3.567663    5.319876    0.031149
     29          6           0       -2.625989    6.321539   -0.271285
     30          6           0       -1.249770    6.122668   -0.056397
     31          1           0       -0.064398    9.089584   -1.188376
     32          1           0       -2.464344    9.475640   -1.568385
     33          1           0       -4.792078    8.633095   -1.530685
     34          1           0       -6.383319    6.841040   -1.061691
     35          1           0       -3.211591    4.423309    0.513864
     36          1           0       -0.910056    5.192711    0.372585
     37          6           0       -5.865968    4.407889    0.011416
     38          6           0       -7.192792    4.650439    0.381756
     39          6           0       -8.052733    3.584525    0.589352
     40          6           0       -7.575900    2.291679    0.447314
     41          7           0       -6.305609    2.057348    0.110753
     42          6           0       -5.476740    3.074098   -0.113244
     43          1           0       -7.541974    5.661619    0.519600
     44          1           0       -9.080170    3.755254    0.867388
     45          1           0       -8.212177    1.422432    0.601089
     46          1           0       -4.467923    2.814259   -0.425402
     47          6           0       -1.478106   -0.363107    6.494729
     48          6           0       -2.675357   -0.367778    6.321657
     49          6           0       -4.048083   -0.448699    6.018921
     50          6           0       -4.972388   -0.874938    6.956560
     51          6           0       -6.319938   -1.039097    6.615196
     52          6           0       -6.759746   -0.810255    5.336222
     53          6           0       -5.850576   -0.366003    4.352964
     54          6           0       -6.225548   -0.153942    3.011197
     55          7           0       -5.381918    0.277913    2.100311
     56          6           0       -4.098781    0.567342    2.442940
     57          6           0       -3.624608    0.356557    3.704768
     58          6           0       -4.487247   -0.148019    4.698893
     59          1           0       -4.646689   -1.092644    7.962454
     60          1           0       -7.013290   -1.368681    7.373843
     61          1           0       -7.794042   -0.966023    5.073888
     62          1           0       -7.242822   -0.355891    2.690310
     63          1           0       -3.473214    0.979904    1.649984
     64          1           0       -2.598823    0.567268    3.960809
     65          6           0       -0.085177   -0.441535    6.696535
     66          6           0        0.406534   -0.977936    7.912005
     67          6           0        1.747779   -1.141656    8.095808
     68          6           0        2.667554   -0.781636    7.086563
     69          6           0        4.055200   -0.980810    7.233286
     70          6           0        4.923710   -0.625648    6.242430
     71          6           0        4.455413   -0.035895    5.044105
     72          6           0        3.102911    0.160809    4.875330
     73          6           0        2.183008   -0.211432    5.877947
     74          6           0        0.794415   -0.051755    5.707077
     75          1           0       -0.295238   -1.262040    8.681880
     76          1           0        2.125732   -1.558723    9.018081
     77          1           0        4.421922   -1.427686    8.145643
     78          1           0        5.977794   -0.819898    6.365533
     79          1           0        2.721533    0.636345    3.984938
     80          1           0        0.421162    0.369034    4.786323
     81          6           0        5.433355    0.353119    4.018470
     82          6           0        6.694539    0.838055    4.380778
     83          6           0        7.623256    1.145599    3.401204
     84          6           0        7.273300    0.982783    2.073295
     85          7           0        6.055917    0.556138    1.720413
     86          6           0        5.159512    0.243521    2.653866
     87          1           0        6.939959    0.983822    5.420941
     88          1           0        8.603121    1.508568    3.665986
     89          1           0        7.978677    1.193139    1.268349
     90          1           0        4.201553   -0.120580    2.295811
     91          6           0       -1.111807   -6.170804    0.378564
     92          6           0       -2.303859   -5.971739    0.330426
     93          6           0       -3.681167   -5.678847    0.298529
     94          6           0       -4.633224   -6.682056    0.326913
     95          6           0       -6.000160   -6.379029    0.315350
     96          6           0       -6.436815   -5.079762    0.282183
     97          6           0       -5.497766   -4.026119    0.253561
     98          6           0       -5.879446   -2.671810    0.224713
     99          7           0       -5.003696   -1.688186    0.192372
    100          6           0       -3.675829   -1.959327    0.188726
    101          6           0       -3.201358   -3.238943    0.223301
    102          6           0       -4.104205   -4.319734    0.256301
    103          1           0       -4.316324   -7.713594    0.358587
    104          1           0       -6.713497   -7.188647    0.336144
    105          1           0       -7.491193   -4.853619    0.278190
    106          1           0       -6.932574   -2.396400    0.228718
    107          1           0       -3.013407   -1.099637    0.159452
    108          1           0       -2.142417   -3.440579    0.227831
    109          6           0        0.278426   -6.379290    0.489511
    110          6           0        0.762389   -7.593759    1.034360
    111          6           0        2.102249   -7.780652    1.211091
    112          6           0        3.028481   -6.775101    0.857373
    113          6           0        4.415046   -6.920928    1.067444
    114          6           0        5.286536   -5.926329    0.728192
    115          6           0        4.822758   -4.724609    0.142689
    116          6           0        3.472672   -4.563325   -0.077014
    117          6           0        2.550189   -5.567386    0.280844
    118          6           0        1.164127   -5.393456    0.105837
    119          1           0        0.056631   -8.361374    1.314875
    120          1           0        2.473227   -8.703058    1.634127
    121          1           0        4.778897   -7.835159    1.513088
    122          1           0        6.338518   -6.049327    0.933218
    123          1           0        3.092061   -3.674842   -0.556230
    124          1           0        0.796774   -4.476090   -0.327719
    125          6           0        5.789833   -3.673688   -0.203901
    126          6           0        7.081551   -3.983705   -0.645189
    127          6           0        7.981183   -2.966331   -0.912726
    128          6           0        7.578243   -1.651789   -0.751477
    129          7           0        6.339369   -1.350549   -0.359232
    130          6           0        5.466693   -2.321824   -0.087194
    131          1           0        7.372117   -5.012372   -0.789080
    132          1           0        8.982087   -3.189808   -1.244818
    133          1           0        8.251650   -0.820285   -0.940917
    134          1           0        4.483905   -2.000555    0.253636
    135          6           0       -2.097061   -1.420555   -6.327216
    136          6           0       -3.284319   -1.385579   -6.097773
    137          6           0       -4.631635   -1.365554   -5.689308
    138          6           0       -5.646533   -1.889148   -6.469885
    139          6           0       -6.966478   -1.921404   -6.004018
    140          6           0       -7.289502   -1.460821   -4.752735
    141          6           0       -6.284223   -0.914552   -3.927084
    142          6           0       -6.534796   -0.469984   -2.612465
    143          7           0       -5.597045    0.044865   -1.848807
    144          6           0       -4.335409    0.200171   -2.331874
    145          6           0       -3.981499   -0.229707   -3.576885
    146          6           0       -4.947102   -0.834101   -4.406799
    147          1           0       -5.416297   -2.284228   -7.447706
    148          1           0       -7.733934   -2.332265   -6.642151
    149          1           0       -8.304767   -1.512236   -4.392819
    150          1           0       -7.530758   -0.551670   -2.188730
    151          1           0       -3.619845    0.688740   -1.667701
    152          1           0       -2.972939   -0.121525   -3.941621
    153          6           0       -0.712124   -1.500976   -6.577995
    154          6           0       -0.245550   -2.193071   -7.721860
    155          6           0        1.093773   -2.314009   -7.949849
    156          6           0        2.035947   -1.751399   -7.060942
    157          6           0        3.425162   -1.868429   -7.270970
    158          6           0        4.314760   -1.292852   -6.410875
    159          6           0        3.864622   -0.570473   -5.280666
    160          6           0        2.514309   -0.463623   -5.039786
    161          6           0        1.573955   -1.042174   -5.918776
    162          6           0        0.187969   -0.934309   -5.697928
    163          1           0       -0.963270   -2.623831   -8.403907
    164          1           0        1.453365   -2.844640   -8.819657
    165          1           0        3.775634   -2.419727   -8.131037
    166          1           0        5.374148   -1.407528   -6.581212
    167          1           0        2.149377    0.104552   -4.198041
    168          1           0       -0.167163   -0.399782   -4.830458
    169          6           0        4.864176    0.072440   -4.414855
    170          6           0        5.978625    0.701647   -4.978244
    171          6           0        6.933025    1.275990   -4.156296
    172          6           0        6.760202    1.209941   -2.786007
    173          7           0        5.687678    0.623088   -2.242125
    174          6           0        4.759855    0.071970   -3.023598
    175          1           0        6.085189    0.750355   -6.050584
    176          1           0        7.798421    1.764929   -4.573474
    177          1           0        7.493116    1.638222   -2.101399
    178          1           0        3.923409   -0.398906   -2.517522
 ---------------------------------------------------------------------

 SCF Done:  E(RPBE1PBE) =  -4686.82079668     a.u. after   18 cycles
 SCF Done:  E(RPBE1PBE) =  -4686.82080976     A.U. after    9 cycles

 The electronic state is 1-A.
 Alpha  occ. eigenvalues --  -14.48774 -14.48725 -14.48710 -14.48671 -14.48626
 Alpha  occ. eigenvalues --  -14.48569 -14.48488 -14.48438 -10.32582 -10.32554
 Alpha  occ. eigenvalues --  -10.32521 -10.32487 -10.31982 -10.31972 -10.31939
 Alpha  occ. eigenvalues --  -10.31832 -10.31746 -10.31707 -10.31649 -10.31587
 Alpha  occ. eigenvalues --  -10.31215 -10.31203 -10.31186 -10.31179 -10.29520
 Alpha  occ. eigenvalues --  -10.29486 -10.29437 -10.29412 -10.29370 -10.29365
 Alpha  occ. eigenvalues --  -10.29345 -10.29334 -10.29287 -10.29266 -10.29252
 Alpha  occ. eigenvalues --  -10.29195 -10.28922 -10.28916 -10.28899 -10.28892
 Alpha  occ. eigenvalues --  -10.28781 -10.28779 -10.28764 -10.28758 -10.28161
 Alpha  occ. eigenvalues --  -10.28158 -10.28156 -10.28121 -10.27977 -10.27966
 Alpha  occ. eigenvalues --  -10.27956 -10.27954 -10.27928 -10.27898 -10.27871
 Alpha  occ. eigenvalues --  -10.27833 -10.27584 -10.27570 -10.27554 -10.27553
 Alpha  occ. eigenvalues --  -10.27495 -10.27489 -10.27451 -10.27449 -10.27396
 Alpha  occ. eigenvalues --  -10.27395 -10.27365 -10.27358 -10.26834 -10.26824
 Alpha  occ. eigenvalues --  -10.26814 -10.26813 -10.26799 -10.26793 -10.26774
 Alpha  occ. eigenvalues --  -10.26710 -10.26639 -10.26633 -10.26631 -10.26631
 Alpha  occ. eigenvalues --  -10.26397 -10.26397 -10.26385 -10.26340 -10.26337
 Alpha  occ. eigenvalues --  -10.26316 -10.26313 -10.26251 -10.26241 -10.26241
 Alpha  occ. eigenvalues --  -10.26235 -10.26198 -10.25987 -10.25985 -10.25971
 Alpha  occ. eigenvalues --  -10.25969 -10.25948 -10.25931 -10.25904 -10.25901
 Alpha  occ. eigenvalues --  -10.25901 -10.25898 -10.25892 -10.25862 -10.25694
 Alpha  occ. eigenvalues --  -10.25684 -10.25670 -10.25665 -10.25665 -10.25662
 Alpha  occ. eigenvalues --  -10.25655 -10.25647  -3.57436  -3.57397  -2.25395
 Alpha  occ. eigenvalues --   -2.25326  -2.25277  -2.25259  -2.21182  -2.21123
 Alpha  occ. eigenvalues --   -1.04112  -1.04073  -1.03432  -1.03431  -1.03354
 Alpha  occ. eigenvalues --   -1.03284  -1.03237  -1.03142  -0.92982  -0.92959
 Alpha  occ. eigenvalues --   -0.92952  -0.92947  -0.92827  -0.92779  -0.92753
 Alpha  occ. eigenvalues --   -0.92744  -0.89570  -0.89496  -0.89491  -0.89487
 Alpha  occ. eigenvalues --   -0.86636  -0.86525  -0.86509  -0.86501  -0.85551
 Alpha  occ. eigenvalues --   -0.85474  -0.85465  -0.85437  -0.84193  -0.84121
 Alpha  occ. eigenvalues --   -0.84063  -0.84041  -0.83742  -0.83666  -0.83592
 Alpha  occ. eigenvalues --   -0.83567  -0.81845  -0.81788  -0.81768  -0.81712
 Alpha  occ. eigenvalues --   -0.81413  -0.81343  -0.81334  -0.81269  -0.79958
 Alpha  occ. eigenvalues --   -0.79901  -0.79881  -0.79819  -0.77124  -0.77083
 Alpha  occ. eigenvalues --   -0.77059  -0.77024  -0.75520  -0.75504  -0.75491
 Alpha  occ. eigenvalues --   -0.75480  -0.71634  -0.71414  -0.71369  -0.71238
 Alpha  occ. eigenvalues --   -0.71013  -0.70927  -0.70835  -0.70716  -0.69572
 Alpha  occ. eigenvalues --   -0.69463  -0.69402  -0.69274  -0.69180  -0.69059
 Alpha  occ. eigenvalues --   -0.68960  -0.68923  -0.68248  -0.68180  -0.68170
 Alpha  occ. eigenvalues --   -0.68144  -0.66084  -0.66069  -0.66012  -0.65973
 Alpha  occ. eigenvalues --   -0.65009  -0.64908  -0.64858  -0.64816  -0.63816
 Alpha  occ. eigenvalues --   -0.63811  -0.63806  -0.63797  -0.60862  -0.60510
 Alpha  occ. eigenvalues --   -0.60292  -0.60110  -0.60037  -0.59636  -0.59477
 Alpha  occ. eigenvalues --   -0.59167  -0.58566  -0.58198  -0.58096  -0.58033
 Alpha  occ. eigenvalues --   -0.57389  -0.57332  -0.57312  -0.57284  -0.56950
 Alpha  occ. eigenvalues --   -0.56535  -0.56517  -0.56175  -0.55800  -0.55785
 Alpha  occ. eigenvalues --   -0.55723  -0.55691  -0.55287  -0.55239  -0.55201
 Alpha  occ. eigenvalues --   -0.55156  -0.53917  -0.53793  -0.53760  -0.53714
 Alpha  occ. eigenvalues --   -0.52608  -0.52492  -0.52339  -0.51840  -0.51764
 Alpha  occ. eigenvalues --   -0.51682  -0.51633  -0.51532  -0.51515  -0.51288
 Alpha  occ. eigenvalues --   -0.51025  -0.50422  -0.50384  -0.50248  -0.49997
 Alpha  occ. eigenvalues --   -0.49734  -0.49719  -0.49599  -0.49231  -0.49202
 Alpha  occ. eigenvalues --   -0.49163  -0.49046  -0.48938  -0.48893  -0.48868
 Alpha  occ. eigenvalues --   -0.48832  -0.48693  -0.48653  -0.48573  -0.48513
 Alpha  occ. eigenvalues --   -0.48103  -0.48097  -0.48094  -0.48047  -0.47874
 Alpha  occ. eigenvalues --   -0.47767  -0.47576  -0.47312  -0.47197  -0.47115
 Alpha  occ. eigenvalues --   -0.46895  -0.46847  -0.46719  -0.46433  -0.45768
 Alpha  occ. eigenvalues --   -0.45499  -0.45487  -0.45465  -0.45413  -0.45348
 Alpha  occ. eigenvalues --   -0.45344  -0.45295  -0.45283  -0.44841  -0.44810
 Alpha  occ. eigenvalues --   -0.44636  -0.44411  -0.44251  -0.44236  -0.44169
 Alpha  occ. eigenvalues --   -0.43774  -0.43772  -0.43578  -0.43487  -0.43182
 Alpha  occ. eigenvalues --   -0.42948  -0.42812  -0.42761  -0.42624  -0.42364
 Alpha  occ. eigenvalues --   -0.42094  -0.41939  -0.41597  -0.41493  -0.41381
 Alpha  occ. eigenvalues --   -0.41295  -0.40755  -0.40485  -0.40387  -0.40183
 Alpha  occ. eigenvalues --   -0.40145  -0.39656  -0.39627  -0.39602  -0.39579
 Alpha  occ. eigenvalues --   -0.39516  -0.39381  -0.39346  -0.38610  -0.38284
 Alpha  occ. eigenvalues --   -0.38281  -0.38270  -0.38250  -0.37708  -0.37340
 Alpha  occ. eigenvalues --   -0.37294  -0.37110  -0.36887  -0.36736  -0.36532
 Alpha  occ. eigenvalues --   -0.36474  -0.36369  -0.36260  -0.36125  -0.36053
 Alpha  occ. eigenvalues --   -0.35880  -0.35185  -0.34979  -0.34778  -0.34264
 Alpha  occ. eigenvalues --   -0.34167  -0.34125  -0.33956  -0.33818  -0.33677
 Alpha  occ. eigenvalues --   -0.33409  -0.33306  -0.32949  -0.32661  -0.32519
 Alpha  occ. eigenvalues --   -0.32084  -0.31989  -0.31841  -0.31773  -0.31716
 Alpha  occ. eigenvalues --   -0.31605  -0.31243  -0.31221  -0.31165  -0.31120
 Alpha  occ. eigenvalues --   -0.30990  -0.30879  -0.30817  -0.30590  -0.29002
 Alpha  occ. eigenvalues --   -0.28950  -0.28702  -0.28629  -0.28386  -0.28265
 Alpha  occ. eigenvalues --   -0.26035  -0.25971  -0.25920  -0.25842  -0.24233
 Alpha  occ. eigenvalues --   -0.24196  -0.24135  -0.24094
 Alpha virt. eigenvalues --   -0.10357  -0.10243  -0.10082  -0.09693  -0.08314
 Alpha virt. eigenvalues --   -0.08274  -0.08110  -0.07970  -0.07777  -0.07555
 Alpha virt. eigenvalues --   -0.07334  -0.07173  -0.07022  -0.06813  -0.06726

 Mulliken charges:
               1
     1  Pd   0.494138
     2  Pd   0.497787
     3  C    0.006289
     4  C   -0.061486
     5  C   -0.024972
     6  C    0.020176
     7  C   -0.000713
     8  C    0.019739
     9  C   -0.064198
    10  C    0.175441
    11  N   -0.317389
    12  C    0.153930
    13  C   -0.013380
    14  C    0.073867
    15  H    0.043923
    16  H    0.054525
    17  H    0.044723
    18  H    0.079370
    19  H    0.102160
    20  H    0.049884
    21  C   -0.065171
    22  C    0.024436
    23  C   -0.010817
    24  C    0.006727
    25  C   -0.013648
    26  C   -0.015474
    27  C    0.046102
    28  C   -0.053238
    29  C    0.034130
    30  C   -0.022723
    31  H    0.032303
    32  H    0.029334
    33  H    0.027931
    34  H    0.033607
    35  H    0.026349
    36  H    0.024074
    37  C   -0.028856
    38  C    0.060399
    39  C   -0.033096
    40  C    0.150914
    41  N   -0.303170
    42  C    0.149494
    43  H    0.062399
    44  H    0.067025
    45  H    0.107835
    46  H    0.080684
    47  C    0.011569
    48  C   -0.065250
    49  C   -0.020135
    50  C    0.020284
    51  C   -0.001962
    52  C    0.021232
    53  C   -0.066083
    54  C    0.184364
    55  N   -0.322751
    56  C    0.139175
    57  C   -0.007421
    58  C    0.066959
    59  H    0.043758
    60  H    0.054630
    61  H    0.044129
    62  H    0.083208
    63  H    0.100858
    64  H    0.048613
    65  C   -0.064467
    66  C    0.023535
    67  C   -0.010537
    68  C    0.005229
    69  C   -0.014057
    70  C   -0.018168
    71  C    0.040971
    72  C   -0.041778
    73  C    0.032487
    74  C   -0.021659
    75  H    0.032476
    76  H    0.029452
    77  H    0.027906
    78  H    0.035584
    79  H    0.024357
    80  H    0.025091
    81  C   -0.034238
    82  C    0.056215
    83  C   -0.026200
    84  C    0.137378
    85  N   -0.314427
    86  C    0.157757
    87  H    0.064344
    88  H    0.066711
    89  H    0.115564
    90  H    0.082035
    91  C    0.004465
    92  C   -0.058432
    93  C   -0.019987
    94  C    0.020352
    95  C   -0.001809
    96  C    0.019761
    97  C   -0.055977
    98  C    0.177530
    99  N   -0.324328
   100  C    0.159603
   101  C   -0.014198
   102  C    0.067323
   103  H    0.043776
   104  H    0.054627
   105  H    0.043783
   106  H    0.096200
   107  H    0.082379
   108  H    0.047696
   109  C   -0.065280
   110  C    0.024469
   111  C   -0.010671
   112  C    0.005870
   113  C   -0.013844
   114  C   -0.017429
   115  C    0.043123
   116  C   -0.046402
   117  C    0.033425
   118  C   -0.022746
   119  H    0.032408
   120  H    0.029449
   121  H    0.027939
   122  H    0.034782
   123  H    0.024652
   124  H    0.024914
   125  C   -0.026724
   126  C    0.056934
   127  C   -0.031124
   128  C    0.150236
   129  N   -0.312843
   130  C    0.149737
   131  H    0.063536
   132  H    0.066937
   133  H    0.104220
   134  H    0.089199
   135  C    0.010827
   136  C   -0.065489
   137  C   -0.017525
   138  C    0.020432
   139  C   -0.002306
   140  C    0.020480
   141  C   -0.065760
   142  C    0.182591
   143  N   -0.319771
   144  C    0.135841
   145  C   -0.007051
   146  C    0.065227
   147  H    0.043511
   148  H    0.054594
   149  H    0.043977
   150  H    0.086254
   151  H    0.102170
   152  H    0.046902
   153  C   -0.061755
   154  C    0.023994
   155  C   -0.010430
   156  C    0.005165
   157  C   -0.014208
   158  C   -0.013189
   159  C    0.028705
   160  C   -0.032933
   161  C    0.032324
   162  C   -0.026129
   163  H    0.032305
   164  H    0.029416
   165  H    0.028028
   166  H    0.035557
   167  H    0.023094
   168  H    0.025889
   169  C   -0.042702
   170  C    0.062324
   171  C   -0.025761
   172  C    0.136508
   173  N   -0.317426
   174  C    0.164399
   175  H    0.064264
   176  H    0.066906
   177  H    0.110270
   178  H    0.084844
 Sum of Mulliken charges =   4.00000

 Dipole moment (field-independent basis, Debye):
    X=              4.0985    Y=              3.0532    Z=             -0.5553  Tot=              5.1408
 Quadrupole moment (field-independent basis, Debye-Ang):
   XX=            138.7995   YY=           -440.3090   ZZ=           -461.1522
   XY=             31.5416   XZ=            -22.1091   YZ=             -7.3801

 Normal termination of Gaussian 16 at Fri Feb 26 13:18:13 2021.
