 Gaussian 16, Revision C.01,
 Gaussian 16:  ES64L-G16RevC.01  3-Jul-2019

 ------------------------------------------------------------------
 # SP PBE1PBE/def2svp empiricaldispersion=GD3BJ scrf=(solvent=dmso)
 ------------------------------------------------------------------

 -----------
 trans_l3_ld
 -----------
 Symbolic Z-matrix:
 Charge =  4 Multiplicity = 1

                         Standard orientation:
 ---------------------------------------------------------------------
 Center     Atomic      Atomic             Coordinates (Angstroms)
 Number     Number       Type             X           Y           Z
 ---------------------------------------------------------------------
      1         46           0        7.155300    0.301002   -0.128807
      2         46           0       -7.194800    0.646702    0.068793
      3          6           0        3.070900    1.193602   -0.206807
      4          6           0        4.386400    0.862102   -0.454807
      5          7           0        5.289900    0.718902    0.527593
      6          6           0        4.915900    0.939802    1.795593
      7          6           0        3.614000    1.278302    2.123893
      8          6           0        2.640600    1.388202    1.115793
      9          6           0        1.245100    1.650702    1.427193
     10          6           0        0.690500    2.006502    2.644693
     11          6           0       -0.708600    2.131102    2.595893
     12          6           0       -1.234400    1.870002    1.340693
     13         16           0        0.019400    1.481002    0.219893
     14          6           0       -2.636300    1.842702    0.953593
     15          6           0       -3.057900    1.660902   -0.374807
     16          6           0       -4.406000    1.523702   -0.663507
     17          7           0       -5.347800    1.546902    0.292493
     18          6           0       -4.968200    1.792702    1.560493
     19          6           0       -3.647000    1.958502    1.923493
     20          1           0        2.387400    1.286702   -1.051707
     21          1           0        4.730200    0.695802   -1.478507
     22          1           0        5.679800    0.827902    2.566493
     23          1           0        3.363900    1.422902    3.174393
     24          1           0        1.278000    2.181502    3.545493
     25          1           0       -1.313700    2.413002    3.456893
     26          1           0       -2.341900    1.605302   -1.196507
     27          1           0       -4.743900    1.361002   -1.688107
     28          1           0       -5.756800    1.820502    2.315893
     29          1           0       -3.416100    2.125702    2.974393
     30          6           0        2.808000   -2.555298   -1.406407
     31          6           0        4.127900   -2.426098   -0.998307
     32          7           0        4.485600   -2.172698    0.261993
     33          6           0        3.520000   -2.051598    1.168493
     34          6           0        2.167900   -2.159498    0.865093
     35          6           0        1.782600   -2.417498   -0.457007
     36          6           0        0.380200   -2.520598   -0.842807
     37          6           0       -0.149300   -2.853698   -2.077707
     38          6           0       -1.554900   -2.801398   -2.108007
     39          6           0       -2.108400   -2.437698   -0.892107
     40         16           0       -0.874200   -2.165798    0.287893
     41          6           0       -3.491800   -2.133798   -0.587607
     42          6           0       -3.945400   -1.924898    0.728393
     43          6           0       -5.191000   -1.365298    0.946293
     44          7           0       -5.998700   -1.016098   -0.067707
     45          6           0       -5.642600   -1.351598   -1.322007
     46          6           0       -4.423500   -1.924098   -1.619107
     47          1           0        2.587300   -2.755298   -2.455007
     48          1           0        4.938100   -2.528498   -1.727507
     49          1           0        3.831900   -1.856698    2.199593
     50          1           0        1.429100   -2.047498    1.661493
     51          1           0        0.459200   -3.132698   -2.937107
     52          1           0       -2.146800   -3.032098   -2.993507
     53          1           0       -3.309300   -2.141798    1.588093
     54          1           0       -5.535700   -1.131898    1.955293
     55          1           0       -6.335000   -1.083398   -2.123807
     56          1           0       -4.172500   -2.111198   -2.662407
     57          6           0      -10.094800    3.742802   -0.727507
     58          6           0       -9.474700    4.936602   -0.277307
     59          6           0       -8.126500    4.830102    0.164493
     60          6           0       -7.367000    5.992802    0.504793
     61          6           0       -8.024900    7.206502    0.537493
     62          6           0       -9.389000    7.303802    0.174493
     63          6           0      -10.099100    6.205702   -0.260207
     64          6           0       -5.903000    5.866302    0.689193
     65          6           0       -5.237300    6.285202    1.848193
     66          6           0       -3.860200    6.128602    1.971493
     67          6           0       -3.108900    5.560102    0.925993
     68          6           0       -1.698600    5.405202    1.002793
     69          6           0       -0.485800    5.266502    0.994193
     70          6           0        0.913300    5.153502    0.932893
     71          6           0        1.839900    5.266002    1.959293
     72          6           0        3.170500    5.164702    1.513793
     73          6           0        3.273700    4.976302    0.141793
     74          6           0        4.447800    4.883202   -0.626907
     75          6           0        5.485000    4.822502   -1.269307
     76          6           0        6.738000    4.633102   -1.916607
     77          6           0        7.930100    4.961902   -1.241407
     78          6           0        9.155800    4.535302   -1.736507
     79          6           0        9.225200    3.775202   -2.912707
     80          6           0       10.391000    2.871702   -3.115907
     81          6           0       10.288600    1.627602   -2.414307
     82          6           0       11.317300    0.646102   -2.465607
     83          6           0       11.116700   -0.548998   -1.723707
     84          6           0        9.967100   -0.737598   -0.994807
     85          7           0        8.995600    0.214302   -0.968207
     86          6           0        9.154100    1.337702   -1.639307
     87          6           0       12.464800    0.927002   -3.247907
     88          6           0       12.550900    2.123302   -3.925307
     89          6           0       11.522200    3.099402   -3.863707
     90          6           0        8.056700    3.586402   -3.663707
     91          6           0        6.825000    4.011002   -3.176607
     92         16           0        1.703400    4.898602   -0.593807
     93          6           0       -3.776100    5.153302   -0.245207
     94          6           0       -5.148300    5.301802   -0.354407
     95          6           0       -7.573000    3.543402    0.291293
     96          7           0       -8.191400    2.439502   -0.087407
     97          6           0       -9.429300    2.547102   -0.656807
     98          1           0      -11.102500    3.769102   -1.145307
     99          1           0       -7.472500    8.112802    0.794993
    100          1           0       -9.871800    8.283202    0.200793
    101          1           0      -11.135200    6.302002   -0.590307
    102          1           0       -5.807400    6.721002    2.671593
    103          1           0       -3.354500    6.448002    2.884393
    104          1           0        1.546400    5.425402    2.996693
    105          1           0        4.044800    5.236502    2.160493
    106          1           0        7.879700    5.486302   -0.285607
    107          1           0       10.062200    4.704402   -1.150407
    108          1           0       11.876900   -1.331998   -1.731507
    109          1           0        9.782300   -1.646598   -0.421207
    110          1           0        8.344200    2.070002   -1.577807
    111          1           0       13.270800    0.193002   -3.307007
    112          1           0       13.437000    2.335202   -4.527907
    113          1           0       11.635100    4.036702   -4.412007
    114          1           0        8.098700    3.009102   -4.590307
    115          1           0        5.912300    3.789302   -3.732807
    116          1           0       -3.203200    4.724302   -1.068907
    117          1           0       -5.649300    4.988802   -1.273607
    118          1           0       -6.586400    3.443402    0.732993
    119          1           0       -9.873700    1.630502   -1.041707
    120          6           0      -11.142800   -0.838698    0.927693
    121          6           0      -11.173500   -2.125398    0.329893
    122          6           0       -9.964600   -2.588698   -0.259907
    123          6           0       -9.846200   -3.927898   -0.748207
    124          6           0      -10.985400   -4.707098   -0.778307
    125          6           0      -12.213000   -4.217198   -0.272707
    126          6           0      -12.308300   -2.969798    0.305493
    127          6           0       -8.497000   -4.443698   -1.075507
    128          6           0       -8.154200   -4.970198   -2.327107
    129          6           0       -6.849800   -5.377598   -2.593007
    130          6           0       -5.855600   -5.278998   -1.602507
    131          6           0       -4.497100   -5.627198   -1.830907
    132          6           0       -3.302000   -5.860298   -1.923707
    133          6           0       -1.910800   -6.056398   -1.930707
    134          6           0       -1.058200   -6.352398   -2.984607
    135          6           0        0.296300   -6.393698   -2.602007
    136          6           0        0.488000   -6.129898   -1.252707
    137          6           0        1.685700   -6.008098   -0.528207
    138          6           0        2.689100   -5.819298    0.141193
    139          6           0        3.817000   -5.464198    0.928693
    140          6           0        5.092100   -5.314998    0.353893
    141          6           0        6.143900   -4.807898    1.104593
    142          6           0        5.961400   -4.456998    2.449893
    143          6           0        7.057900   -3.865998    3.251293
    144          6           0        7.654000   -2.613098    2.897693
    145          6           0        8.719500   -2.082398    3.688193
    146          6           0        9.276800   -0.837998    3.300993
    147          6           0        8.786500   -0.172298    2.213193
    148          7           0        7.745200   -0.683198    1.491393
    149          6           0        7.189800   -1.843698    1.804993
    150          6           0        9.167800   -2.791698    4.825693
    151          6           0        8.561900   -3.978398    5.168393
    152          6           0        7.512800   -4.509198    4.387393
    153          6           0        4.709300   -4.675898    3.041293
    154          6           0        3.647500   -5.164298    2.293493
    155         16           0       -1.024500   -5.843098   -0.453507
    156          6           0       -6.210300   -4.788098   -0.330807
    157          6           0       -7.507200   -4.376098   -0.078807
    158          6           0       -8.895500   -1.681198   -0.371107
    159          7           0       -8.907300   -0.472398    0.159793
    160          6           0      -10.008600   -0.072198    0.863093
    161          1           0      -12.017600   -0.456598    1.456293
    162          1           0      -10.927500   -5.733898   -1.146107
    163          1           0      -13.090900   -4.866298   -0.302907
    164          1           0      -13.246200   -2.625398    0.745493
    165          1           0       -8.910200   -5.032198   -3.113107
    166          1           0       -6.589300   -5.761798   -3.580707
    167          1           0       -1.417400   -6.516398   -4.000507
    168          1           0        1.123800   -6.593898   -3.282507
    169          1           0        5.240100   -5.561998   -0.698607
    170          1           0        7.121700   -4.671098    0.636993
    171          1           0       10.097300   -0.400698    3.871893
    172          1           0        9.192200    0.784202    1.884793
    173          1           0        6.326900   -2.157798    1.194193
    174          1           0        9.984600   -2.382498    5.423293
    175          1           0        8.897800   -4.527798    6.050493
    176          1           0        7.061900   -5.461898    4.673293
    177          1           0        4.557800   -4.417798    4.091793
    178          1           0        2.664500   -5.285998    2.751593
    179          1           0       -5.452100   -4.724898    0.451693
    180          1           0       -7.764200   -3.992598    0.911393
    181          1           0       -8.011700   -1.979398   -0.927707
    182          1           0       -9.949500    0.898502    1.354993
 ---------------------------------------------------------------------

 SCF Done:  E(RPBE1PBE) =  -6278.47049312     A.U. after   23 cycles

 The electronic state is 1-A.
 Alpha  occ. eigenvalues --  -89.07179 -89.06501 -89.06146 -89.05822 -14.50198
 Alpha  occ. eigenvalues --  -14.48943 -14.48673 -14.48523 -14.48424 -14.48360
 Alpha  occ. eigenvalues --  -14.48046 -14.41268 -10.32706 -10.32321 -10.32277
 Alpha  occ. eigenvalues --  -10.32265 -10.32158 -10.32112 -10.32108 -10.32069
 Alpha  occ. eigenvalues --  -10.32033 -10.31925 -10.31547 -10.31449 -10.31412
 Alpha  occ. eigenvalues --  -10.31370 -10.31273 -10.30935 -10.30832 -10.30718
 Alpha  occ. eigenvalues --  -10.30682 -10.30663 -10.30626 -10.30435 -10.30414
 Alpha  occ. eigenvalues --  -10.30044 -10.29928 -10.29403 -10.29220 -10.29170
 Alpha  occ. eigenvalues --  -10.29093 -10.28997 -10.28979 -10.28960 -10.28959
 Alpha  occ. eigenvalues --  -10.28948 -10.28929 -10.28885 -10.28755 -10.28720
 Alpha  occ. eigenvalues --  -10.28681 -10.28663 -10.28637 -10.28603 -10.28570
 Alpha  occ. eigenvalues --  -10.28568 -10.28565 -10.28536 -10.28492 -10.28464
 Alpha  occ. eigenvalues --  -10.28464 -10.28315 -10.28295 -10.28119 -10.27818
 Alpha  occ. eigenvalues --  -10.27763 -10.27722 -10.27650 -10.27625 -10.27611
 Alpha  occ. eigenvalues --  -10.27586 -10.27432 -10.27296 -10.27258 -10.27246
 Alpha  occ. eigenvalues --  -10.27220 -10.27187 -10.27180 -10.27044 -10.26927
 Alpha  occ. eigenvalues --  -10.26925 -10.26922 -10.26920 -10.26881 -10.26851
 Alpha  occ. eigenvalues --  -10.26850 -10.26816 -10.26769 -10.26761 -10.26752
 Alpha  occ. eigenvalues --  -10.26712 -10.26711 -10.26693 -10.26654 -10.26614
 Alpha  occ. eigenvalues --  -10.26605 -10.26597 -10.26571 -10.26555 -10.26553
 Alpha  occ. eigenvalues --  -10.26534 -10.26514 -10.26479 -10.26467 -10.26460
 Alpha  occ. eigenvalues --  -10.26432 -10.26419 -10.26399 -10.26397 -10.26393
 Alpha  occ. eigenvalues --  -10.26344 -10.26279 -10.26248 -10.26244 -10.26104
 Alpha  occ. eigenvalues --  -10.26045  -8.07210  -8.06548  -8.06231  -8.05883
 Alpha  occ. eigenvalues --   -6.01343  -6.00958  -6.00680  -6.00672  -6.00373
 Alpha  occ. eigenvalues --   -6.00297  -6.00030  -6.00008  -5.99984  -5.99656
 Alpha  occ. eigenvalues --   -5.99638  -5.99308  -3.57503  -3.57132  -2.25876
 Alpha  occ. eigenvalues --   -2.25126  -2.25082  -2.24842  -2.21060  -2.20745
 Alpha  occ. eigenvalues --   -1.03717  -1.03710  -1.03254  -1.03156  -1.02727
 Alpha  occ. eigenvalues --   -1.02586  -1.02390  -0.98842  -0.95417  -0.94755
 Alpha  occ. eigenvalues --   -0.93826  -0.93602  -0.92934  -0.92574  -0.92526
 Alpha  occ. eigenvalues --   -0.92502  -0.90734  -0.90457  -0.90437  -0.90310
 Alpha  occ. eigenvalues --   -0.89479  -0.88566  -0.87099  -0.85843  -0.85649
 Alpha  occ. eigenvalues --   -0.85535  -0.85482  -0.85369  -0.83730  -0.83582
 Alpha  occ. eigenvalues --   -0.83242  -0.83106  -0.83001  -0.82859  -0.82803
 Alpha  occ. eigenvalues --   -0.82554  -0.82418  -0.82210  -0.81995  -0.81479
 Alpha  occ. eigenvalues --   -0.81290  -0.80132  -0.79655  -0.79548  -0.79304
 Alpha  occ. eigenvalues --   -0.79021  -0.78808  -0.78780  -0.78593  -0.78501
 Alpha  occ. eigenvalues --   -0.78445  -0.78349  -0.78175  -0.78133  -0.77994
 Alpha  occ. eigenvalues --   -0.77376  -0.76357  -0.76073  -0.73966  -0.73768
 Alpha  occ. eigenvalues --   -0.71689  -0.71004  -0.70782  -0.70693  -0.70657
 Alpha  occ. eigenvalues --   -0.70354  -0.70259  -0.69991  -0.69825  -0.69130
 Alpha  occ. eigenvalues --   -0.69081  -0.68793  -0.68636  -0.68358  -0.68132
 Alpha  occ. eigenvalues --   -0.67655  -0.67487  -0.67416  -0.67102  -0.66003
 Alpha  occ. eigenvalues --   -0.65155  -0.64992  -0.64889  -0.64542  -0.64477
 Alpha  occ. eigenvalues --   -0.64349  -0.63383  -0.63200  -0.62652  -0.62448
 Alpha  occ. eigenvalues --   -0.61952  -0.61442  -0.61193  -0.61155  -0.61082
 Alpha  occ. eigenvalues --   -0.59898  -0.58813  -0.58619  -0.58279  -0.58157
 Alpha  occ. eigenvalues --   -0.57982  -0.57869  -0.57840  -0.57721  -0.57549
 Alpha  occ. eigenvalues --   -0.57348  -0.57022  -0.56988  -0.56827  -0.56732
 Alpha  occ. eigenvalues --   -0.56677  -0.56221  -0.56118  -0.56084  -0.55843
 Alpha  occ. eigenvalues --   -0.55778  -0.55568  -0.55509  -0.55472  -0.54516
 Alpha  occ. eigenvalues --   -0.54441  -0.53639  -0.52560  -0.51932  -0.51877
 Alpha  occ. eigenvalues --   -0.51805  -0.51766  -0.51630  -0.51604  -0.51516
 Alpha  occ. eigenvalues --   -0.51270  -0.51084  -0.50957  -0.50689  -0.50666
 Alpha  occ. eigenvalues --   -0.50607  -0.50511  -0.50111  -0.49997  -0.49808
 Alpha  occ. eigenvalues --   -0.49689  -0.49646  -0.49384  -0.49332  -0.49175
 Alpha  occ. eigenvalues --   -0.49110  -0.48990  -0.48896  -0.48798  -0.48746
 Alpha  occ. eigenvalues --   -0.48597  -0.48336  -0.48088  -0.47972  -0.47918
 Alpha  occ. eigenvalues --   -0.47743  -0.47686  -0.47534  -0.47401  -0.47016
 Alpha  occ. eigenvalues --   -0.46914  -0.46800  -0.46626  -0.46503  -0.46377
 Alpha  occ. eigenvalues --   -0.46309  -0.46080  -0.45834  -0.45758  -0.45685
 Alpha  occ. eigenvalues --   -0.45602  -0.45555  -0.45475  -0.45350  -0.45211
 Alpha  occ. eigenvalues --   -0.45069  -0.44945  -0.44615  -0.44352  -0.44324
 Alpha  occ. eigenvalues --   -0.44127  -0.44020  -0.43766  -0.43657  -0.43643
 Alpha  occ. eigenvalues --   -0.43553  -0.43501  -0.43425  -0.43116  -0.42993
 Alpha  occ. eigenvalues --   -0.42901  -0.42780  -0.42565  -0.42379  -0.42264
 Alpha  occ. eigenvalues --   -0.42156  -0.42050  -0.41671  -0.41598  -0.41580
 Alpha  occ. eigenvalues --   -0.41530  -0.41435  -0.41343  -0.41287  -0.40994
 Alpha  occ. eigenvalues --   -0.40915  -0.40629  -0.40327  -0.40078  -0.39811
 Alpha  occ. eigenvalues --   -0.39580  -0.39256  -0.39108  -0.38805  -0.38512
 Alpha  occ. eigenvalues --   -0.38493  -0.38420  -0.38304  -0.38177  -0.38105
 Alpha  occ. eigenvalues --   -0.37956  -0.37885  -0.37826  -0.37758  -0.37671
 Alpha  occ. eigenvalues --   -0.37559  -0.37446  -0.37031  -0.36647  -0.36493
 Alpha  occ. eigenvalues --   -0.36443  -0.36177  -0.35696  -0.35136  -0.35016
 Alpha  occ. eigenvalues --   -0.34723  -0.34542  -0.34365  -0.34245  -0.34130
 Alpha  occ. eigenvalues --   -0.33679  -0.33531  -0.33151  -0.33039  -0.32759
 Alpha  occ. eigenvalues --   -0.32444  -0.32181  -0.31764  -0.31514  -0.31501
 Alpha  occ. eigenvalues --   -0.31348  -0.31128  -0.31001  -0.30898  -0.30766
 Alpha  occ. eigenvalues --   -0.30615  -0.30517  -0.30444  -0.30104  -0.29824
 Alpha  occ. eigenvalues --   -0.29624  -0.29421  -0.29390  -0.29327  -0.29285
 Alpha  occ. eigenvalues --   -0.29267  -0.29111  -0.28879  -0.28442  -0.28097
 Alpha  occ. eigenvalues --   -0.28041  -0.27919  -0.27383  -0.27035  -0.26422
 Alpha  occ. eigenvalues --   -0.26063  -0.25906  -0.25291  -0.22659  -0.22461
 Alpha virt. eigenvalues --   -0.13188  -0.11951  -0.11276  -0.09871  -0.09772
 Alpha virt. eigenvalues --   -0.09479  -0.09393  -0.09138  -0.08720  -0.08409
 Alpha virt. eigenvalues --   -0.07275  -0.06570  -0.06502  -0.06261  -0.06190

 Mulliken charges:
               1
     1  Pd   0.705155
     2  Pd   0.509511
     3  C   -0.062847
     4  C    0.158518
     5  N   -0.329002
     6  C    0.145920
     7  C   -0.060490
     8  C    0.118250
     9  C   -0.104613
    10  C    0.020941
    11  C   -0.002921
    12  C   -0.084280
    13  S    0.163311
    14  C    0.109960
    15  C   -0.057786
    16  C    0.142190
    17  N   -0.353459
    18  C    0.128525
    19  C   -0.034103
    20  H    0.071463
    21  H    0.107393
    22  H    0.101887
    23  H    0.067222
    24  H    0.058880
    25  H    0.058573
    26  H    0.074294
    27  H    0.115197
    28  H    0.114849
    29  H    0.066193
    30  C   -0.063516
    31  C    0.077658
    32  N   -0.229961
    33  C    0.075601
    34  C   -0.069130
    35  C    0.104107
    36  C   -0.098121
    37  C   -0.005886
    38  C    0.026737
    39  C   -0.112167
    40  S    0.150289
    41  C    0.094414
    42  C   -0.058053
    43  C    0.140365
    44  N   -0.344912
    45  C    0.107743
    46  C   -0.017518
    47  H    0.043139
    48  H    0.060993
    49  H    0.053744
    50  H    0.052722
    51  H    0.053495
    52  H    0.056358
    53  H    0.073206
    54  H    0.113584
    55  H    0.117295
    56  H    0.065816
    57  C   -0.028700
    58  C    0.042826
    59  C   -0.049775
    60  C    0.052426
    61  C   -0.013961
    62  C    0.000740
    63  C   -0.005678
    64  C   -0.076450
    65  C    0.003010
    66  C    0.007989
    67  C   -0.085523
    68  C   -0.022178
    69  C    0.040818
    70  C   -0.208413
    71  C    0.050441
    72  C    0.025334
    73  C   -0.195682
    74  C    0.043070
    75  C   -0.035588
    76  C   -0.087264
    77  C    0.004873
    78  C    0.014044
    79  C   -0.138338
    80  C    0.032236
    81  C   -0.025521
    82  C    0.051775
    83  C   -0.039019
    84  C    0.138259
    85  N   -0.344552
    86  C    0.191919
    87  C   -0.003291
    88  C    0.002735
    89  C   -0.024274
    90  C    0.011983
    91  C    0.005521
    92  S    0.203540
    93  C    0.004598
    94  C   -0.035208
    95  C    0.174263
    96  N   -0.319121
    97  C    0.105582
    98  H    0.060447
    99  H    0.045725
   100  H    0.060967
   101  H    0.046743
   102  H    0.041429
   103  H    0.041057
   104  H    0.051476
   105  H    0.051480
   106  H    0.046901
   107  H    0.050431
   108  H    0.064549
   109  H    0.097313
   110  H    0.128183
   111  H    0.048892
   112  H    0.063285
   113  H    0.046605
   114  H    0.049588
   115  H    0.046395
   116  H    0.044254
   117  H    0.054928
   118  H    0.088333
   119  H    0.111163
   120  C   -0.027347
   121  C    0.042953
   122  C   -0.056096
   123  C    0.055924
   124  C   -0.013253
   125  C    0.000634
   126  C   -0.005781
   127  C   -0.078302
   128  C    0.006088
   129  C    0.006844
   130  C   -0.078423
   131  C   -0.025656
   132  C    0.043768
   133  C   -0.212686
   134  C    0.035858
   135  C    0.029656
   136  C   -0.205108
   137  C    0.046712
   138  C   -0.021980
   139  C   -0.095504
   140  C    0.021429
   141  C   -0.006866
   142  C   -0.065175
   143  C    0.024149
   144  C   -0.007384
   145  C    0.036926
   146  C   -0.031534
   147  C    0.130903
   148  N   -0.362961
   149  C    0.148445
   150  C   -0.005486
   151  C    0.006445
   152  C   -0.017326
   153  C   -0.009043
   154  C    0.010550
   155  S    0.204424
   156  C   -0.004062
   157  C   -0.034783
   158  C    0.189551
   159  N   -0.322072
   160  C    0.103255
   161  H    0.060839
   162  H    0.045985
   163  H    0.061141
   164  H    0.046980
   165  H    0.041525
   166  H    0.041482
   167  H    0.050435
   168  H    0.049636
   169  H    0.037450
   170  H    0.043352
   171  H    0.064707
   172  H    0.117530
   173  H    0.136638
   174  H    0.047959
   175  H    0.061333
   176  H    0.046698
   177  H    0.040025
   178  H    0.038060
   179  H    0.043927
   180  H    0.055185
   181  H    0.074188
   182  H    0.110914
 Sum of Mulliken charges =   4.00000

 Dipole moment (field-independent basis, Debye):
    X=              4.8892    Y=              6.2308    Z=              3.2582  Tot=              8.5640
 Quadrupole moment (field-independent basis, Debye-Ang):
   XX=            484.2454   YY=           -576.7231   ZZ=           -573.0514
   XY=            -40.0607   XZ=              0.1326   YZ=             16.7539

 Normal termination of Gaussian 16 at Sat Jun  3 03:58:49 2023.
