 Gaussian 16, Revision C.01,
 Gaussian 16:  ES64L-G16RevC.01  3-Jul-2019

 ------------------------------------------------------------------
 # SP PBE1PBE/def2svp empiricaldispersion=GD3BJ scrf=(solvent=dmso)
 ------------------------------------------------------------------

 -----
 m2_lc
 -----
 Symbolic Z-matrix:
 Charge =  4 Multiplicity = 1

                         Standard orientation:
 ---------------------------------------------------------------------
 Center     Atomic      Atomic             Coordinates (Angstroms)
 Number     Number       Type             X           Y           Z
 ---------------------------------------------------------------------
      1         46           0       10.609601    0.136000    0.222702
      2         46           0      -10.601899    0.124999    0.237902
      3          6           0      -11.327799   -2.294801    3.646602
      4          6           0      -10.244299   -3.204901    3.695202
      5          6           0       -9.197999   -3.049501    2.733502
      6          6           0       -8.078899   -3.939801    2.738402
      7          6           0       -8.073999   -4.974101    3.654502
      8          6           0       -9.114299   -5.133001    4.597402
      9          6           0      -10.175299   -4.258901    4.635302
     10          6           0       -6.934599   -3.773901    1.811302
     11          6           0       -6.137099   -2.619800    1.850802
     12          6           0       -4.996899   -2.520200    1.063102
     13          6           0       -4.630199   -3.566400    0.197702
     14          6           0       -3.447299   -3.466100   -0.593698
     15          6           0       -2.433099   -3.368600   -1.261098
     16          6           0       -1.214499   -3.252200   -1.997098
     17          6           0       -1.208199   -2.952800   -3.370498
     18          6           0        0.002701   -2.816600   -4.045498
     19          6           0        1.214701   -2.952600   -3.372598
     20          6           0        1.223401   -3.252200   -1.999198
     21          6           0        2.443801   -3.370200   -1.266598
     22          6           0        3.459801   -3.469500   -0.602398
     23          6           0        4.646201   -3.573500    0.183202
     24          6           0        5.467401   -4.711200    0.102902
     25          6           0        6.602301   -4.816600    0.897902
     26          6           0        6.960401   -3.788600    1.781702
     27          6           0        8.111001   -3.959600    2.699902
     28          6           0        9.226501   -3.064900    2.697202
     29          6           0       10.279401   -3.226300    3.650602
     30          6           0       11.358901   -2.311300    3.604702
     31          6           0       11.395701   -1.337900    2.643002
     32          7           0       10.413401   -1.231400    1.704202
     33          6           0        9.372401   -2.048200    1.732702
     34          6           0       10.220601   -4.290300    4.580002
     35          6           0        9.162901   -5.168500    4.539402
     36          6           0        8.116001   -5.003700    3.604802
     37          6           0        6.157401   -2.638900    1.839202
     38          6           0        5.012301   -2.535800    1.059002
     39          6           0        0.005101   -3.418200   -1.327198
     40          6           0       -5.446199   -4.709100    0.135202
     41          6           0       -6.576299   -4.810601    0.937602
     42          6           0       -9.353799   -2.043001    1.759902
     43          7           0      -10.397799   -1.230001    1.730002
     44          6           0      -11.374299   -1.331301    2.675402
     45          1           0      -12.137099   -2.365101    4.374602
     46          1           0       -7.231099   -5.668301    3.667902
     47          1           0       -9.060799   -5.956601    5.312302
     48          1           0      -10.972699   -4.371001    5.372202
     49          1           0       -6.380499   -1.809401    2.543502
     50          1           0       -4.361099   -1.637000    1.140402
     51          1           0       -2.154499   -2.818800   -3.897198
     52          1           0        0.001901   -2.582300   -5.111998
     53          1           0        2.160001   -2.819000   -3.900998
     54          1           0        5.202101   -5.519300   -0.580698
     55          1           0        7.223301   -5.713100    0.835702
     56          1           0       12.173101   -2.385800    4.326902
     57          1           0       12.216201   -0.622100    2.578602
     58          1           0        8.620301   -1.928700    0.949502
     59          1           0       11.023001   -4.406900    5.310702
     60          1           0        9.117201   -5.999800    5.245702
     61          1           0        7.275601   -5.701000    3.616602
     62          1           0        6.401001   -1.835300    2.539702
     63          1           0        4.372701   -1.656700    1.149902
     64          1           0        0.006101   -3.662900   -0.264898
     65          1           0       -5.180699   -5.523800   -0.540398
     66          1           0       -7.193299   -5.710501    0.890002
     67          1           0       -8.606899   -1.928301    0.971202
     68          1           0      -12.197899   -0.619301    2.609502
     69          6           0      -11.507599    3.593699    2.535702
     70          6           0      -10.343099    3.823099    3.309102
     71          6           0       -9.250799    2.915999    3.151802
     72          6           0       -8.045699    3.098699    3.898502
     73          6           0       -7.992299    4.140699    4.803802
     74          6           0       -9.076999    5.031999    4.966402
     75          6           0      -10.229299    4.891999    4.227902
     76          6           0       -6.884699    2.198299    3.713902
     77          6           0       -6.253799    2.076799    2.465602
     78          6           0       -5.135699    1.266600    2.311502
     79          6           0       -4.620999    0.549800    3.407102
     80          6           0       -3.447899   -0.249500    3.264102
     81          6           0       -2.438099   -0.918700    3.140502
     82          6           0       -1.221999   -1.647700    2.977202
     83          6           0       -1.221699   -2.994200    2.573402
     84          6           0       -0.013799   -3.660200    2.378902
     85          6           0        1.199901   -3.003000    2.566802
     86          6           0        1.212101   -1.656700    2.970902
     87          6           0        2.433601   -0.935700    3.130102
     88          6           0        3.446001   -0.270200    3.252502
     89          6           0        4.621101    0.525600    3.398902
     90          6           0        5.259801    0.629700    4.646702
     91          6           0        6.372301    1.447000    4.800702
     92          6           0        6.885301    2.172000    3.716702
     93          6           0        8.045401    3.072000    3.908502
     94          6           0        9.250701    2.898500    3.159802
     95          6           0       10.341701    3.805800    3.325902
     96          6           0       11.507201    3.585000    2.551602
     97          6           0       11.571501    2.521300    1.691902
     98          7           0       10.536201    1.643200    1.572102
     99          6           0        9.430501    1.817000    2.276202
    100          6           0       10.226201    4.865600    4.254802
    101          6           0        9.073601    4.996800    4.994702
    102          6           0        7.990601    4.105100    4.823902
    103          6           0        6.256901    2.055100    2.466502
    104          6           0        5.138601    1.246100    2.307102
    105          6           0       -0.001999   -0.990300    3.182902
    106          6           0       -5.262199    0.658800    4.653202
    107          6           0       -6.374899    1.476899    4.801602
    108          6           0       -9.428199    1.826399    2.277802
    109          7           0      -10.532799    1.644499    1.574002
    110          6           0      -11.569599    2.522499    1.685102
    111          1           0      -12.362099    4.267099    2.616402
    112          1           0       -7.081999    4.293799    5.387302
    113          1           0       -8.986799    5.850799    5.683202
    114          1           0      -11.061599    5.588499    4.344502
    115          1           0       -6.614399    2.658099    1.612302
    116          1           0       -4.630099    1.213500    1.345602
    117          1           0       -2.169999   -3.508500    2.408002
    118          1           0       -0.018699   -4.708700    2.072602
    119          1           0        2.143701   -3.523900    2.396002
    120          1           0        4.869801    0.071100    5.499202
    121          1           0        6.857401    1.522100    5.776202
    122          1           0       12.360901    4.258500    2.639302
    123          1           0       12.453601    2.328300    1.079602
    124          1           0        8.642201    1.070700    2.159402
    125          1           0       11.057401    5.562200    4.378302
    126          1           0        8.982301    5.808500    5.719302
    127          1           0        7.080401    4.250500    5.409602
    128          1           0        6.619201    2.639600    1.616202
    129          1           0        4.634601    1.197500    1.340202
    130          1           0        0.002601    0.058900    3.480502
    131          1           0       -4.874599    0.102800    5.508402
    132          1           0       -6.863099    1.554599    5.775402
    133          1           0       -8.638199    1.080699    2.167902
    134          1           0      -12.450199    2.324999    1.072002
    135          6           0      -12.149699    2.837899   -2.643698
    136          6           0      -11.119099    3.800099   -2.791398
    137          6           0       -9.861799    3.525399   -2.173298
    138          6           0       -8.767699    4.437999   -2.308398
    139          6           0       -8.992999    5.626499   -2.974998
    140          6           0      -10.246999    5.912499   -3.561698
    141          6           0      -11.287399    5.013299   -3.498598
    142          6           0       -7.430099    4.081599   -1.788198
    143          6           0       -6.834799    2.874599   -2.190898
    144          6           0       -5.573899    2.521800   -1.739698
    145          6           0       -4.859799    3.368100   -0.870598
    146          6           0       -3.559499    2.950700   -0.463498
    147          6           0       -2.467999    2.461200   -0.230498
    148          6           0       -1.222399    1.789900   -0.063398
    149          6           0       -1.213099    0.386400    0.030902
    150          6           0       -0.007499   -0.299700    0.092902
    151          6           0        1.198401    0.386500    0.036402
    152          6           0        1.208101    1.789900   -0.057698
    153          6           0        2.454101    2.462100   -0.218698
    154          6           0        3.545501    2.954100   -0.446298
    155          6           0        4.846301    3.375000   -0.848498
    156          6           0        5.436701    4.580600   -0.432198
    157          6           0        6.704401    4.935000   -0.885698
    158          6           0        7.416401    4.099400   -1.758098
    159          6           0        8.752201    4.465100   -2.276498
    160          6           0        9.850501    3.555700   -2.153898
    161          6           0       11.106501    3.844900   -2.768298
    162          6           0       12.143701    2.888700   -2.628998
    163          6           0       11.951001    1.766000   -1.867398
    164          7           0       10.775101    1.551600   -1.213098
    165          6           0        9.768001    2.395400   -1.362098
    166          6           0       11.268401    5.067000   -3.461598
    167          6           0       10.223401    5.961600   -3.513598
    168          6           0        8.971701    5.662800   -2.928698
    169          6           0        6.822601    2.895400   -2.171998
    170          6           0        5.561801    2.537300   -1.724798
    171          6           0       -0.007099    2.488500   -0.087698
    172          6           0       -5.451199    4.577300   -0.466198
    173          6           0       -6.718999    4.926299   -0.923698
    174          6           0       -9.772599    2.375399   -1.367098
    175          7           0      -10.773599    1.525899   -1.211198
    176          6           0      -11.948499    1.723999   -1.871798
    177          1           0      -13.114799    2.987599   -3.129998
    178          1           0       -8.174600    6.340999   -3.086098
    179          1           0      -10.378400    6.856899   -4.093798
    180          1           0      -12.245199    5.226599   -3.976798
    181          1           0       -7.354799    2.221899   -2.896998
    182          1           0       -5.109499    1.597000   -2.078698
    183          1           0       -2.157099   -0.159900    0.038202
    184          1           0       -0.007699   -1.385600    0.170402
    185          1           0        2.142501   -0.159700    0.048302
    186          1           0        4.897801    5.239800    0.250502
    187          1           0        7.154701    5.871700   -0.549198
    188          1           0       13.108101    3.051400   -3.112198
    189          1           0       12.732701    1.017000   -1.731998
    190          1           0        8.855901    2.185600   -0.800098
    191          1           0       12.225101    5.290800   -3.937098
    192          1           0       10.349600    6.912800   -4.034998
    193          1           0        8.150200    6.375400   -3.028498
    194          1           0        7.343001    2.249700   -2.884398
    195          1           0        5.098301    1.615200   -2.072298
    196          1           0       -0.007099    3.574800   -0.181398
    197          1           0       -4.913399    5.243300    0.210902
    198          1           0       -7.170499    5.865299   -0.595298
    199          1           0       -8.860299    2.178899   -0.800598
    200          1           0      -12.723299    0.968599   -1.733198
    201          6           0      -11.690199   -3.360901   -1.910198
    202          6           0      -10.593299   -3.627701   -2.765398
    203          6           0       -9.477199   -2.734601   -2.722998
    204          6           0       -8.332199   -2.976901   -3.547598
    205          6           0       -8.373299   -4.053201   -4.415098
    206          6           0       -9.485999   -4.920501   -4.471198
    207          6           0      -10.574399   -4.728101   -3.652698
    208          6           0       -7.117599   -2.134101   -3.483398
    209          6           0       -6.453299   -1.901401   -2.268798
    210          6           0       -5.271499   -1.173400   -2.233798
    211          6           0       -4.711799   -0.658000   -3.415398
    212          6           0       -3.488799    0.076100   -3.380598
    213          6           0       -2.450999    0.713400   -3.357798
    214          6           0       -1.224099    1.443700   -3.368698
    215          6           0       -1.219899    2.846900   -3.450898
    216          6           0       -0.011999    3.537900   -3.480898
    217          6           0        1.198901    2.852500   -3.441498
    218          6           0        1.208901    1.449200   -3.360398
    219          6           0        2.438601    0.723600   -3.344298
    220          6           0        3.477301    0.087900   -3.365098
    221          6           0        4.700201   -0.646300   -3.402498
    222          6           0        5.361301   -0.877400   -4.621698
    223          6           0        6.542501   -1.606700   -4.654698
    224          6           0        7.104701   -2.124100   -3.478298
    225          6           0        8.318001   -2.968400   -3.546398
    226          6           0        9.470101   -2.722300   -2.732798
    227          6           0       10.585301   -3.616200   -2.779998
    228          6           0       11.689901   -3.345100   -1.936398
    229          6           0       11.677901   -2.248300   -1.118398
    230          7           0       10.627701   -1.380100   -1.114698
    231          6           0        9.579001   -1.595200   -1.892298
    232          6           0       10.558001   -4.721900   -3.660598
    233          6           0        9.462401   -4.918500   -4.468298
    234          6           0        8.350901   -4.049900   -4.407798
    235          6           0        6.449201   -1.883400   -2.260498
    236          6           0        5.267901   -1.154800   -2.221698
    237          6           0       -0.006199    0.753600   -3.311898
    238          6           0       -5.381599   -0.881200   -4.631298
    239          6           0       -6.563299   -1.609801   -4.660598
    240          6           0       -9.578699   -1.611001   -1.876998
    241          7           0      -10.620799   -1.399301   -1.089598
    242          6           0      -11.670399   -2.268301   -1.086898
    243          1           0      -12.554299   -4.026601   -1.902098
    244          1           0       -7.508699   -4.255801   -5.050498
    245          1           0       -9.466299   -5.764601   -5.163598
    246          1           0      -11.427299   -5.408801   -3.678398
    247          1           0       -6.835199   -2.339801   -1.343098
    248          1           0       -4.753799   -1.018000   -1.287198
    249          1           0       -2.168199    3.385900   -3.485198
    250          1           0       -0.013899    4.628400   -3.538798
    251          1           0        2.144701    3.396200   -3.467598
    252          1           0        4.937801   -0.482100   -5.546498
    253          1           0        7.044401   -1.774800   -5.609898
    254          1           0       12.553801   -4.011000   -1.932698
    255          1           0       12.506401   -2.021000   -0.445898
    256          1           0        8.781701   -0.849200   -1.870398
    257          1           0       11.410401   -5.403000   -3.689898
    258          1           0        9.436001   -5.766700   -5.155398
    259          1           0        7.480801   -4.255600   -5.034598
    260          1           0        6.837501   -2.316600   -1.335098
    261          1           0        4.756801   -0.993700   -1.272298
    262          1           0       -0.003899   -0.333300   -3.239698
    263          1           0       -4.964599   -0.479900   -5.556498
    264          1           0       -7.072099   -1.771901   -5.613198
    265          1           0       -8.782199   -0.864201   -1.860198
    266          1           0      -12.492699   -2.044801   -0.405498
 ---------------------------------------------------------------------

 SCF Done:  E(RPBE1PBE) =  -6836.06026468     A.U. after   19 cycles

 The electronic state is 1-A.
 Alpha  occ. eigenvalues --  -14.48306 -14.48304 -14.48267 -14.48267 -14.48264
 Alpha  occ. eigenvalues --  -14.48256 -14.48165 -14.48163 -10.32368 -10.32362
 Alpha  occ. eigenvalues --  -10.32294 -10.32290 -10.32257 -10.32254 -10.32173
 Alpha  occ. eigenvalues --  -10.32171 -10.30919 -10.30917 -10.30893 -10.30890
 Alpha  occ. eigenvalues --  -10.30890 -10.30885 -10.30846 -10.30842 -10.29034
 Alpha  occ. eigenvalues --  -10.29033 -10.29032 -10.29029 -10.29009 -10.29008
 Alpha  occ. eigenvalues --  -10.29006 -10.29003 -10.28906 -10.28905 -10.28895
 Alpha  occ. eigenvalues --  -10.28893 -10.28822 -10.28815 -10.28765 -10.28762
 Alpha  occ. eigenvalues --  -10.28529 -10.28523 -10.28522 -10.28517 -10.28516
 Alpha  occ. eigenvalues --  -10.28515 -10.28499 -10.28495 -10.28476 -10.28472
 Alpha  occ. eigenvalues --  -10.28471 -10.28471 -10.28467 -10.28467 -10.28432
 Alpha  occ. eigenvalues --  -10.28428 -10.28412 -10.28409 -10.28407 -10.28405
 Alpha  occ. eigenvalues --  -10.27946 -10.27944 -10.27916 -10.27915 -10.27822
 Alpha  occ. eigenvalues --  -10.27820 -10.27799 -10.27797 -10.27794 -10.27791
 Alpha  occ. eigenvalues --  -10.27761 -10.27758 -10.27635 -10.27632 -10.27545
 Alpha  occ. eigenvalues --  -10.27537 -10.27536 -10.27530 -10.27503 -10.27502
 Alpha  occ. eigenvalues --  -10.27137 -10.27135 -10.27128 -10.27128 -10.27126
 Alpha  occ. eigenvalues --  -10.27124 -10.27086 -10.27083 -10.26897 -10.26896
 Alpha  occ. eigenvalues --  -10.26894 -10.26892 -10.26890 -10.26889 -10.26854
 Alpha  occ. eigenvalues --  -10.26852 -10.26757 -10.26756 -10.26756 -10.26754
 Alpha  occ. eigenvalues --  -10.26741 -10.26735 -10.26734 -10.26719 -10.26717
 Alpha  occ. eigenvalues --  -10.26688 -10.26510 -10.26503 -10.26497 -10.26491
 Alpha  occ. eigenvalues --  -10.26470 -10.26461 -10.26450 -10.26448 -10.26440
 Alpha  occ. eigenvalues --  -10.26440 -10.26439 -10.26434 -10.26427 -10.26421
 Alpha  occ. eigenvalues --  -10.26417 -10.26417 -10.26415 -10.26412 -10.26377
 Alpha  occ. eigenvalues --  -10.26369 -10.26354 -10.26350 -10.26349 -10.26345
 Alpha  occ. eigenvalues --  -10.26318 -10.26302 -10.26299 -10.26288 -10.26285
 Alpha  occ. eigenvalues --  -10.26282 -10.26279 -10.26211 -10.26208 -10.26154
 Alpha  occ. eigenvalues --  -10.26147 -10.26122 -10.26121 -10.26113 -10.26112
 Alpha  occ. eigenvalues --  -10.26026 -10.26013 -10.26011 -10.26005 -10.26001
 Alpha  occ. eigenvalues --  -10.25943 -10.25939 -10.25824 -10.25820 -10.25818
 Alpha  occ. eigenvalues --  -10.25813 -10.25789 -10.25789 -10.25782 -10.25778
 Alpha  occ. eigenvalues --  -10.25772 -10.25767 -10.25535 -10.25526 -10.25523
 Alpha  occ. eigenvalues --  -10.25517 -10.25472 -10.25224  -3.56847  -3.56845
 Alpha  occ. eigenvalues --   -2.24767  -2.24766  -2.24601  -2.24595  -2.20525
 Alpha  occ. eigenvalues --   -2.20525  -1.03196  -1.03196  -1.02584  -1.02582
 Alpha  occ. eigenvalues --   -1.02407  -1.02401  -1.02348  -1.02346  -0.92556
 Alpha  occ. eigenvalues --   -0.92554  -0.92480  -0.92479  -0.92453  -0.92451
 Alpha  occ. eigenvalues --   -0.92427  -0.92424  -0.91196  -0.91083  -0.90843
 Alpha  occ. eigenvalues --   -0.90497  -0.90458  -0.90406  -0.90383  -0.90340
 Alpha  occ. eigenvalues --   -0.90332  -0.90283  -0.90277  -0.90129  -0.85572
 Alpha  occ. eigenvalues --   -0.85496  -0.85489  -0.85473  -0.85426  -0.85407
 Alpha  occ. eigenvalues --   -0.85396  -0.85355  -0.83680  -0.83605  -0.83547
 Alpha  occ. eigenvalues --   -0.83192  -0.82774  -0.82698  -0.82649  -0.82608
 Alpha  occ. eigenvalues --   -0.82508  -0.82375  -0.82340  -0.82300  -0.82158
 Alpha  occ. eigenvalues --   -0.82101  -0.82061  -0.81991  -0.81634  -0.81589
 Alpha  occ. eigenvalues --   -0.81531  -0.81358  -0.80521  -0.80433  -0.80124
 Alpha  occ. eigenvalues --   -0.79950  -0.78816  -0.78811  -0.78752  -0.78748
 Alpha  occ. eigenvalues --   -0.78718  -0.78715  -0.78652  -0.78649  -0.78371
 Alpha  occ. eigenvalues --   -0.78351  -0.78311  -0.78298  -0.78226  -0.78220
 Alpha  occ. eigenvalues --   -0.78175  -0.78162  -0.75211  -0.75165  -0.75075
 Alpha  occ. eigenvalues --   -0.74961  -0.74682  -0.74615  -0.74395  -0.74283
 Alpha  occ. eigenvalues --   -0.70635  -0.70625  -0.70481  -0.70475  -0.70439
 Alpha  occ. eigenvalues --   -0.70433  -0.70409  -0.70398  -0.68944  -0.68942
 Alpha  occ. eigenvalues --   -0.68881  -0.68862  -0.68824  -0.68811  -0.68764
 Alpha  occ. eigenvalues --   -0.68752  -0.67948  -0.67887  -0.67815  -0.67808
 Alpha  occ. eigenvalues --   -0.67800  -0.67760  -0.67742  -0.67689  -0.65686
 Alpha  occ. eigenvalues --   -0.65642  -0.65401  -0.65346  -0.65341  -0.65210
 Alpha  occ. eigenvalues --   -0.65021  -0.64894  -0.64656  -0.64628  -0.64512
 Alpha  occ. eigenvalues --   -0.64507  -0.64462  -0.64450  -0.64316  -0.64313
 Alpha  occ. eigenvalues --   -0.63096  -0.62944  -0.62909  -0.62859  -0.62783
 Alpha  occ. eigenvalues --   -0.62739  -0.62705  -0.62639  -0.59498  -0.59323
 Alpha  occ. eigenvalues --   -0.59060  -0.58961  -0.58414  -0.58409  -0.58055
 Alpha  occ. eigenvalues --   -0.58036  -0.58014  -0.58013  -0.57958  -0.57947
 Alpha  occ. eigenvalues --   -0.57680  -0.57601  -0.57284  -0.57266  -0.57243
 Alpha  occ. eigenvalues --   -0.57233  -0.57179  -0.57174  -0.56942  -0.56772
 Alpha  occ. eigenvalues --   -0.56647  -0.56620  -0.56573  -0.56349  -0.56092
 Alpha  occ. eigenvalues --   -0.56051  -0.55989  -0.55931  -0.55774  -0.55725
 Alpha  occ. eigenvalues --   -0.55320  -0.55306  -0.55304  -0.55284  -0.51911
 Alpha  occ. eigenvalues --   -0.51900  -0.51797  -0.51713  -0.51651  -0.51592
 Alpha  occ. eigenvalues --   -0.51522  -0.51491  -0.51264  -0.51196  -0.50966
 Alpha  occ. eigenvalues --   -0.50956  -0.50856  -0.50709  -0.50698  -0.50671
 Alpha  occ. eigenvalues --   -0.50664  -0.50635  -0.50595  -0.50578  -0.50530
 Alpha  occ. eigenvalues --   -0.50530  -0.50503  -0.50405  -0.50119  -0.50089
 Alpha  occ. eigenvalues --   -0.50048  -0.50018  -0.49961  -0.49952  -0.49949
 Alpha  occ. eigenvalues --   -0.49925  -0.49737  -0.49695  -0.49418  -0.49358
 Alpha  occ. eigenvalues --   -0.49181  -0.49087  -0.49078  -0.49046  -0.49045
 Alpha  occ. eigenvalues --   -0.48928  -0.48785  -0.48759  -0.48400  -0.48342
 Alpha  occ. eigenvalues --   -0.47916  -0.47903  -0.47783  -0.47778  -0.47594
 Alpha  occ. eigenvalues --   -0.47589  -0.47562  -0.47557  -0.47337  -0.47328
 Alpha  occ. eigenvalues --   -0.47112  -0.47090  -0.46843  -0.46787  -0.46677
 Alpha  occ. eigenvalues --   -0.46600  -0.46590  -0.46532  -0.46515  -0.46485
 Alpha  occ. eigenvalues --   -0.46477  -0.46383  -0.46352  -0.45963  -0.45766
 Alpha  occ. eigenvalues --   -0.45743  -0.45683  -0.45659  -0.45656  -0.45597
 Alpha  occ. eigenvalues --   -0.45583  -0.45548  -0.45541  -0.45397  -0.45248
 Alpha  occ. eigenvalues --   -0.45243  -0.45063  -0.45060  -0.44125  -0.44037
 Alpha  occ. eigenvalues --   -0.44036  -0.44022  -0.44021  -0.43344  -0.43341
 Alpha  occ. eigenvalues --   -0.43261  -0.43258  -0.42841  -0.42596  -0.42515
 Alpha  occ. eigenvalues --   -0.42463  -0.42399  -0.42373  -0.42352  -0.42346
 Alpha  occ. eigenvalues --   -0.42167  -0.42144  -0.41934  -0.41927  -0.41829
 Alpha  occ. eigenvalues --   -0.41801  -0.41770  -0.41750  -0.41524  -0.41519
 Alpha  occ. eigenvalues --   -0.41304  -0.41240  -0.41177  -0.41134  -0.40959
 Alpha  occ. eigenvalues --   -0.40937  -0.40678  -0.40660  -0.40632  -0.40621
 Alpha  occ. eigenvalues --   -0.40387  -0.40369  -0.40193  -0.39741  -0.39717
 Alpha  occ. eigenvalues --   -0.39475  -0.39469  -0.39339  -0.39307  -0.39298
 Alpha  occ. eigenvalues --   -0.39199  -0.39027  -0.38793  -0.38509  -0.38453
 Alpha  occ. eigenvalues --   -0.38380  -0.38324  -0.38288  -0.38241  -0.38166
 Alpha  occ. eigenvalues --   -0.38120  -0.38092  -0.37966  -0.37843  -0.37781
 Alpha  occ. eigenvalues --   -0.37769  -0.37744  -0.37629  -0.37620  -0.37543
 Alpha  occ. eigenvalues --   -0.37539  -0.37221  -0.36241  -0.36098  -0.36066
 Alpha  occ. eigenvalues --   -0.36036  -0.35995  -0.35986  -0.35911  -0.35686
 Alpha  occ. eigenvalues --   -0.34979  -0.34949  -0.34929  -0.34885  -0.34865
 Alpha  occ. eigenvalues --   -0.34821  -0.34708  -0.34645  -0.34140  -0.33902
 Alpha  occ. eigenvalues --   -0.33859  -0.33744  -0.33737  -0.33661  -0.33433
 Alpha  occ. eigenvalues --   -0.33352  -0.33318  -0.33264  -0.33208  -0.33122
 Alpha  occ. eigenvalues --   -0.32647  -0.32288  -0.32200  -0.32174  -0.31217
 Alpha  occ. eigenvalues --   -0.31060  -0.31055  -0.30971  -0.30963  -0.30878
 Alpha  occ. eigenvalues --   -0.30875  -0.30391  -0.30388  -0.29504  -0.29502
 Alpha  occ. eigenvalues --   -0.29341  -0.29321  -0.29174  -0.29168  -0.28973
 Alpha  occ. eigenvalues --   -0.28955  -0.28893  -0.28711  -0.28690  -0.28645
 Alpha  occ. eigenvalues --   -0.28162  -0.27994  -0.27954  -0.27881  -0.27847
 Alpha  occ. eigenvalues --   -0.27687  -0.27444  -0.27286  -0.26882  -0.26734
 Alpha  occ. eigenvalues --   -0.26728  -0.26390  -0.26019  -0.25786  -0.25779
 Alpha  occ. eigenvalues --   -0.25682  -0.25538  -0.25366  -0.25348  -0.24869
 Alpha  occ. eigenvalues --   -0.24861  -0.24052
 Alpha virt. eigenvalues --   -0.09501  -0.09495  -0.09343  -0.09334  -0.09333
 Alpha virt. eigenvalues --   -0.09313  -0.09240  -0.09233  -0.07558  -0.07550
 Alpha virt. eigenvalues --   -0.07114  -0.06383  -0.06364  -0.06291  -0.06235

 Mulliken charges:
               1
     1  Pd   0.462856
     2  Pd   0.462350
     3  C   -0.031643
     4  C    0.027132
     5  C   -0.013261
     6  C    0.032265
     7  C   -0.016435
     8  C    0.004065
     9  C   -0.003663
    10  C   -0.065132
    11  C   -0.014880
    12  C   -0.009904
    13  C   -0.098729
    14  C   -0.026170
    15  C    0.032927
    16  C   -0.087540
    17  C    0.022213
    18  C   -0.048165
    19  C    0.022429
    20  C   -0.086988
    21  C    0.032612
    22  C   -0.026203
    23  C   -0.098014
    24  C    0.008254
    25  C   -0.002987
    26  C   -0.065774
    27  C    0.032232
    28  C   -0.012872
    29  C    0.026999
    30  C   -0.031525
    31  C    0.138218
    32  N   -0.332230
    33  C    0.153245
    34  C   -0.003631
    35  C    0.004088
    36  C   -0.016408
    37  C   -0.014673
    38  C   -0.009957
    39  C    0.016131
    40  C    0.008677
    41  C   -0.002945
    42  C    0.153405
    43  N   -0.332378
    44  C    0.138342
    45  H    0.060390
    46  H    0.047271
    47  H    0.060432
    48  H    0.047273
    49  H    0.049707
    50  H    0.042974
    51  H    0.040578
    52  H    0.052024
    53  H    0.040427
    54  H    0.040136
    55  H    0.042481
    56  H    0.060437
    57  H    0.106393
    58  H    0.102643
    59  H    0.047268
    60  H    0.060396
    61  H    0.047288
    62  H    0.049402
    63  H    0.043115
    64  H    0.024914
    65  H    0.040201
    66  H    0.042415
    67  H    0.102884
    68  H    0.106295
    69  C   -0.030145
    70  C    0.031879
    71  C   -0.015179
    72  C    0.035507
    73  C   -0.019115
    74  C    0.004015
    75  C   -0.004751
    76  C   -0.059935
    77  C   -0.030688
    78  C    0.001282
    79  C   -0.092165
    80  C   -0.014581
    81  C    0.005844
    82  C   -0.099598
    83  C    0.015002
    84  C   -0.035700
    85  C    0.014844
    86  C   -0.100019
    87  C    0.006488
    88  C   -0.015211
    89  C   -0.091560
    90  C    0.010179
    91  C   -0.002623
    92  C   -0.058678
    93  C    0.036044
    94  C   -0.015081
    95  C    0.031848
    96  C   -0.029893
    97  C    0.133955
    98  N   -0.332455
    99  C    0.147822
   100  C   -0.004861
   101  C    0.004120
   102  C   -0.019562
   103  C   -0.031213
   104  C    0.001179
   105  C    0.047475
   106  C    0.010389
   107  C   -0.001869
   108  C    0.148203
   109  N   -0.332760
   110  C    0.134227
   111  H    0.060136
   112  H    0.046438
   113  H    0.060441
   114  H    0.047058
   115  H    0.053048
   116  H    0.041796
   117  H    0.041574
   118  H    0.058898
   119  H    0.041410
   120  H    0.041166
   121  H    0.042119
   122  H    0.060143
   123  H    0.106920
   124  H    0.112134
   125  H    0.047067
   126  H    0.060412
   127  H    0.046558
   128  H    0.053137
   129  H    0.042035
   130  H    0.034345
   131  H    0.041104
   132  H    0.042068
   133  H    0.112433
   134  H    0.106869
   135  C   -0.030569
   136  C    0.030034
   137  C   -0.024980
   138  C    0.052988
   139  C   -0.021160
   140  C    0.002968
   141  C   -0.005286
   142  C   -0.059134
   143  C   -0.028760
   144  C    0.010800
   145  C   -0.079415
   146  C   -0.035722
   147  C    0.019467
   148  C   -0.061521
   149  C    0.010244
   150  C    0.000940
   151  C    0.010097
   152  C   -0.061838
   153  C    0.020036
   154  C   -0.036136
   155  C   -0.079333
   156  C   -0.002531
   157  C   -0.003409
   158  C   -0.058425
   159  C    0.052810
   160  C   -0.024155
   161  C    0.029728
   162  C   -0.030732
   163  C    0.132184
   164  N   -0.328560
   165  C    0.142041
   166  C   -0.005157
   167  C    0.002985
   168  C   -0.021398
   169  C   -0.028488
   170  C    0.010592
   171  C    0.023495
   172  C   -0.002493
   173  C   -0.002969
   174  C    0.142201
   175  N   -0.328624
   176  C    0.131958
   177  H    0.060488
   178  H    0.046255
   179  H    0.060332
   180  H    0.046955
   181  H    0.048526
   182  H    0.025000
   183  H    0.029851
   184  H    0.034667
   185  H    0.030383
   186  H    0.040035
   187  H    0.041243
   188  H    0.060355
   189  H    0.100938
   190  H    0.119108
   191  H    0.046945
   192  H    0.060388
   193  H    0.046296
   194  H    0.048528
   195  H    0.024748
   196  H    0.028331
   197  H    0.040103
   198  H    0.041219
   199  H    0.119744
   200  H    0.100992
   201  C   -0.031358
   202  C    0.029374
   203  C   -0.018170
   204  C    0.043875
   205  C   -0.026821
   206  C    0.005939
   207  C   -0.005855
   208  C   -0.030194
   209  C   -0.037154
   210  C    0.013733
   211  C   -0.102329
   212  C   -0.039343
   213  C    0.033702
   214  C   -0.079803
   215  C    0.017915
   216  C   -0.032910
   217  C    0.017517
   218  C   -0.079582
   219  C    0.033496
   220  C   -0.039006
   221  C   -0.102156
   222  C    0.014342
   223  C   -0.017431
   224  C   -0.029704
   225  C    0.043702
   226  C   -0.017854
   227  C    0.029441
   228  C   -0.031374
   229  C    0.138721
   230  N   -0.327926
   231  C    0.140433
   232  C   -0.005809
   233  C    0.005993
   234  C   -0.026968
   235  C   -0.036534
   236  C    0.013352
   237  C    0.036847
   238  C    0.014466
   239  C   -0.016988
   240  C    0.141025
   241  N   -0.328483
   242  C    0.138646
   243  H    0.060214
   244  H    0.047971
   245  H    0.059867
   246  H    0.047136
   247  H    0.051798
   248  H    0.028725
   249  H    0.034801
   250  H    0.046281
   251  H    0.034736
   252  H    0.039030
   253  H    0.041787
   254  H    0.060133
   255  H    0.106832
   256  H    0.104557
   257  H    0.047084
   258  H    0.059827
   259  H    0.047964
   260  H    0.051506
   261  H    0.029209
   262  H    0.027096
   263  H    0.039095
   264  H    0.041852
   265  H    0.104960
   266  H    0.106930
 Sum of Mulliken charges =   4.00000

 Dipole moment (field-independent basis, Debye):
    X=              0.0322    Y=              2.2056    Z=              4.8994  Tot=              5.3730
 Quadrupole moment (field-independent basis, Debye-Ang):
   XX=           1161.3935   YY=           -666.4897   ZZ=           -753.5125
   XY=              0.4105   XZ=              0.1216   YZ=              8.6282

 Normal termination of Gaussian 16 at Fri Jun  2 08:35:52 2023.
