 Gaussian 16, Revision C.01,
 Gaussian 16:  ES64L-G16RevC.01  3-Jul-2019

 ------------------------------------------------------------------
 # SP PBE1PBE/def2svp empiricaldispersion=GD3BJ scrf=(solvent=dmso)
 ------------------------------------------------------------------

 ---------
 cis_l2_lb
 ---------
 Symbolic Z-matrix:
 Charge =  4 Multiplicity = 1

                         Standard orientation:
 ---------------------------------------------------------------------
 Center     Atomic      Atomic             Coordinates (Angstroms)
 Number     Number       Type             X           Y           Z
 ---------------------------------------------------------------------
      1         46           0        6.101005   -2.335490   -0.275104
      2         46           0       -6.075195   -2.450716   -0.168004
      3          6           0       -0.000090   -4.907503   -5.630404
      4          6           0       -1.210890   -4.549905   -5.041804
      5          6           0       -1.223292   -3.740705   -3.897804
      6          6           0       -0.006993   -3.304903   -3.361504
      7          6           0        1.214208   -3.687200   -3.927204
      8          6           0        1.207610   -4.493300   -5.073904
      9          6           0        2.467507   -3.288097   -3.257404
     10          6           0        2.587604   -2.040697   -2.628104
     11          6           0        3.716804   -1.754095   -1.881704
     12          7           0        4.716806   -2.636593   -1.739404
     13          6           0        4.656908   -3.806393   -2.391604
     14          6           0        3.559509   -4.161295   -3.160504
     15          6           0       -2.476093   -3.384708   -3.203004
     16          6           0       -2.644596   -2.118709   -2.625004
     17          6           0       -3.768096   -1.857711   -1.861304
     18          7           0       -4.714494   -2.784713   -1.649304
     19          6           0       -4.607692   -3.979613   -2.247304
     20          6           0       -3.514691   -4.310010   -3.034104
     21          1           0        0.002412   -5.521203   -6.533404
     22          1           0       -2.150990   -4.887507   -5.483404
     23          1           0       -0.009694   -2.717903   -2.440704
     24          1           0        2.149410   -4.786898   -5.542404
     25          1           0        1.800503   -1.289799   -2.704504
     26          1           0        3.819602   -0.799195   -1.361304
     27          1           0        5.501610   -4.486091   -2.260504
     28          1           0        3.540411   -5.145195   -3.630704
     29          1           0       -1.900497   -1.332507   -2.757204
     30          1           0       -3.909498   -0.885311   -1.384104
     31          1           0       -5.408490   -4.697715   -2.059604
     32          1           0       -3.454689   -5.311110   -3.463004
     33          6           0        0.083014   -6.653503    3.953196
     34          6           0       -1.134187   -6.094505    3.570996
     35          6           0       -1.159089   -4.939505    2.777196
     36          6           0        0.053209   -4.363103    2.383696
     37          6           0        1.279510   -4.933600    2.740696
     38          6           0        1.285513   -6.089900    3.532396
     39          6           0        2.522009   -4.329697    2.221096
     40          6           0        2.647706   -2.938997    2.098096
     41          6           0        3.762105   -2.402495    1.479196
     42          7           0        4.741907   -3.174693    0.986496
     43          6           0        4.676910   -4.503293    1.153696
     44          6           0        3.593811   -5.111695    1.769996
     45          6           0       -2.420291   -4.348608    2.288296
     46          6           0       -2.556294   -2.961508    2.134896
     47          6           0       -3.690595   -2.443911    1.535596
     48          7           0       -4.681693   -3.232013    1.093296
     49          6           0       -4.607690   -4.555313    1.295996
     50          6           0       -3.503689   -5.144610    1.892596
     51          1           0        0.094716   -7.543203    4.585896
     52          1           0       -2.068886   -6.550407    3.904496
     53          1           0        0.042007   -3.492403    1.725196
     54          1           0        2.232814   -6.541598    3.834896
     55          1           0        1.876605   -2.265499    2.473396
     56          1           0        3.865603   -1.323194    1.351396
     57          1           0        5.503411   -5.092491    0.751096
     58          1           0        3.568813   -6.199795    1.841096
     59          1           0       -1.777095   -2.275707    2.468896
     60          1           0       -3.800797   -1.368311    1.381796
     61          1           0       -5.445389   -5.157015    0.937596
     62          1           0       -3.473387   -6.230410    1.989996
     63          6           0        9.419405   -2.496582    2.399296
     64          6           0        8.480106   -2.799884    1.449696
     65          7           0        7.418804   -1.979987    1.218096
     66          6           0        7.279002   -0.860887    1.903696
     67          6           0        8.206501   -0.439985    2.877696
     68          6           0        8.041698    0.784215    3.598996
     69          6           0        6.903196    1.684012    3.303496
     70          6           0        6.700695    2.206212    2.015996
     71          6           0        5.597193    3.001809    1.736196
     72          6           0        4.660693    3.295007    2.742696
     73          6           0        3.496291    4.071705    2.464896
     74          6           0        2.478890    4.710503    2.267196
     75          6           0        1.276988    5.472100    2.080796
     76          7           0        0.119389    4.810097    2.183096
     77          6           0       -1.020312    5.498595    2.045596
     78          6           0       -2.241111    4.764392    2.185496
     79          6           0       -3.277109    4.143090    2.340596
     80          6           0       -4.453608    3.375388    2.571596
     81          6           0       -5.736309    3.909085    2.353096
     82          6           0       -6.869307    3.148182    2.616396
     83          6           0       -6.757104    1.836183    3.098096
     84          6           0       -7.956002    1.022880    3.400696
     85          6           0       -8.941403    1.485078    4.252096
     86          6           0      -10.041802    0.673875    4.610896
     87          6           0      -10.167699   -0.610825    4.132896
     88          6           0       -9.203198   -1.117423    3.230196
     89          6           0       -9.272095   -2.417223    2.666996
     90          6           0       -8.336994   -2.823221    1.751496
     91          7           0       -7.342996   -1.989119    1.340496
     92          6           0       -7.231799   -0.781219    1.860596
     93          6           0       -8.109100   -0.286620    2.845196
     94          6           0       -5.474203    1.305785    3.315196
     95          6           0       -4.339305    2.059188    3.056696
     96          6           0       -1.049315    6.882395    1.800596
     97          6           0        0.158483    7.560598    1.697896
     98          6           0        1.346985    6.852800    1.834396
     99          6           0        4.877694    2.797108    4.039596
    100          6           0        5.986695    2.007210    4.313096
    101          6           0        8.954497    1.082717    4.591896
    102          6           0       10.044199    0.226819    4.870296
    103          6           0       10.233302   -0.938681    4.163596
    104          6           0        9.311203   -1.300683    3.153196
    105          1           0       10.251007   -3.180981    2.573996
    106          1           0        8.533908   -3.709084    0.848896
    107          1           0        6.395000   -0.258089    1.688296
    108          1           0        7.420595    1.993813    1.221596
    109          1           0        5.452792    3.398909    0.730296
    110          1           0       -5.837411    4.926985    1.973096
    111          1           0       -7.859008    3.571680    2.431496
    112          1           0       -8.848706    2.482878    4.686196
    113          1           0      -10.790003    1.073074    5.298996
    114          1           0      -11.005298   -1.243227    4.433496
    115          1           0      -10.076893   -3.096025    2.953396
    116          1           0       -8.357792   -3.815821    1.299996
    117          1           0       -6.435400   -0.144417    1.473896
    118          1           0       -5.364601    0.294986    3.715396
    119          1           0       -3.349304    1.638490    3.241596
    120          1           0       -2.003916    7.399493    1.697296
    121          1           0        0.174181    8.635598    1.509796
    122          1           0        2.316484    7.346202    1.756096
    123          1           0        4.160093    3.024806    4.829796
    124          1           0        6.131996    1.608111    5.319396
    125          1           0        8.843695    2.009916    5.158196
    126          1           0       10.750099    0.507321    5.654996
    127          1           0       11.081503   -1.592779    4.374496
    128          6           0        9.381703   -1.453082   -2.832004
    129          6           0        8.430004   -2.092184   -2.084704
    130          7           0        7.387703   -1.411087   -1.535204
    131          6           0        7.246200   -0.116287   -1.753204
    132          6           0        8.138998    0.626215   -2.554704
    133          6           0        7.962095    2.024614   -2.809404
    134          6           0        6.738494    2.755612   -2.412404
    135          6           0        5.461995    2.244509   -2.703004
    136          6           0        4.318493    2.979807   -2.425304
    137          6           0        4.415491    4.264007   -1.858304
    138          6           0        3.239289    5.041104   -1.657304
    139          6           0        2.212987    5.689802   -1.561004
    140          6           0        0.995886    6.443599   -1.527704
    141          7           0       -0.142613    5.741897   -1.493904
    142          6           0       -1.301614    6.410494   -1.505604
    143          6           0       -2.496712    5.621792   -1.519504
    144          6           0       -3.505311    4.944090   -1.599404
    145          6           0       -4.661809    4.132987   -1.781404
    146          6           0       -4.547207    2.894587   -2.439904
    147          6           0       -5.675205    2.131085   -2.703404
    148          6           0       -6.950706    2.571282   -2.311704
    149          6           0       -8.161404    1.804579   -2.679904
    150          6           0       -9.213006    2.434877   -3.320404
    151          6           0      -10.345104    1.717575   -3.764804
    152          6           0      -10.438601    0.356875   -3.584704
    153          6           0       -9.404900   -0.329923   -2.906004
    154          6           0       -9.445396   -1.724423   -2.655504
    155          6           0       -8.445495   -2.323721   -1.937904
    156          7           0       -7.408797   -1.601919   -1.431004
    157          6           0       -7.320700   -0.305519   -1.666004
    158          6           0       -8.272801    0.399579   -2.430704
    159          6           0       -7.058108    3.793082   -1.630304
    160          6           0       -5.934110    4.565684   -1.367804
    161          6           0       -1.372217    7.813794   -1.544404
    162          6           0       -0.184019    8.533897   -1.578304
    163          6           0        1.024883    7.848499   -1.569404
    164          6           0        5.690189    4.772110   -1.548504
    165          6           0        6.829191    4.025012   -1.819704
    166          6           0        8.961994    2.688317   -3.498704
    167          6           0       10.104395    2.014719   -3.981504
    168          6           0       10.258198    0.660419   -3.797004
    169          6           0        9.278300   -0.060783   -3.075704
    170          1           0       10.223804   -2.018581   -3.233904
    171          1           0        8.473507   -3.162784   -1.880504
    172          1           0        6.407799    0.379411   -1.260804
    173          1           0        5.360297    1.275209   -3.196204
    174          1           0        3.336194    2.576204   -2.677004
    175          1           0       -3.565706    2.551089   -2.771404
    176          1           0       -5.566603    1.197785   -3.260804
    177          1           0       -9.148908    3.506277   -3.521604
    178          1           0      -11.144505    2.255473   -4.278804
    179          1           0      -11.302200   -0.201527   -3.950904
    180          1           0      -10.279895   -2.323625   -3.023104
    181          1           0       -8.444893   -3.393121   -1.723404
    182          1           0       -6.481001    0.225783   -1.213404
    183          1           0       -8.039709    4.141780   -1.302104
    184          1           0       -6.035512    5.519384   -0.846904
    185          1           0       -2.342118    8.312492   -1.553104
    186          1           0       -0.199921    9.625197   -1.611004
    187          1           0        1.979482    8.375101   -1.596504
    188          1           0        5.779987    5.761410   -1.096404
    189          1           0        7.810390    4.432614   -1.567304
    190          1           0        8.845492    3.753016   -3.711304
    191          1           0       10.860294    2.580221   -4.530604
    192          1           0       11.126999    0.132421   -4.194304
 ---------------------------------------------------------------------

 SCF Done:  E(RPBE1PBE) =  -5027.95448104     A.U. after   22 cycles

 The electronic state is 1-A.
 Alpha  occ. eigenvalues --  -14.48299 -14.48298 -14.48292 -14.48281 -14.48280
 Alpha  occ. eigenvalues --  -14.48263 -14.48262 -14.48243 -14.41282 -14.41153
 Alpha  occ. eigenvalues --  -10.32288 -10.32282 -10.32173 -10.32139 -10.31910
 Alpha  occ. eigenvalues --  -10.31897 -10.31890 -10.31885 -10.31883 -10.31872
 Alpha  occ. eigenvalues --  -10.31870 -10.31863 -10.31478 -10.31461 -10.31295
 Alpha  occ. eigenvalues --  -10.31288 -10.30884 -10.30884 -10.30880 -10.30868
 Alpha  occ. eigenvalues --  -10.30357 -10.30347 -10.30346 -10.30331 -10.29056
 Alpha  occ. eigenvalues --  -10.29039 -10.29022 -10.29009 -10.28965 -10.28903
 Alpha  occ. eigenvalues --  -10.28796 -10.28793 -10.28781 -10.28645 -10.28618
 Alpha  occ. eigenvalues --  -10.28591 -10.28570 -10.28515 -10.28509 -10.28459
 Alpha  occ. eigenvalues --  -10.28283 -10.28267 -10.28263 -10.28260 -10.28236
 Alpha  occ. eigenvalues --  -10.28235 -10.28212 -10.28202 -10.28091 -10.28082
 Alpha  occ. eigenvalues --  -10.28082 -10.28073 -10.27907 -10.27823 -10.27819
 Alpha  occ. eigenvalues --  -10.27817 -10.27815 -10.27743 -10.27691 -10.27550
 Alpha  occ. eigenvalues --  -10.27312 -10.27285 -10.27284 -10.27217 -10.27133
 Alpha  occ. eigenvalues --  -10.27121 -10.27117 -10.27109 -10.26989 -10.26984
 Alpha  occ. eigenvalues --  -10.26983 -10.26977 -10.26949 -10.26925 -10.26921
 Alpha  occ. eigenvalues --  -10.26875 -10.26826 -10.26806 -10.26789 -10.26772
 Alpha  occ. eigenvalues --  -10.26771 -10.26758 -10.26755 -10.26749 -10.26749
 Alpha  occ. eigenvalues --  -10.26719 -10.26642 -10.26625 -10.26593 -10.26584
 Alpha  occ. eigenvalues --  -10.26578 -10.26505 -10.26492 -10.26491 -10.26491
 Alpha  occ. eigenvalues --  -10.26455 -10.26453 -10.26446 -10.26424 -10.26374
 Alpha  occ. eigenvalues --  -10.26372 -10.26360 -10.26342 -10.26279 -10.26272
 Alpha  occ. eigenvalues --  -10.26227 -10.25933 -10.25821 -10.25777 -10.25773
 Alpha  occ. eigenvalues --   -3.56811  -3.56780  -2.24774  -2.24741  -2.24500
 Alpha  occ. eigenvalues --   -2.24478  -2.20517  -2.20476  -1.03321  -1.03312
 Alpha  occ. eigenvalues --   -1.02771  -1.02743  -1.02607  -1.02601  -1.02485
 Alpha  occ. eigenvalues --   -1.02479  -0.99727  -0.99474  -0.92602  -0.92568
 Alpha  occ. eigenvalues --   -0.92517  -0.92477  -0.92449  -0.92426  -0.90588
 Alpha  occ. eigenvalues --   -0.90502  -0.90444  -0.90388  -0.88861  -0.88746
 Alpha  occ. eigenvalues --   -0.86329  -0.86204  -0.85715  -0.85587  -0.85528
 Alpha  occ. eigenvalues --   -0.85433  -0.84598  -0.84453  -0.84349  -0.84119
 Alpha  occ. eigenvalues --   -0.82818  -0.82791  -0.82776  -0.82701  -0.82572
 Alpha  occ. eigenvalues --   -0.82560  -0.82532  -0.82464  -0.82193  -0.82013
 Alpha  occ. eigenvalues --   -0.81921  -0.81715  -0.79510  -0.79470  -0.79422
 Alpha  occ. eigenvalues --   -0.79391  -0.79353  -0.79323  -0.79003  -0.78901
 Alpha  occ. eigenvalues --   -0.78809  -0.78747  -0.78534  -0.78424  -0.76408
 Alpha  occ. eigenvalues --   -0.76294  -0.74931  -0.74793  -0.70727  -0.70710
 Alpha  occ. eigenvalues --   -0.70647  -0.70545  -0.70532  -0.70424  -0.70337
 Alpha  occ. eigenvalues --   -0.70331  -0.69592  -0.69389  -0.69347  -0.69251
 Alpha  occ. eigenvalues --   -0.69129  -0.69118  -0.69019  -0.68882  -0.68461
 Alpha  occ. eigenvalues --   -0.68428  -0.68342  -0.68312  -0.66876  -0.66776
 Alpha  occ. eigenvalues --   -0.66652  -0.66530  -0.64686  -0.64662  -0.64550
 Alpha  occ. eigenvalues --   -0.64540  -0.64189  -0.64116  -0.63294  -0.63186
 Alpha  occ. eigenvalues --   -0.63105  -0.63062  -0.62994  -0.62882  -0.60351
 Alpha  occ. eigenvalues --   -0.59856  -0.59835  -0.59709  -0.58525  -0.58203
 Alpha  occ. eigenvalues --   -0.58138  -0.58028  -0.57989  -0.57509  -0.57467
 Alpha  occ. eigenvalues --   -0.57265  -0.57128  -0.57110  -0.57040  -0.56921
 Alpha  occ. eigenvalues --   -0.56436  -0.56298  -0.55984  -0.55889  -0.55850
 Alpha  occ. eigenvalues --   -0.55736  -0.55566  -0.55467  -0.54958  -0.54833
 Alpha  occ. eigenvalues --   -0.54252  -0.54084  -0.53960  -0.53857  -0.52291
 Alpha  occ. eigenvalues --   -0.52099  -0.51882  -0.51779  -0.51642  -0.51603
 Alpha  occ. eigenvalues --   -0.51435  -0.51409  -0.51189  -0.51024  -0.51012
 Alpha  occ. eigenvalues --   -0.50863  -0.50717  -0.50677  -0.50571  -0.50526
 Alpha  occ. eigenvalues --   -0.50149  -0.50116  -0.50008  -0.49969  -0.49851
 Alpha  occ. eigenvalues --   -0.49745  -0.49619  -0.49434  -0.49379  -0.49294
 Alpha  occ. eigenvalues --   -0.49170  -0.49140  -0.49049  -0.48984  -0.48637
 Alpha  occ. eigenvalues --   -0.48494  -0.48315  -0.48251  -0.48198  -0.47954
 Alpha  occ. eigenvalues --   -0.47781  -0.47714  -0.47644  -0.47586  -0.47419
 Alpha  occ. eigenvalues --   -0.47111  -0.46888  -0.46829  -0.46788  -0.46732
 Alpha  occ. eigenvalues --   -0.46631  -0.46610  -0.46520  -0.46391  -0.46374
 Alpha  occ. eigenvalues --   -0.46021  -0.45847  -0.45750  -0.45744  -0.45568
 Alpha  occ. eigenvalues --   -0.45464  -0.44600  -0.44575  -0.44485  -0.44317
 Alpha  occ. eigenvalues --   -0.44258  -0.43937  -0.43869  -0.43209  -0.43126
 Alpha  occ. eigenvalues --   -0.43109  -0.43089  -0.42828  -0.42713  -0.42593
 Alpha  occ. eigenvalues --   -0.42513  -0.42248  -0.42159  -0.42018  -0.41953
 Alpha  occ. eigenvalues --   -0.41897  -0.41842  -0.41773  -0.41683  -0.41659
 Alpha  occ. eigenvalues --   -0.41540  -0.41487  -0.41419  -0.41243  -0.41132
 Alpha  occ. eigenvalues --   -0.40764  -0.40607  -0.40247  -0.40203  -0.40026
 Alpha  occ. eigenvalues --   -0.39943  -0.39108  -0.39051  -0.38618  -0.38484
 Alpha  occ. eigenvalues --   -0.38405  -0.38357  -0.38270  -0.38151  -0.38087
 Alpha  occ. eigenvalues --   -0.37891  -0.37772  -0.37757  -0.37696  -0.37541
 Alpha  occ. eigenvalues --   -0.37183  -0.36635  -0.36406  -0.36172  -0.36101
 Alpha  occ. eigenvalues --   -0.35898  -0.35631  -0.35511  -0.35014  -0.34827
 Alpha  occ. eigenvalues --   -0.34485  -0.34300  -0.34212  -0.33992  -0.33820
 Alpha  occ. eigenvalues --   -0.33708  -0.33519  -0.33332  -0.33304  -0.33199
 Alpha  occ. eigenvalues --   -0.33189  -0.32881  -0.32449  -0.32186  -0.32168
 Alpha  occ. eigenvalues --   -0.31804  -0.31367  -0.31336  -0.31025  -0.31015
 Alpha  occ. eigenvalues --   -0.30974  -0.30747  -0.30693  -0.30661  -0.29986
 Alpha  occ. eigenvalues --   -0.29914  -0.29855  -0.29725  -0.29608  -0.29173
 Alpha  occ. eigenvalues --   -0.29095  -0.29019  -0.28999  -0.28836  -0.28626
 Alpha  occ. eigenvalues --   -0.28593  -0.28281  -0.28240  -0.28130  -0.27928
 Alpha  occ. eigenvalues --   -0.27334  -0.26835  -0.25666  -0.25496  -0.24800
 Alpha  occ. eigenvalues --   -0.24111
 Alpha virt. eigenvalues --   -0.09843  -0.09773  -0.09329  -0.09208  -0.09154
 Alpha virt. eigenvalues --   -0.08981  -0.08810  -0.08709  -0.07957  -0.07586
 Alpha virt. eigenvalues --   -0.07466  -0.07099  -0.06921  -0.06514  -0.06358

 Mulliken charges:
               1
     1  Pd   0.505568
     2  Pd   0.504287
     3  C   -0.022951
     4  C   -0.009227
     5  C    0.010574
     6  C   -0.033053
     7  C    0.014668
     8  C   -0.012346
     9  C    0.059005
    10  C   -0.049181
    11  C    0.147167
    12  N   -0.319431
    13  C    0.151250
    14  C   -0.039321
    15  C    0.054358
    16  C   -0.045065
    17  C    0.144794
    18  N   -0.319394
    19  C    0.151331
    20  C   -0.036605
    21  H    0.054657
    22  H    0.050096
    23  H    0.047748
    24  H    0.050223
    25  H    0.067995
    26  H    0.100330
    27  H    0.107121
    28  H    0.067851
    29  H    0.067801
    30  H    0.101922
    31  H    0.105669
    32  H    0.067940
    33  C   -0.022943
    34  C   -0.012098
    35  C    0.015519
    36  C   -0.035896
    37  C    0.013162
    38  C   -0.010166
    39  C    0.057222
    40  C   -0.047382
    41  C    0.144760
    42  N   -0.319026
    43  C    0.151329
    44  C   -0.037846
    45  C    0.059691
    46  C   -0.049422
    47  C    0.148734
    48  N   -0.318866
    49  C    0.151055
    50  C   -0.039845
    51  H    0.054587
    52  H    0.050148
    53  H    0.048379
    54  H    0.050056
    55  H    0.068172
    56  H    0.103556
    57  H    0.107151
    58  H    0.067673
    59  H    0.068047
    60  H    0.100308
    61  H    0.106586
    62  H    0.067850
    63  C   -0.034066
    64  C    0.138838
    65  N   -0.316495
    66  C    0.145760
    67  C   -0.015327
    68  C    0.039927
    69  C   -0.057922
    70  C   -0.036388
    71  C    0.007978
    72  C   -0.070769
    73  C   -0.038894
    74  C    0.044634
    75  C   -0.060017
    76  N   -0.186940
    77  C   -0.061182
    78  C    0.052392
    79  C   -0.039814
    80  C   -0.082013
    81  C    0.016580
    82  C   -0.009492
    83  C   -0.052027
    84  C    0.050674
    85  C   -0.023111
    86  C    0.003186
    87  C   -0.005056
    88  C    0.030266
    89  C   -0.033274
    90  C    0.139059
    91  N   -0.317601
    92  C    0.138040
    93  C   -0.022938
    94  C   -0.038509
    95  C    0.006465
    96  C    0.025532
    97  C    0.031087
    98  C    0.020788
    99  C    0.002432
   100  C    0.001290
   101  C   -0.024104
   102  C    0.003583
   103  C   -0.005304
   104  C    0.031274
   105  H    0.060247
   106  H    0.095673
   107  H    0.107635
   108  H    0.048042
   109  H    0.042475
   110  H    0.041904
   111  H    0.042345
   112  H    0.046964
   113  H    0.060447
   114  H    0.047098
   115  H    0.060350
   116  H    0.097031
   117  H    0.110442
   118  H    0.052875
   119  H    0.041569
   120  H    0.048553
   121  H    0.061657
   122  H    0.048006
   123  H    0.041711
   124  H    0.042532
   125  H    0.046261
   126  H    0.060306
   127  H    0.046876
   128  C   -0.031643
   129  C    0.138967
   130  N   -0.316413
   131  C    0.138073
   132  C   -0.020725
   133  C    0.057806
   134  C   -0.027222
   135  C   -0.037038
   136  C    0.010093
   137  C   -0.091151
   138  C   -0.001271
   139  C    0.033117
   140  C   -0.061132
   141  N   -0.186446
   142  C   -0.053566
   143  C    0.057524
   144  C   -0.038012
   145  C   -0.084448
   146  C    0.006238
   147  C   -0.038587
   148  C   -0.037327
   149  C    0.052475
   150  C   -0.027513
   151  C    0.004922
   152  C   -0.005078
   153  C    0.028210
   154  C   -0.031623
   155  C    0.138870
   156  N   -0.315836
   157  C    0.135874
   158  C   -0.021544
   159  C   -0.019498
   160  C    0.013902
   161  C    0.015490
   162  C    0.032509
   163  C    0.014453
   164  C   -0.005956
   165  C   -0.023245
   166  C   -0.031254
   167  C    0.005510
   168  C   -0.004296
   169  C    0.025906
   170  H    0.060609
   171  H    0.096225
   172  H    0.100332
   173  H    0.054502
   174  H    0.041858
   175  H    0.041555
   176  H    0.053167
   177  H    0.048556
   178  H    0.060225
   179  H    0.047355
   180  H    0.060553
   181  H    0.099574
   182  H    0.102419
   183  H    0.043605
   184  H    0.044918
   185  H    0.049247
   186  H    0.062057
   187  H    0.048955
   188  H    0.045504
   189  H    0.046332
   190  H    0.049721
   191  H    0.060248
   192  H    0.047554
 Sum of Mulliken charges =   4.00000

 Dipole moment (field-independent basis, Debye):
    X=             -0.1202    Y=            -34.4510    Z=             -4.5317  Tot=             34.7480
 Quadrupole moment (field-independent basis, Debye-Ang):
   XX=            254.3664   YY=           -370.4219   ZZ=           -558.6852
   XY=             -4.4340   XZ=             -7.3917   YZ=              2.2289

 Normal termination of Gaussian 16 at Fri Jun  2 06:25:59 2023.
