                         Program Version 4.2.1 -  RELEASE  -
|  1> ! DFT SP B97-3c TightSCF printbasis  Grid6 NOFINALGRID SlowConv
|  2>
|  3> %base "_s_3d1_c_B97-3c"
|  4> %maxcore 3000
|  5> %scf
|  6>    MaxIter 2000
|  7> end
|  8> %pal
|  9>    nprocs 32
| 10> end
| 11>
| 12> * xyzfile 4 1 s_3d1_c.xyz
| 13>
| 14>                          ****END OF INPUT****

CARTESIAN COORDINATES (ANGSTROEM)
---------------------------------
  Pd    -0.209000    2.922200    0.110900
  Pd    -0.731000   -6.722600    0.211200
  C      4.360200   -2.952500    0.028600
  C      3.845900   -4.036900    0.168900
  C      3.239700   -5.300000    0.320300
  C      3.994100   -6.454400    0.570300
  C      3.341100   -7.666500    0.707900
  C      1.960300   -7.710600    0.592900
  N      1.245800   -6.608900    0.348100
  C      1.853000   -5.430600    0.214600
  H      5.067600   -6.389000    0.655400
  H      3.894900   -8.570400    0.903500
  H      1.405700   -8.639300    0.701500
  H      1.217900   -4.570100    0.011200
  C      4.919800   -1.674000   -0.182000
  C      6.193700   -1.545500   -0.740500
  C      6.702200   -0.284200   -0.989600
  C      5.960300    0.846200   -0.691600
  C      4.690500    0.732100   -0.120300
  C      4.178200   -0.536400    0.136700
  H      6.769000   -2.425700   -0.982200
  H      7.683200   -0.178500   -1.427100
  H      6.364000    1.817600   -0.930000
  H      3.219200   -0.660800    0.613800
  C      3.901100    1.940200    0.168000
  C      4.503400    3.143900    0.550400
  C      3.722500    4.269600    0.751500
  C      2.350700    4.178400    0.586500
  N      1.769700    3.024300    0.252600
  C      2.512800    1.936700    0.042600
  H      5.570600    3.194100    0.698800
  H      4.172500    5.207100    1.035500
  H      1.698100    5.036700    0.724100
  H      1.974600    1.040200   -0.258100
  C     -0.315300   -2.756500    5.066500
  C     -0.495800   -3.876600    4.650400
  C     -0.668400   -5.169900    4.118900
  C     -0.773300   -6.306000    4.933000
  C     -0.912000   -7.547400    4.337400
  C     -0.934900   -7.640600    2.953700
  N     -0.835500   -6.555200    2.182600
  C     -0.712000   -5.348600    2.734400
  H     -0.743600   -6.205400    6.006700
  H     -0.996400   -8.438400    4.938300
  H     -1.037500   -8.594500    2.443300
  H     -0.636400   -4.498700    2.056700
  C     -0.059800   -1.447500    5.527200
  C      0.501800   -1.244300    6.790300
  C      0.790800    0.041500    7.207800
  C      0.524200    1.124300    6.387100
  C     -0.047900    0.935200    5.126700
  C     -0.338300   -0.357400    4.701800
  H      0.712700   -2.088000    7.428800
  H      1.231200    0.203700    8.179700
  H      0.785800    2.116100    6.720900
  H     -0.812900   -0.531700    3.749300
  C     -0.323000    2.096300    4.265100
  C     -0.747900    3.316100    4.802300
  C     -0.960100    4.399100    3.966200
  C     -0.759200    4.247000    2.605300
  N     -0.375000    3.078000    2.086800
  C     -0.156500    2.030400    2.882700
  H     -0.922500    3.409000    5.862700
  H     -1.281000    5.347900    4.364700
  H     -0.908300    5.068900    1.908600
  H      0.183800    1.121100    2.392200
  C     -5.298700   -0.847000    0.308800
  C     -4.785300    0.236700    0.159500
  C     -4.179200    1.498800   -0.000700
  C     -4.933300    2.651500   -0.259200
  C     -4.280000    3.862600   -0.404300
  C     -2.899400    3.907500   -0.287600
  N     -2.185200    2.807300   -0.035000
  C     -2.792600    1.630000    0.105200
  H     -6.006700    2.585500   -0.344900
  H     -4.833600    4.765200   -0.606400
  H     -2.344600    4.835500   -0.401100
  H     -2.157700    0.770600    0.314200
  C     -5.856300   -2.124600    0.530000
  C     -7.124000   -2.251000    1.103100
  C     -7.629700   -3.511300    1.362300
  C     -6.891100   -4.642900    1.060300
  C     -5.627600   -4.530900    0.474700
  C     -5.118200   -3.263400    0.207400
  H     -7.696500   -1.369900    1.347800
  H     -8.605800   -3.615400    1.811100
  H     -7.292000   -5.613500    1.306700
  H     -4.164600   -3.140800   -0.280800
  C     -4.841200   -5.739900    0.182600
  C     -5.447000   -6.945000   -0.189500
  C     -4.667800   -8.071200   -0.394600
  C     -3.294500   -7.979300   -0.243100
  N     -2.710500   -6.824100    0.081400
  C     -3.451700   -5.735800    0.294500
  H     -6.515600   -6.995900   -0.327000
  H     -5.120400   -9.009700   -0.671100
  H     -2.643100   -8.837900   -0.384200
  H     -2.910700   -4.838000    0.586500
  C     -0.634000   -1.042200   -4.743200
  C     -0.446100    0.076900   -4.327600
  C     -0.266400    1.369300   -3.796300
  C     -0.154700    2.504700   -4.610300
  C     -0.010400    3.745500   -4.014600
  C      0.010600    3.838800   -2.630900
  N     -0.095200    2.753900   -1.859900
  C     -0.223400    1.547800   -2.411700
  H     -0.183600    2.404200   -5.684100
  H      0.079300    4.636000   -4.615500
  H      0.116800    4.792300   -2.120500
  H     -0.303600    0.698300   -1.734100
  C     -0.898600   -2.349900   -5.202400
  C     -1.470800   -2.550300   -6.461100
  C     -1.769100   -3.834700   -6.876500
  C     -1.501000   -4.918800   -6.058100
  C     -0.918200   -4.732600   -4.802300
  C     -0.618700   -3.441500   -4.379300
  H     -1.682900   -1.705500   -7.097800
  H     -2.217900   -3.994600   -7.845000
  H     -1.769800   -5.909400   -6.390100
  H     -0.135800   -3.269600   -3.430500
  C     -0.641300   -5.895100   -3.943100
  C     -0.225400   -7.116300   -4.483900
  C     -0.010800   -8.200400   -3.649700
  C     -0.200600   -8.047800   -2.287200
  N     -0.576500   -6.877600   -1.765500
  C     -0.797100   -5.828900   -2.559500
  H     -0.059400   -7.209700   -5.545600
  H      0.303500   -9.150200   -4.050900
  H     -0.049100   -8.870500   -1.592000
  H     -1.130200   -4.918500   -2.066200

 Total Charge           Charge          ....    4
 Multiplicity           Mult            ....    1
 Number of Electrons    NEL             ....  568
 Basis Dimension        Dim             .... 1730

ORBITAL ENERGIES
----------------

  NO   OCC          E(Eh)            E(eV)
   0   2.0000     -14.365275      -390.8990
   1   2.0000     -14.365233      -390.8979
   2   2.0000     -14.364878      -390.8882
   3   2.0000     -14.364873      -390.8881
   4   2.0000     -14.362582      -390.8257
   5   2.0000     -14.362560      -390.8251
   6   2.0000     -14.362102      -390.8127
   7   2.0000     -14.362096      -390.8125
   8   2.0000     -10.261131      -279.2196
   9   2.0000     -10.261068      -279.2178
  10   2.0000     -10.260450      -279.2010
  11   2.0000     -10.260430      -279.2005
  12   2.0000     -10.255955      -279.0787
  13   2.0000     -10.255908      -279.0774
  14   2.0000     -10.254758      -279.0461
  15   2.0000     -10.254720      -279.0451
  16   2.0000     -10.254464      -279.0382
  17   2.0000     -10.254400      -279.0364
  18   2.0000     -10.253042      -278.9994
  19   2.0000     -10.253021      -278.9989
  20   2.0000     -10.252320      -278.9798
  21   2.0000     -10.252282      -278.9788
  22   2.0000     -10.250628      -278.9338
  23   2.0000     -10.250615      -278.9334
  24   2.0000     -10.243233      -278.7325
  25   2.0000     -10.243167      -278.7307
  26   2.0000     -10.242407      -278.7101
  27   2.0000     -10.242378      -278.7093
  28   2.0000     -10.228859      -278.3414
  29   2.0000     -10.228789      -278.3395
  30   2.0000     -10.227987      -278.3177
  31   2.0000     -10.227976      -278.3174
  32   2.0000     -10.222772      -278.1758
  33   2.0000     -10.222695      -278.1737
  34   2.0000     -10.221811      -278.1496
  35   2.0000     -10.221792      -278.1491
  36   2.0000     -10.218616      -278.0627
  37   2.0000     -10.218545      -278.0608
  38   2.0000     -10.217556      -278.0338
  39   2.0000     -10.217545      -278.0335
  40   2.0000     -10.216616      -278.0083
  41   2.0000     -10.216542      -278.0062
  42   2.0000     -10.215528      -277.9787
  43   2.0000     -10.215515      -277.9783
  44   2.0000     -10.214253      -277.9440
  45   2.0000     -10.214202      -277.9426
  46   2.0000     -10.212905      -277.9073
  47   2.0000     -10.212888      -277.9068
  48   2.0000     -10.206107      -277.7223
  49   2.0000     -10.206049      -277.7207
  50   2.0000     -10.205799      -277.7139
  51   2.0000     -10.205748      -277.7125
  52   2.0000     -10.201441      -277.5953
  53   2.0000     -10.201367      -277.5933
  54   2.0000     -10.201104      -277.5861
  55   2.0000     -10.201084      -277.5856
  56   2.0000     -10.195007      -277.4202
  57   2.0000     -10.194931      -277.4182
  58   2.0000     -10.194504      -277.4066
  59   2.0000     -10.194469      -277.4056
  60   2.0000     -10.193835      -277.3883
  61   2.0000     -10.193771      -277.3866
  62   2.0000     -10.193379      -277.3759
  63   2.0000     -10.193366      -277.3756
  64   2.0000     -10.187972      -277.2288
  65   2.0000     -10.187901      -277.2269
  66   2.0000     -10.187687      -277.2211
  67   2.0000     -10.187643      -277.2199
  68   2.0000     -10.182599      -277.0826
  69   2.0000     -10.182531      -277.0807
  70   2.0000     -10.182080      -277.0685
  71   2.0000     -10.182026      -277.0670
  72   2.0000     -10.180921      -277.0370
  73   2.0000     -10.180865      -277.0354
  74   2.0000     -10.180616      -277.0286
  75   2.0000     -10.180577      -277.0276
  76   2.0000     -10.172769      -276.8151
  77   2.0000     -10.172721      -276.8138
  78   2.0000     -10.172322      -276.8030
  79   2.0000     -10.172263      -276.8013
  80   2.0000      -3.674327       -99.9835
  81   2.0000      -3.674318       -99.9833
  82   2.0000      -2.405058       -65.4450
  83   2.0000      -2.405046       -65.4446
  84   2.0000      -2.404614       -65.4329
  85   2.0000      -2.404608       -65.4327
  86   2.0000      -2.362604       -64.2897
  87   2.0000      -2.362597       -64.2895
  88   2.0000      -1.228362       -33.4254
  89   2.0000      -1.228329       -33.4245
  90   2.0000      -1.221916       -33.2500
  91   2.0000      -1.221892       -33.2494
  92   2.0000      -1.220530       -33.2123
  93   2.0000      -1.220503       -33.2116
  94   2.0000      -1.218750       -33.1639
  95   2.0000      -1.218743       -33.1637
  96   2.0000      -1.094484       -29.7824
  97   2.0000      -1.094366       -29.7792
  98   2.0000      -1.093870       -29.7657
  99   2.0000      -1.093803       -29.7639
 100   2.0000      -1.074698       -29.2440
 101   2.0000      -1.074002       -29.2251
 102   2.0000      -1.073075       -29.1999
 103   2.0000      -1.072878       -29.1945
 104   2.0000      -1.060772       -28.8651
 105   2.0000      -1.059962       -28.8430
 106   2.0000      -1.059386       -28.8274
 107   2.0000      -1.059083       -28.8191
 108   2.0000      -1.038434       -28.2572
 109   2.0000      -1.037852       -28.2414
 110   2.0000      -1.036642       -28.2085
 111   2.0000      -1.036230       -28.1972
 112   2.0000      -1.033461       -28.1219
 113   2.0000      -1.033128       -28.1129
 114   2.0000      -1.032093       -28.0847
 115   2.0000      -1.031513       -28.0689
 116   2.0000      -1.004613       -27.3369
 117   2.0000      -1.004152       -27.3244
 118   2.0000      -1.004040       -27.3213
 119   2.0000      -1.003622       -27.3099
 120   2.0000      -0.974340       -26.5131
 121   2.0000      -0.974281       -26.5115
 122   2.0000      -0.973436       -26.4885
 123   2.0000      -0.973394       -26.4874
 124   2.0000      -0.963679       -26.2230
 125   2.0000      -0.963230       -26.2108
 126   2.0000      -0.962694       -26.1962
 127   2.0000      -0.962248       -26.1841
 128   2.0000      -0.917279       -24.9604
 129   2.0000      -0.916635       -24.9429
 130   2.0000      -0.915732       -24.9183
 131   2.0000      -0.914022       -24.8718
 132   2.0000      -0.905935       -24.6518
 133   2.0000      -0.905521       -24.6405
 134   2.0000      -0.904526       -24.6134
 135   2.0000      -0.903060       -24.5735
 136   2.0000      -0.900524       -24.5045
 137   2.0000      -0.899600       -24.4794
 138   2.0000      -0.898628       -24.4529
 139   2.0000      -0.897675       -24.4270
 140   2.0000      -0.896313       -24.3899
 141   2.0000      -0.895628       -24.3713
 142   2.0000      -0.894807       -24.3489
 143   2.0000      -0.894484       -24.3402
 144   2.0000      -0.855437       -23.2776
 145   2.0000      -0.854529       -23.2529
 146   2.0000      -0.853911       -23.2361
 147   2.0000      -0.853125       -23.2147
 148   2.0000      -0.841555       -22.8999
 149   2.0000      -0.840849       -22.8807
 150   2.0000      -0.840294       -22.8656
 151   2.0000      -0.839980       -22.8570
 152   2.0000      -0.827805       -22.5257
 153   2.0000      -0.821979       -22.3672
 154   2.0000      -0.821492       -22.3539
 155   2.0000      -0.816818       -22.2267
 156   2.0000      -0.810716       -22.0607
 157   2.0000      -0.807805       -21.9815
 158   2.0000      -0.805182       -21.9101
 159   2.0000      -0.804587       -21.8939
 160   2.0000      -0.782163       -21.2837
 161   2.0000      -0.779863       -21.2211
 162   2.0000      -0.779247       -21.2044
 163   2.0000      -0.777767       -21.1641
 164   2.0000      -0.771479       -20.9930
 165   2.0000      -0.770719       -20.9723
 166   2.0000      -0.770057       -20.9543
 167   2.0000      -0.769952       -20.9515
 168   2.0000      -0.767059       -20.8727
 169   2.0000      -0.766958       -20.8700
 170   2.0000      -0.765865       -20.8403
 171   2.0000      -0.765649       -20.8344
 172   2.0000      -0.761345       -20.7172
 173   2.0000      -0.759763       -20.6742
 174   2.0000      -0.759071       -20.6554
 175   2.0000      -0.757346       -20.6084
 176   2.0000      -0.739199       -20.1146
 177   2.0000      -0.738226       -20.0882
 178   2.0000      -0.735208       -20.0060
 179   2.0000      -0.734874       -19.9969
 180   2.0000      -0.734288       -19.9810
 181   2.0000      -0.733152       -19.9501
 182   2.0000      -0.724508       -19.7149
 183   2.0000      -0.722364       -19.6565
 184   2.0000      -0.722242       -19.6532
 185   2.0000      -0.719609       -19.5816
 186   2.0000      -0.717379       -19.5209
 187   2.0000      -0.717231       -19.5168
 188   2.0000      -0.715715       -19.4756
 189   2.0000      -0.713658       -19.4196
 190   2.0000      -0.713466       -19.4144
 191   2.0000      -0.711843       -19.3702
 192   2.0000      -0.711730       -19.3672
 193   2.0000      -0.710052       -19.3215
 194   2.0000      -0.708588       -19.2816
 195   2.0000      -0.708441       -19.2776
 196   2.0000      -0.708379       -19.2760
 197   2.0000      -0.707726       -19.2582
 198   2.0000      -0.702611       -19.1190
 199   2.0000      -0.701979       -19.1018
 200   2.0000      -0.701216       -19.0811
 201   2.0000      -0.700789       -19.0694
 202   2.0000      -0.695279       -18.9195
 203   2.0000      -0.694574       -18.9003
 204   2.0000      -0.692316       -18.8389
 205   2.0000      -0.691691       -18.8219
 206   2.0000      -0.686420       -18.6784
 207   2.0000      -0.685753       -18.6603
 208   2.0000      -0.683227       -18.5916
 209   2.0000      -0.683022       -18.5860
 210   2.0000      -0.682579       -18.5739
 211   2.0000      -0.682534       -18.5727
 212   2.0000      -0.669238       -18.2109
 213   2.0000      -0.669128       -18.2079
 214   2.0000      -0.668507       -18.1910
 215   2.0000      -0.668425       -18.1888
 216   2.0000      -0.659044       -17.9335
 217   2.0000      -0.658466       -17.9178
 218   2.0000      -0.656295       -17.8587
 219   2.0000      -0.656207       -17.8563
 220   2.0000      -0.647180       -17.6107
 221   2.0000      -0.647091       -17.6082
 222   2.0000      -0.645983       -17.5781
 223   2.0000      -0.645898       -17.5758
 224   2.0000      -0.643949       -17.5227
 225   2.0000      -0.642954       -17.4957
 226   2.0000      -0.642269       -17.4770
 227   2.0000      -0.641175       -17.4473
 228   2.0000      -0.639278       -17.3957
 229   2.0000      -0.635514       -17.2932
 230   2.0000      -0.635172       -17.2839
 231   2.0000      -0.633764       -17.2456
 232   2.0000      -0.629407       -17.1270
 233   2.0000      -0.620902       -16.8956
 234   2.0000      -0.612635       -16.6707
 235   2.0000      -0.610889       -16.6231
 236   2.0000      -0.609472       -16.5846
 237   2.0000      -0.609466       -16.5844
 238   2.0000      -0.605006       -16.4630
 239   2.0000      -0.604715       -16.4551
 240   2.0000      -0.604691       -16.4545
 241   2.0000      -0.604255       -16.4426
 242   2.0000      -0.603501       -16.4221
 243   2.0000      -0.602725       -16.4010
 244   2.0000      -0.601393       -16.3647
 245   2.0000      -0.596543       -16.2327
 246   2.0000      -0.595466       -16.2035
 247   2.0000      -0.594994       -16.1906
 248   2.0000      -0.592715       -16.1286
 249   2.0000      -0.588798       -16.0220
 250   2.0000      -0.584876       -15.9153
 251   2.0000      -0.582894       -15.8614
 252   2.0000      -0.582476       -15.8500
 253   2.0000      -0.576489       -15.6871
 254   2.0000      -0.574618       -15.6362
 255   2.0000      -0.571684       -15.5563
 256   2.0000      -0.571240       -15.5442
 257   2.0000      -0.570153       -15.5146
 258   2.0000      -0.568137       -15.4598
 259   2.0000      -0.567776       -15.4500
 260   2.0000      -0.566230       -15.4079
 261   2.0000      -0.563769       -15.3409
 262   2.0000      -0.563293       -15.3280
 263   2.0000      -0.562451       -15.3051
 264   2.0000      -0.555229       -15.1086
 265   2.0000      -0.553373       -15.0581
 266   2.0000      -0.548076       -14.9139
 267   2.0000      -0.547568       -14.9001
 268   2.0000      -0.547025       -14.8853
 269   2.0000      -0.546622       -14.8743
 270   2.0000      -0.536512       -14.5992
 271   2.0000      -0.536032       -14.5862
 272   2.0000      -0.533381       -14.5140
 273   2.0000      -0.533183       -14.5086
 274   2.0000      -0.531000       -14.4493
 275   2.0000      -0.530842       -14.4450
 276   2.0000      -0.510818       -13.9001
 277   2.0000      -0.510697       -13.8968
 278   2.0000      -0.509658       -13.8685
 279   2.0000      -0.509497       -13.8641
 280   2.0000      -0.493910       -13.4400
 281   2.0000      -0.493144       -13.4191
 282   2.0000      -0.492398       -13.3988
 283   2.0000      -0.491678       -13.3792
 284   0.0000      -0.398911       -10.8549
 285   0.0000      -0.398618       -10.8469
 286   0.0000      -0.390529       -10.6268
 287   0.0000      -0.390244       -10.6191
 288   0.0000      -0.388463       -10.5706

MULLIKEN ATOMIC CHARGES
-----------------------
   0 Pd:   -0.005282
   1 Pd:   -0.006151
   2 C :    0.036403
   3 C :    0.001740
   4 C :    0.054617
   5 C :   -0.192521
   6 C :   -0.018548
   7 C :   -0.135602
   8 N :   -0.053853
   9 C :   -0.161955
  10 H :    0.260127
  11 H :    0.255372
  12 H :    0.207818
  13 H :    0.181605
  14 C :   -0.167883
  15 C :   -0.117422
  16 C :   -0.166804
  17 C :   -0.139392
  18 C :   -0.049737
  19 C :   -0.116940
  20 H :    0.244730
  21 H :    0.230384
  22 H :    0.248431
  23 H :    0.222556
  24 C :    0.047346
  25 C :   -0.168370
  26 C :   -0.050101
  27 C :   -0.124094
  28 N :   -0.064011
  29 C :   -0.159944
  30 H :    0.266177
  31 H :    0.253195
  32 H :    0.196913
  33 H :    0.185102
  34 C :    0.031004
  35 C :    0.010140
  36 C :    0.055447
  37 C :   -0.189581
  38 C :   -0.014935
  39 C :   -0.128327
  40 N :   -0.050680
  41 C :   -0.177647
  42 H :    0.259297
  43 H :    0.255523
  44 H :    0.206942
  45 H :    0.179033
  46 C :   -0.153854
  47 C :   -0.122434
  48 C :   -0.164192
  49 C :   -0.141606
  50 C :   -0.043089
  51 C :   -0.142059
  52 H :    0.244920
  53 H :    0.230492
  54 H :    0.250651
  55 H :    0.223783
  56 C :    0.046203
  57 C :   -0.173011
  58 C :   -0.052277
  59 C :   -0.137302
  60 N :   -0.074698
  61 C :   -0.145133
  62 H :    0.268944
  63 H :    0.254254
  64 H :    0.199184
  65 H :    0.195414
  66 C :    0.037021
  67 C :    0.001952
  68 C :    0.053255
  69 C :   -0.191858
  70 C :   -0.018597
  71 C :   -0.135845
  72 N :   -0.054584
  73 C :   -0.161270
  74 H :    0.260274
  75 H :    0.255406
  76 H :    0.208114
  77 H :    0.181715
  78 C :   -0.168879
  79 C :   -0.117206
  80 C :   -0.166914
  81 C :   -0.139681
  82 C :   -0.050328
  83 C :   -0.116842
  84 H :    0.244790
  85 H :    0.230304
  86 H :    0.248384
  87 H :    0.223132
  88 C :    0.047505
  89 C :   -0.168189
  90 C :   -0.049950
  91 C :   -0.124153
  92 N :   -0.063862
  93 C :   -0.159839
  94 H :    0.266232
  95 H :    0.253220
  96 H :    0.196935
  97 H :    0.184939
  98 C :    0.031862
  99 C :    0.009788
 100 C :    0.054696
 101 C :   -0.188990
 102 C :   -0.015014
 103 C :   -0.128800
 104 N :   -0.050915
 105 C :   -0.177006
 106 H :    0.259313
 107 H :    0.255526
 108 H :    0.206990
 109 H :    0.178920
 110 C :   -0.154301
 111 C :   -0.122356
 112 C :   -0.164142
 113 C :   -0.141702
 114 C :   -0.043041
 115 C :   -0.142096
 116 H :    0.244880
 117 H :    0.230465
 118 H :    0.250572
 119 H :    0.224019
 120 C :    0.046334
 121 C :   -0.173020
 122 C :   -0.052398
 123 C :   -0.137559
 124 N :   -0.073865
 125 C :   -0.145141
 126 H :    0.268969
 127 H :    0.254255
 128 H :    0.199106
 129 H :    0.195159
Sum of atomic charges:    4.0000000

LOEWDIN ATOMIC CHARGES
----------------------
   0 Pd:   -0.058821
   1 Pd:   -0.058812
   2 C :    0.026702
   3 C :   -0.053245
   4 C :   -0.041721
   5 C :   -0.060836
   6 C :   -0.114124
   7 C :   -0.034958
   8 N :   -0.076412
   9 C :   -0.021726
  10 H :    0.207369
  11 H :    0.206427
  12 H :    0.190173
  13 H :    0.184676
  14 C :   -0.063444
  15 C :   -0.091768
  16 C :   -0.113156
  17 C :   -0.110584
  18 C :   -0.058642
  19 C :   -0.121578
  20 H :    0.194787
  21 H :    0.194984
  22 H :    0.187991
  23 H :    0.172540
  24 C :   -0.027552
  25 C :   -0.073273
  26 C :   -0.114206
  27 C :   -0.031435
  28 N :   -0.077722
  29 C :   -0.030017
  30 H :    0.202529
  31 H :    0.205284
  32 H :    0.189803
  33 H :    0.182375
  34 C :    0.025430
  35 C :   -0.050999
  36 C :   -0.041694
  37 C :   -0.061409
  38 C :   -0.113474
  39 C :   -0.031952
  40 N :   -0.076429
  41 C :   -0.024585
  42 H :    0.207273
  43 H :    0.206633
  44 H :    0.191843
  45 H :    0.184290
  46 C :   -0.062953
  47 C :   -0.091370
  48 C :   -0.113414
  49 C :   -0.111732
  50 C :   -0.059786
  51 C :   -0.121471
  52 H :    0.195016
  53 H :    0.194973
  54 H :    0.188132
  55 H :    0.173055
  56 C :   -0.027864
  57 C :   -0.073025
  58 C :   -0.114357
  59 C :   -0.035397
  60 N :   -0.077944
  61 C :   -0.028235
  62 H :    0.203249
  63 H :    0.205298
  64 H :    0.188787
  65 H :    0.183685
  66 C :    0.026716
  67 C :   -0.053278
  68 C :   -0.041750
  69 C :   -0.060831
  70 C :   -0.114126
  71 C :   -0.034953
  72 N :   -0.076438
  73 C :   -0.021711
  74 H :    0.207386
  75 H :    0.206435
  76 H :    0.190249
  77 H :    0.184715
  78 C :   -0.063459
  79 C :   -0.091883
  80 C :   -0.113193
  81 C :   -0.110628
  82 C :   -0.058668
  83 C :   -0.121624
  84 H :    0.194766
  85 H :    0.194965
  86 H :    0.187980
  87 H :    0.172629
  88 C :   -0.027569
  89 C :   -0.073267
  90 C :   -0.114174
  91 C :   -0.031428
  92 N :   -0.077691
  93 C :   -0.029987
  94 H :    0.202547
  95 H :    0.205293
  96 H :    0.189783
  97 H :    0.182314
  98 C :    0.025491
  99 C :   -0.051028
 100 C :   -0.041691
 101 C :   -0.061392
 102 C :   -0.113451
 103 C :   -0.032015
 104 N :   -0.076459
 105 C :   -0.024542
 106 H :    0.207298
 107 H :    0.206641
 108 H :    0.191889
 109 H :    0.184335
 110 C :   -0.062974
 111 C :   -0.091420
 112 C :   -0.113426
 113 C :   -0.111781
 114 C :   -0.059795
 115 C :   -0.121474
 116 H :    0.195003
 117 H :    0.194964
 118 H :    0.188130
 119 H :    0.173119
 120 C :   -0.027854
 121 C :   -0.072991
 122 C :   -0.114313
 123 C :   -0.035398
 124 N :   -0.077908
 125 C :   -0.028180
 126 H :    0.203267
 127 H :    0.205300
 128 H :    0.188724
 129 H :    0.183633

  Mayer bond orders larger than 0.100000
B(  0-Pd, 28-N ) :   0.5234 B(  0-Pd, 60-N ) :   0.5235 B(  0-Pd, 72-N ) :   0.5250
B(  0-Pd,104-N ) :   0.5289 B(  1-Pd,  8-N ) :   0.5256 B(  1-Pd, 40-N ) :   0.5288
B(  1-Pd, 92-N ) :   0.5234 B(  1-Pd,124-N ) :   0.5239 B(  2-C ,  3-C ) :   1.8589
B(  2-C ,  4-C ) :  -0.3012 B(  2-C , 14-C ) :   1.4939 B(  3-C ,  4-C ) :   1.4210
B(  3-C , 14-C ) :  -0.3887 B(  4-C ,  5-C ) :   1.3624 B(  4-C ,  9-C ) :   1.3184
B(  5-C ,  6-C ) :   1.4828 B(  5-C , 10-H ) :   0.9067 B(  6-C ,  7-C ) :   1.4275
B(  6-C , 11-H ) :   0.8676 B(  7-C ,  8-N ) :   1.3493 B(  7-C , 12-H ) :   0.9169
B(  8-N ,  9-C ) :   1.3722 B(  9-C , 13-H ) :   0.9502 B( 14-C , 15-C ) :   1.3642
B( 14-C , 19-C ) :   1.4190 B( 15-C , 16-C ) :   1.5443 B( 15-C , 20-H ) :   0.8784
B( 16-C , 17-C ) :   1.5905 B( 16-C , 21-H ) :   0.8676 B( 17-C , 18-C ) :   1.3613
B( 17-C , 22-H ) :   0.8421 B( 18-C , 19-C ) :   1.3400 B( 18-C , 24-C ) :   0.9246
B( 19-C , 23-H ) :   0.8650 B( 24-C , 25-C ) :   1.4340 B( 24-C , 29-C ) :   1.3779
B( 25-C , 26-C ) :   1.5195 B( 25-C , 30-H ) :   0.8685 B( 26-C , 27-C ) :   1.4466
B( 26-C , 31-H ) :   0.8641 B( 27-C , 28-N ) :   1.3557 B( 27-C , 32-H ) :   0.9196
B( 28-N , 29-C ) :   1.3736 B( 29-C , 33-H ) :   0.9150 B( 34-C , 35-C ) :   1.8561
B( 34-C , 36-C ) :  -0.3051 B( 34-C , 46-C ) :   1.4897 B( 35-C , 36-C ) :   1.4276
B( 35-C , 46-C ) :  -0.3966 B( 36-C , 37-C ) :   1.3545 B( 36-C , 41-C ) :   1.3258
B( 37-C , 38-C ) :   1.4791 B( 37-C , 42-H ) :   0.9080 B( 38-C , 39-C ) :   1.4171
B( 38-C , 43-H ) :   0.8681 B( 39-C , 40-N ) :   1.3563 B( 39-C , 44-H ) :   0.9197
B( 40-N , 41-C ) :   1.3652 B( 41-C , 45-H ) :   0.9503 B( 46-C , 47-C ) :   1.3616
B( 46-C , 51-C ) :   1.4103 B( 47-C , 48-C ) :   1.5427 B( 47-C , 52-H ) :   0.8803
B( 48-C , 49-C ) :   1.5847 B( 48-C , 53-H ) :   0.8677 B( 49-C , 50-C ) :   1.3654
B( 49-C , 54-H ) :   0.8418 B( 50-C , 51-C ) :   1.3474 B( 50-C , 56-C ) :   0.9135
B( 51-C , 55-H ) :   0.8718 B( 56-C , 57-C ) :   1.4372 B( 56-C , 61-C ) :   1.3711
B( 57-C , 58-C ) :   1.5209 B( 57-C , 62-H ) :   0.8677 B( 58-C , 59-C ) :   1.4552
B( 58-C , 63-H ) :   0.8623 B( 59-C , 60-N ) :   1.3498 B( 59-C , 64-H ) :   0.9177
B( 60-N , 61-C ) :   1.3773 B( 61-C , 65-H ) :   0.9176 B( 66-C , 67-C ) :   1.8586
B( 66-C , 68-C ) :  -0.3011 B( 66-C , 78-C ) :   1.4940 B( 67-C , 68-C ) :   1.4214
B( 67-C , 78-C ) :  -0.3886 B( 68-C , 69-C ) :   1.3630 B( 68-C , 73-C ) :   1.3193
B( 69-C , 70-C ) :   1.4828 B( 69-C , 74-H ) :   0.9065 B( 70-C , 71-C ) :   1.4276
B( 70-C , 75-H ) :   0.8676 B( 71-C , 72-N ) :   1.3495 B( 71-C , 76-H ) :   0.9168
B( 72-N , 73-C ) :   1.3722 B( 73-C , 77-H ) :   0.9499 B( 78-C , 79-C ) :   1.3646
B( 78-C , 83-C ) :   1.4194 B( 79-C , 80-C ) :   1.5445 B( 79-C , 84-H ) :   0.8782
B( 80-C , 81-C ) :   1.5903 B( 80-C , 85-H ) :   0.8677 B( 81-C , 82-C ) :   1.3616
B( 81-C , 86-H ) :   0.8422 B( 82-C , 83-C ) :   1.3406 B( 82-C , 88-C ) :   0.9242
B( 83-C , 87-H ) :   0.8645 B( 88-C , 89-C ) :   1.4340 B( 88-C , 93-C ) :   1.3783
B( 89-C , 90-C ) :   1.5194 B( 89-C , 94-H ) :   0.8685 B( 90-C , 91-C ) :   1.4465
B( 90-C , 95-H ) :   0.8640 B( 91-C , 92-N ) :   1.3557 B( 91-C , 96-H ) :   0.9196
B( 92-N , 93-C ) :   1.3735 B( 93-C , 97-H ) :   0.9148 B( 98-C , 99-C ) :   1.8565
B( 98-C ,100-C ) :  -0.3050 B( 98-C ,110-C ) :   1.4895 B( 99-C ,100-C ) :   1.4274
B( 99-C ,110-C ) :  -0.3960 B(100-C ,101-C ) :   1.3548 B(100-C ,105-C ) :   1.3264
B(101-C ,102-C ) :   1.4789 B(101-C ,106-H ) :   0.9080 B(102-C ,103-C ) :   1.4171
B(102-C ,107-H ) :   0.8682 B(103-C ,104-N ) :   1.3565 B(103-C ,108-H ) :   0.9197
B(104-N ,105-C ) :   1.3652 B(105-C ,109-H ) :   0.9502 B(110-C ,111-C ) :   1.3621
B(110-C ,115-C ) :   1.4105 B(111-C ,112-C ) :   1.5426 B(111-C ,116-H ) :   0.8803
B(112-C ,113-C ) :   1.5847 B(112-C ,117-H ) :   0.8677 B(113-C ,114-C ) :   1.3656
B(113-C ,118-H ) :   0.8419 B(114-C ,115-C ) :   1.3479 B(114-C ,120-C ) :   0.9132
B(115-C ,119-H ) :   0.8715 B(120-C ,121-C ) :   1.4373 B(120-C ,125-C ) :   1.3712
B(121-C ,122-C ) :   1.5209 B(121-C ,126-H ) :   0.8677 B(122-C ,123-C ) :   1.4553
B(122-C ,127-H ) :   0.8624 B(123-C ,124-N ) :   1.3499 B(123-C ,128-H ) :   0.9177
B(124-N ,125-C ) :   1.3770 B(125-C ,129-H ) :   0.9177

Dispersion correction           -0.485243237
FINAL SINGLE POINT ENERGY     -3464.237243431994

DIPOLE MOMENT
-------------
                                X             Y             Z
Electronic contribution:      0.33379      -0.04849      -0.54296
Nuclear contribution   :     -0.33594       0.04870       0.54791
                        -----------------------------------------
Total Dipole Moment    :     -0.00215       0.00021       0.00494
                        -----------------------------------------
Magnitude (a.u.)       :      0.00539
Magnitude (Debye)      :      0.01371

Rotational constants in cm-1:     0.000836     0.000525     0.000522
Rotational constants in MHz :    25.069267    15.747280    15.654203

                             ****ORCA TERMINATED NORMALLY****
TOTAL RUN TIME: 0 days 0 hours 6 minutes 10 seconds 603 msec
