                         Program Version 4.2.1 -  RELEASE  -
|  1> ! DFT SP B97-3c TightSCF printbasis  Grid6 NOFINALGRID SlowConv
|  2>
|  3> %base "_s_3d1_a_B97-3c"
|  4> %maxcore 3000
|  5> %scf
|  6>    MaxIter 2000
|  7> end
|  8> %pal
|  9>    nprocs 32
| 10> end
| 11>
| 12> * xyzfile 4 1 s_3d1_a.xyz
| 13>
| 14>                          ****END OF INPUT****

CARTESIAN COORDINATES (ANGSTROEM)
---------------------------------
  Pd    -0.093000    6.230800    0.242300
  Pd    -0.015600   -3.365800    0.123800
  C      4.878700    2.474800    0.254200
  C      4.451500    3.603500    0.314200
  C      3.877800    4.889500    0.355500
  C      4.644900    6.061200    0.406300
  C      3.998100    7.284600    0.425000
  C      2.611800    7.324700    0.388300
  N      1.886000    6.205800    0.340200
  C      2.487500    5.017300    0.327300
  H      5.721900    6.001900    0.429700
  H      4.561700    8.202700    0.464700
  H      2.063100    8.262200    0.396600
  H      1.848500    4.135100    0.288700
  C      5.359000    1.152900    0.141300
  C      6.659000    0.912400   -0.310000
  C      7.097700   -0.390200   -0.458900
  C      6.261500   -1.452100   -0.159200
  C      4.963200   -1.224700    0.304400
  C      4.516300    0.084400    0.451700
  H      7.309600    1.740200   -0.545700
  H      8.098500   -0.581800   -0.814500
  H      6.614700   -2.460000   -0.311100
  H      3.531200    0.291200    0.838900
  C      4.089800   -2.368200    0.614800
  C      4.605100   -3.538000    1.182600
  C      3.768000   -4.616100    1.415100
  C      2.427900   -4.509200    1.087200
  N      1.926800   -3.384000    0.569000
  C      2.724300   -2.340300    0.334600
  H      5.648700   -3.596000    1.449100
  H      4.150200   -5.527600    1.845300
  H      1.734200   -5.332600    1.242700
  H      2.250700   -1.469700   -0.112000
  C     -0.109200    2.373900    5.136100
  C     -0.166500    3.511300    4.732100
  C     -0.205000    4.808900    4.184900
  C     -0.249200    5.964700    4.976000
  C     -0.265200    7.201200    4.354400
  C     -0.232000    7.269500    2.969100
  N     -0.190200    6.165500    2.220400
  C     -0.180300    4.965000    2.797400
  H     -0.269700    5.883500    6.051600
  H     -0.300000    8.107700    4.936700
  H     -0.238400    8.218100    2.439800
  H     -0.147100    4.095900    2.140400
  C      0.000100    1.042000    5.588700
  C      0.455700    0.772800    6.881500
  C      0.600500   -0.539200    7.292700
  C      0.292500   -1.582400    6.436200
  C     -0.175200   -1.326200    5.144800
  C     -0.318500   -0.007600    4.725500
  H      0.697800    1.586000    7.548000
  H      0.959400   -0.752900    8.287900
  H      0.441300   -2.598000    6.768000
  H     -0.708900    0.221000    3.746500
  C     -0.494200   -2.450000    4.249200
  C     -1.066000   -3.627500    4.742200
  C     -1.306700   -4.686800    3.883700
  C     -0.982400   -4.554000    2.545100
  N     -0.459900   -3.421400    2.065600
  C     -0.218100   -2.395400    2.883700
  H     -1.329200   -3.705800    5.785400
  H     -1.740400   -5.603900    4.248400
  H     -1.144300   -5.362100    1.835100
  H      0.231200   -1.517300    2.426700
  C     -5.003300    2.395400    0.125200
  C     -4.593900    3.531900    0.095800
  C     -4.041100    4.827700    0.088700
  C     -4.827200    5.987600    0.065200
  C     -4.200600    7.221400    0.079200
  C     -2.815200    7.283300    0.120600
  N     -2.071200    6.175500    0.142600
  C     -2.653200    4.977400    0.124200
  H     -5.903100    5.911300    0.037200
  H     -4.779000    8.131000    0.061000
  H     -2.282000    8.229500    0.137100
  H     -1.999900    4.105100    0.142800
  C     -5.463000    1.063700    0.202500
  C     -6.761200    0.791600    0.640900
  C     -7.179900   -0.521000    0.754900
  C     -6.325600   -1.561800    0.433100
  C     -5.028900   -1.302600   -0.018000
  C     -4.602100    0.016600   -0.130400
  H     -7.425900    1.602900    0.893900
  H     -8.179300   -0.737200    1.100500
  H     -6.663600   -2.578600    0.558200
  H     -3.618700    0.248600   -0.507400
  C     -4.136100   -2.424100   -0.352400
  C     -4.630600   -3.588000   -0.950300
  C     -3.775500   -4.646800   -1.205200
  C     -2.438500   -4.526400   -0.869800
  N     -1.957200   -3.406000   -0.323100
  C     -2.772200   -2.381200   -0.066400
  H     -5.672100   -3.656200   -1.222300
  H     -4.141600   -5.553700   -1.658400
  H     -1.731200   -5.334700   -1.042400
  H     -2.314100   -1.514400    0.403100
  C     -0.008000    2.496000   -4.745000
  C      0.029200    3.624000   -4.313000
  C      0.044900    4.908200   -3.734000
  C      0.070100    6.083700   -4.496400
  C      0.064300    7.304600   -3.844600
  C      0.028800    7.338300   -2.458100
  N      0.005100    6.215700   -1.736800
  C      0.016200    5.029600   -2.343200
  H      0.092900    6.029400   -5.573700
  H      0.084000    8.225700   -4.404400
  H      0.018600    8.273500   -1.905600
  H     -0.003000    4.144300   -1.707700
  C     -0.093900    1.174200   -5.230900
  C     -0.541200    0.930000   -6.531600
  C     -0.663300   -0.373500   -6.975800
  C     -0.340900   -1.432600   -6.144500
  C      0.118800   -1.201200   -4.845600
  C      0.239300    0.108700   -4.393000
  H     -0.794600    1.755500   -7.178500
  H     -1.015600   -0.568200   -7.977200
  H     -0.472100   -2.441900   -6.501900
  H      0.623000    0.319300   -3.407400
  C      0.453500   -2.341700   -3.977200
  C      1.045000   -3.497400   -4.497800
  C      1.300300   -4.573900   -3.665300
  C      0.971100   -4.479500   -2.324600
  N      0.430000   -3.367400   -1.818500
  C      0.173600   -2.325300   -2.611500
  H      1.311800   -3.545500   -5.541800
  H      1.749000   -5.474800   -4.051600
  H      1.144100   -5.302300   -1.634500
  H     -0.290500   -1.466200   -2.133900

 Total Charge           Charge          ....    4
 Multiplicity           Mult            ....    1
 Number of Electrons    NEL             ....  568
 Basis Dimension        Dim             .... 1730

ORBITAL ENERGIES
----------------

  NO   OCC          E(Eh)            E(eV)
   0   2.0000     -14.365175      -390.8963
   1   2.0000     -14.365173      -390.8962
   2   2.0000     -14.365165      -390.8960
   3   2.0000     -14.365158      -390.8958
   4   2.0000     -14.363065      -390.8389
   5   2.0000     -14.363056      -390.8386
   6   2.0000     -14.363048      -390.8384
   7   2.0000     -14.363043      -390.8383
   8   2.0000     -10.258690      -279.1531
   9   2.0000     -10.258676      -279.1528
  10   2.0000     -10.258667      -279.1525
  11   2.0000     -10.258662      -279.1524
  12   2.0000     -10.258214      -279.1402
  13   2.0000     -10.258210      -279.1401
  14   2.0000     -10.258190      -279.1396
  15   2.0000     -10.258183      -279.1394
  16   2.0000     -10.254307      -279.0339
  17   2.0000     -10.254301      -279.0337
  18   2.0000     -10.254279      -279.0331
  19   2.0000     -10.254271      -279.0329
  20   2.0000     -10.251323      -278.9527
  21   2.0000     -10.251313      -278.9524
  22   2.0000     -10.251310      -278.9523
  23   2.0000     -10.251296      -278.9520
  24   2.0000     -10.240539      -278.6592
  25   2.0000     -10.240531      -278.6590
  26   2.0000     -10.240523      -278.6588
  27   2.0000     -10.240510      -278.6584
  28   2.0000     -10.231100      -278.4024
  29   2.0000     -10.231095      -278.4022
  30   2.0000     -10.231080      -278.4018
  31   2.0000     -10.231059      -278.4013
  32   2.0000     -10.220874      -278.1241
  33   2.0000     -10.220864      -278.1238
  34   2.0000     -10.220848      -278.1234
  35   2.0000     -10.220842      -278.1233
  36   2.0000     -10.220074      -278.1023
  37   2.0000     -10.220059      -278.1020
  38   2.0000     -10.220046      -278.1016
  39   2.0000     -10.220037      -278.1013
  40   2.0000     -10.216609      -278.0081
  41   2.0000     -10.216603      -278.0079
  42   2.0000     -10.216567      -278.0069
  43   2.0000     -10.216562      -278.0068
  44   2.0000     -10.213669      -277.9281
  45   2.0000     -10.213653      -277.9276
  46   2.0000     -10.213644      -277.9274
  47   2.0000     -10.213641      -277.9273
  48   2.0000     -10.206463      -277.7320
  49   2.0000     -10.206448      -277.7316
  50   2.0000     -10.206424      -277.7309
  51   2.0000     -10.206416      -277.7307
  52   2.0000     -10.202502      -277.6242
  53   2.0000     -10.202493      -277.6240
  54   2.0000     -10.202464      -277.6232
  55   2.0000     -10.202456      -277.6229
  56   2.0000     -10.194574      -277.4085
  57   2.0000     -10.194561      -277.4081
  58   2.0000     -10.194543      -277.4076
  59   2.0000     -10.194523      -277.4071
  60   2.0000     -10.193392      -277.3763
  61   2.0000     -10.193357      -277.3753
  62   2.0000     -10.193342      -277.3749
  63   2.0000     -10.193339      -277.3749
  64   2.0000     -10.186985      -277.2020
  65   2.0000     -10.186944      -277.2008
  66   2.0000     -10.186933      -277.2005
  67   2.0000     -10.186928      -277.2004
  68   2.0000     -10.183451      -277.1058
  69   2.0000     -10.183443      -277.1056
  70   2.0000     -10.183418      -277.1049
  71   2.0000     -10.183412      -277.1047
  72   2.0000     -10.181272      -277.0465
  73   2.0000     -10.181255      -277.0460
  74   2.0000     -10.181226      -277.0453
  75   2.0000     -10.181222      -277.0451
  76   2.0000     -10.173450      -276.8336
  77   2.0000     -10.173433      -276.8332
  78   2.0000     -10.173419      -276.8328
  79   2.0000     -10.173400      -276.8323
  80   2.0000      -3.675532      -100.0163
  81   2.0000      -3.673469       -99.9602
  82   2.0000      -2.405953       -65.4693
  83   2.0000      -2.405919       -65.4684
  84   2.0000      -2.404101       -65.4189
  85   2.0000      -2.404067       -65.4180
  86   2.0000      -2.363723       -64.3202
  87   2.0000      -2.361712       -64.2654
  88   2.0000      -1.228771       -33.4366
  89   2.0000      -1.227561       -33.4036
  90   2.0000      -1.221636       -33.2424
  91   2.0000      -1.221605       -33.2416
  92   2.0000      -1.220738       -33.2180
  93   2.0000      -1.220471       -33.2107
  94   2.0000      -1.220443       -33.2100
  95   2.0000      -1.219993       -33.1977
  96   2.0000      -1.095822       -29.8188
  97   2.0000      -1.095298       -29.8046
  98   2.0000      -1.095252       -29.8033
  99   2.0000      -1.095247       -29.8032
 100   2.0000      -1.073489       -29.2111
 101   2.0000      -1.071518       -29.1575
 102   2.0000      -1.071064       -29.1451
 103   2.0000      -1.071055       -29.1449
 104   2.0000      -1.063308       -28.9341
 105   2.0000      -1.061538       -28.8859
 106   2.0000      -1.061159       -28.8756
 107   2.0000      -1.061157       -28.8755
 108   2.0000      -1.037436       -28.2301
 109   2.0000      -1.036285       -28.1988
 110   2.0000      -1.036276       -28.1985
 111   2.0000      -1.035498       -28.1773
 112   2.0000      -1.035059       -28.1654
 113   2.0000      -1.033877       -28.1332
 114   2.0000      -1.033867       -28.1329
 115   2.0000      -1.032587       -28.0981
 116   2.0000      -1.004776       -27.3413
 117   2.0000      -1.004289       -27.3281
 118   2.0000      -1.004282       -27.3279
 119   2.0000      -1.003892       -27.3173
 120   2.0000      -0.975670       -26.5493
 121   2.0000      -0.975234       -26.5375
 122   2.0000      -0.975231       -26.5374
 123   2.0000      -0.974762       -26.5246
 124   2.0000      -0.963044       -26.2057
 125   2.0000      -0.962339       -26.1866
 126   2.0000      -0.962332       -26.1864
 127   2.0000      -0.961373       -26.1603
 128   2.0000      -0.916581       -24.9414
 129   2.0000      -0.915350       -24.9079
 130   2.0000      -0.915337       -24.9076
 131   2.0000      -0.912893       -24.8411
 132   2.0000      -0.907353       -24.6903
 133   2.0000      -0.906759       -24.6742
 134   2.0000      -0.906749       -24.6739
 135   2.0000      -0.904678       -24.6175
 136   2.0000      -0.900763       -24.5110
 137   2.0000      -0.899079       -24.4652
 138   2.0000      -0.898648       -24.4535
 139   2.0000      -0.897186       -24.4137
 140   2.0000      -0.897181       -24.4135
 141   2.0000      -0.896304       -24.3897
 142   2.0000      -0.894273       -24.3344
 143   2.0000      -0.894262       -24.3341
 144   2.0000      -0.856010       -23.2932
 145   2.0000      -0.854920       -23.2636
 146   2.0000      -0.854182       -23.2435
 147   2.0000      -0.854168       -23.2431
 148   2.0000      -0.843785       -22.9606
 149   2.0000      -0.841961       -22.9109
 150   2.0000      -0.840690       -22.8763
 151   2.0000      -0.840687       -22.8763
 152   2.0000      -0.828575       -22.5467
 153   2.0000      -0.821427       -22.3522
 154   2.0000      -0.818412       -22.2701
 155   2.0000      -0.813638       -22.1402
 156   2.0000      -0.813629       -22.1400
 157   2.0000      -0.810528       -22.0556
 158   2.0000      -0.805635       -21.9225
 159   2.0000      -0.805627       -21.9222
 160   2.0000      -0.781437       -21.2640
 161   2.0000      -0.778868       -21.1941
 162   2.0000      -0.778859       -21.1938
 163   2.0000      -0.776499       -21.1296
 164   2.0000      -0.770586       -20.9687
 165   2.0000      -0.770583       -20.9686
 166   2.0000      -0.770474       -20.9657
 167   2.0000      -0.769130       -20.9291
 168   2.0000      -0.769074       -20.9276
 169   2.0000      -0.769073       -20.9275
 170   2.0000      -0.768649       -20.9160
 171   2.0000      -0.767795       -20.8928
 172   2.0000      -0.760572       -20.6962
 173   2.0000      -0.758196       -20.6316
 174   2.0000      -0.758189       -20.6314
 175   2.0000      -0.756260       -20.5789
 176   2.0000      -0.742483       -20.2040
 177   2.0000      -0.737292       -20.0627
 178   2.0000      -0.735321       -20.0091
 179   2.0000      -0.733782       -19.9672
 180   2.0000      -0.733322       -19.9547
 181   2.0000      -0.729107       -19.8400
 182   2.0000      -0.729091       -19.8396
 183   2.0000      -0.727055       -19.7842
 184   2.0000      -0.720817       -19.6144
 185   2.0000      -0.718877       -19.5616
 186   2.0000      -0.716603       -19.4997
 187   2.0000      -0.716597       -19.4996
 188   2.0000      -0.716486       -19.4966
 189   2.0000      -0.714456       -19.4413
 190   2.0000      -0.713894       -19.4260
 191   2.0000      -0.711796       -19.3689
 192   2.0000      -0.711758       -19.3679
 193   2.0000      -0.710785       -19.3415
 194   2.0000      -0.710740       -19.3402
 195   2.0000      -0.707434       -19.2503
 196   2.0000      -0.707010       -19.2387
 197   2.0000      -0.705778       -19.2052
 198   2.0000      -0.705649       -19.2017
 199   2.0000      -0.704107       -19.1597
 200   2.0000      -0.701917       -19.1001
 201   2.0000      -0.701870       -19.0989
 202   2.0000      -0.698576       -19.0092
 203   2.0000      -0.694295       -18.8927
 204   2.0000      -0.694279       -18.8923
 205   2.0000      -0.692760       -18.8510
 206   2.0000      -0.686896       -18.6914
 207   2.0000      -0.684768       -18.6335
 208   2.0000      -0.683831       -18.6080
 209   2.0000      -0.683823       -18.6078
 210   2.0000      -0.683005       -18.5855
 211   2.0000      -0.682993       -18.5852
 212   2.0000      -0.670311       -18.2401
 213   2.0000      -0.669777       -18.2255
 214   2.0000      -0.669766       -18.2252
 215   2.0000      -0.669567       -18.2198
 216   2.0000      -0.657375       -17.8881
 217   2.0000      -0.654887       -17.8204
 218   2.0000      -0.654879       -17.8202
 219   2.0000      -0.653400       -17.7799
 220   2.0000      -0.648804       -17.6548
 221   2.0000      -0.648761       -17.6537
 222   2.0000      -0.648754       -17.6535
 223   2.0000      -0.648601       -17.6493
 224   2.0000      -0.644893       -17.5484
 225   2.0000      -0.642501       -17.4833
 226   2.0000      -0.642161       -17.4741
 227   2.0000      -0.641053       -17.4439
 228   2.0000      -0.639548       -17.4030
 229   2.0000      -0.636114       -17.3096
 230   2.0000      -0.636106       -17.3093
 231   2.0000      -0.633928       -17.2501
 232   2.0000      -0.629472       -17.1288
 233   2.0000      -0.616363       -16.7721
 234   2.0000      -0.613588       -16.6966
 235   2.0000      -0.613556       -16.6957
 236   2.0000      -0.610188       -16.6041
 237   2.0000      -0.610177       -16.6038
 238   2.0000      -0.605808       -16.4849
 239   2.0000      -0.605432       -16.4747
 240   2.0000      -0.605418       -16.4743
 241   2.0000      -0.605310       -16.4713
 242   2.0000      -0.603392       -16.4191
 243   2.0000      -0.600272       -16.3342
 244   2.0000      -0.599161       -16.3040
 245   2.0000      -0.599145       -16.3036
 246   2.0000      -0.598562       -16.2877
 247   2.0000      -0.595158       -16.1951
 248   2.0000      -0.595156       -16.1950
 249   2.0000      -0.587707       -15.9923
 250   2.0000      -0.587693       -15.9919
 251   2.0000      -0.586428       -15.9575
 252   2.0000      -0.582797       -15.8587
 253   2.0000      -0.573663       -15.6102
 254   2.0000      -0.573616       -15.6089
 255   2.0000      -0.571267       -15.5450
 256   2.0000      -0.571245       -15.5444
 257   2.0000      -0.570340       -15.5197
 258   2.0000      -0.568743       -15.4763
 259   2.0000      -0.566049       -15.4030
 260   2.0000      -0.566022       -15.4023
 261   2.0000      -0.563723       -15.3397
 262   2.0000      -0.563713       -15.3394
 263   2.0000      -0.563103       -15.3228
 264   2.0000      -0.557355       -15.1664
 265   2.0000      -0.553237       -15.0543
 266   2.0000      -0.546913       -14.8823
 267   2.0000      -0.546904       -14.8820
 268   2.0000      -0.546882       -14.8814
 269   2.0000      -0.546793       -14.8790
 270   2.0000      -0.537220       -14.6185
 271   2.0000      -0.536584       -14.6012
 272   2.0000      -0.534017       -14.5313
 273   2.0000      -0.532724       -14.4962
 274   2.0000      -0.532697       -14.4954
 275   2.0000      -0.530637       -14.4394
 276   2.0000      -0.511961       -13.9312
 277   2.0000      -0.511647       -13.9226
 278   2.0000      -0.511636       -13.9223
 279   2.0000      -0.511315       -13.9136
 280   2.0000      -0.493602       -13.4316
 281   2.0000      -0.492260       -13.3951
 282   2.0000      -0.492245       -13.3947
 283   2.0000      -0.490968       -13.3599
 284   0.0000      -0.403332       -10.9752
 285   0.0000      -0.395567       -10.7639
 286   0.0000      -0.389368       -10.5953
 287   0.0000      -0.389329       -10.5942
 288   0.0000      -0.388478       -10.5710

MULLIKEN ATOMIC CHARGES
-----------------------
   0 Pd:   -0.034931
   1 Pd:    0.028261
   2 C :    0.029439
   3 C :    0.023711
   4 C :    0.067291
   5 C :   -0.192613
   6 C :   -0.015768
   7 C :   -0.128927
   8 N :   -0.046011
   9 C :   -0.171000
  10 H :    0.259332
  11 H :    0.255984
  12 H :    0.206013
  13 H :    0.170492
  14 C :   -0.155704
  15 C :   -0.122068
  16 C :   -0.163353
  17 C :   -0.147774
  18 C :   -0.037480
  19 C :   -0.145400
  20 H :    0.246444
  21 H :    0.230645
  22 H :    0.249596
  23 H :    0.218955
  24 C :    0.049114
  25 C :   -0.175316
  26 C :   -0.042488
  27 C :   -0.133434
  28 N :   -0.093737
  29 C :   -0.152189
  30 H :    0.270080
  31 H :    0.254991
  32 H :    0.195762
  33 H :    0.197166
  34 C :    0.029662
  35 C :    0.023441
  36 C :    0.067032
  37 C :   -0.192519
  38 C :   -0.015782
  39 C :   -0.129097
  40 N :   -0.045823
  41 C :   -0.171053
  42 H :    0.259340
  43 H :    0.256005
  44 H :    0.206022
  45 H :    0.170637
  46 C :   -0.155991
  47 C :   -0.121940
  48 C :   -0.163284
  49 C :   -0.147893
  50 C :   -0.037541
  51 C :   -0.145402
  52 H :    0.246429
  53 H :    0.230599
  54 H :    0.249571
  55 H :    0.219270
  56 C :    0.049212
  57 C :   -0.175573
  58 C :   -0.042198
  59 C :   -0.133688
  60 N :   -0.093723
  61 C :   -0.151830
  62 H :    0.269985
  63 H :    0.254960
  64 H :    0.195732
  65 H :    0.196986
  66 C :    0.029536
  67 C :    0.023559
  68 C :    0.067187
  69 C :   -0.192825
  70 C :   -0.015604
  71 C :   -0.129078
  72 N :   -0.045905
  73 C :   -0.171058
  74 H :    0.259282
  75 H :    0.255963
  76 H :    0.206024
  77 H :    0.170586
  78 C :   -0.155693
  79 C :   -0.122082
  80 C :   -0.163386
  81 C :   -0.147492
  82 C :   -0.037288
  83 C :   -0.145326
  84 H :    0.246425
  85 H :    0.230627
  86 H :    0.249608
  87 H :    0.218993
  88 C :    0.049081
  89 C :   -0.175483
  90 C :   -0.042570
  91 C :   -0.133391
  92 N :   -0.093739
  93 C :   -0.152134
  94 H :    0.270079
  95 H :    0.254977
  96 H :    0.195701
  97 H :    0.197147
  98 C :    0.029831
  99 C :    0.023400
 100 C :    0.066989
 101 C :   -0.192448
 102 C :   -0.015862
 103 C :   -0.128924
 104 N :   -0.046169
 105 C :   -0.170884
 106 H :    0.259335
 107 H :    0.255979
 108 H :    0.206018
 109 H :    0.170639
 110 C :   -0.155908
 111 C :   -0.121983
 112 C :   -0.163491
 113 C :   -0.147573
 114 C :   -0.037853
 115 C :   -0.145372
 116 H :    0.246429
 117 H :    0.230609
 118 H :    0.249614
 119 H :    0.219120
 120 C :    0.049238
 121 C :   -0.175194
 122 C :   -0.042535
 123 C :   -0.133596
 124 N :   -0.093661
 125 C :   -0.152049
 126 H :    0.270072
 127 H :    0.254955
 128 H :    0.195811
 129 H :    0.197117
Sum of atomic charges:    4.0000000

LOEWDIN ATOMIC CHARGES
----------------------
   0 Pd:   -0.057064
   1 Pd:   -0.062007
   2 C :    0.022983
   3 C :   -0.047701
   4 C :   -0.041712
   5 C :   -0.061143
   6 C :   -0.112867
   7 C :   -0.030934
   8 N :   -0.076074
   9 C :   -0.021434
  10 H :    0.207326
  11 H :    0.206841
  12 H :    0.191324
  13 H :    0.183533
  14 C :   -0.062019
  15 C :   -0.090617
  16 C :   -0.113466
  17 C :   -0.113427
  18 C :   -0.060856
  19 C :   -0.121932
  20 H :    0.195661
  21 H :    0.195002
  22 H :    0.187673
  23 H :    0.172777
  24 C :   -0.028075
  25 C :   -0.073438
  26 C :   -0.115487
  27 C :   -0.037087
  28 N :   -0.079166
  29 C :   -0.029849
  30 H :    0.203482
  31 H :    0.205031
  32 H :    0.190852
  33 H :    0.184537
  34 C :    0.023005
  35 C :   -0.047709
  36 C :   -0.041713
  37 C :   -0.061132
  38 C :   -0.112841
  39 C :   -0.030963
  40 N :   -0.076055
  41 C :   -0.021425
  42 H :    0.207334
  43 H :    0.206839
  44 H :    0.191321
  45 H :    0.183523
  46 C :   -0.062029
  47 C :   -0.090657
  48 C :   -0.113469
  49 C :   -0.113461
  50 C :   -0.060865
  51 C :   -0.121939
  52 H :    0.195658
  53 H :    0.194993
  54 H :    0.187674
  55 H :    0.172821
  56 C :   -0.028096
  57 C :   -0.073385
  58 C :   -0.115481
  59 C :   -0.037071
  60 N :   -0.079202
  61 C :   -0.029826
  62 H :    0.203502
  63 H :    0.205045
  64 H :    0.190830
  65 H :    0.184521
  66 C :    0.022992
  67 C :   -0.047724
  68 C :   -0.041701
  69 C :   -0.061151
  70 C :   -0.112868
  71 C :   -0.030945
  72 N :   -0.076070
  73 C :   -0.021437
  74 H :    0.207330
  75 H :    0.206842
  76 H :    0.191324
  77 H :    0.183517
  78 C :   -0.062011
  79 C :   -0.090586
  80 C :   -0.113443
  81 C :   -0.113377
  82 C :   -0.060845
  83 C :   -0.121919
  84 H :    0.195663
  85 H :    0.195016
  86 H :    0.187684
  87 H :    0.172747
  88 C :   -0.028048
  89 C :   -0.073421
  90 C :   -0.115502
  91 C :   -0.037094
  92 N :   -0.079175
  93 C :   -0.029818
  94 H :    0.203463
  95 H :    0.205023
  96 H :    0.190823
  97 H :    0.184549
  98 C :    0.022977
  99 C :   -0.047698
 100 C :   -0.041731
 101 C :   -0.061139
 102 C :   -0.112858
 103 C :   -0.030953
 104 N :   -0.076068
 105 C :   -0.021432
 106 H :    0.207335
 107 H :    0.206839
 108 H :    0.191324
 109 H :    0.183531
 110 C :   -0.062020
 111 C :   -0.090633
 112 C :   -0.113458
 113 C :   -0.113448
 114 C :   -0.060840
 115 C :   -0.121948
 116 H :    0.195664
 117 H :    0.194996
 118 H :    0.187674
 119 H :    0.172799
 120 C :   -0.028074
 121 C :   -0.073428
 122 C :   -0.115477
 123 C :   -0.037071
 124 N :   -0.079165
 125 C :   -0.029845
 126 H :    0.203485
 127 H :    0.205037
 128 H :    0.190830
 129 H :    0.184540

  Mayer bond orders larger than 0.100000
B(  0-Pd,  8-N ) :   0.5344 B(  0-Pd, 40-N ) :   0.5346 B(  0-Pd, 72-N ) :   0.5345
B(  0-Pd,104-N ) :   0.5345 B(  1-Pd, 28-N ) :   0.5131 B(  1-Pd, 60-N ) :   0.5133
B(  1-Pd, 92-N ) :   0.5133 B(  1-Pd,124-N ) :   0.5132 B(  2-C ,  3-C ) :   1.8500
B(  2-C ,  4-C ) :  -0.3027 B(  2-C , 14-C ) :   1.4903 B(  3-C ,  4-C ) :   1.4179
B(  3-C , 14-C ) :  -0.4067 B(  4-C ,  5-C ) :   1.3526 B(  4-C ,  9-C ) :   1.3266
B(  5-C ,  6-C ) :   1.4763 B(  5-C , 10-H ) :   0.9082 B(  6-C ,  7-C ) :   1.4171
B(  6-C , 11-H ) :   0.8675 B(  7-C ,  8-N ) :   1.3628 B(  7-C , 12-H ) :   0.9197
B(  8-N ,  9-C ) :   1.3567 B(  9-C , 13-H ) :   0.9533 B( 14-C , 15-C ) :   1.3629
B( 14-C , 19-C ) :   1.4053 B( 15-C , 16-C ) :   1.5425 B( 15-C , 20-H ) :   0.8796
B( 16-C , 17-C ) :   1.5860 B( 16-C , 21-H ) :   0.8676 B( 17-C , 18-C ) :   1.3645
B( 17-C , 22-H ) :   0.8422 B( 18-C , 19-C ) :   1.3504 B( 18-C , 24-C ) :   0.9182
B( 19-C , 23-H ) :   0.8759 B( 24-C , 25-C ) :   1.4324 B( 24-C , 29-C ) :   1.3664
B( 25-C , 26-C ) :   1.5207 B( 25-C , 30-H ) :   0.8675 B( 26-C , 27-C ) :   1.4484
B( 26-C , 31-H ) :   0.8618 B( 27-C , 28-N ) :   1.3369 B( 27-C , 32-H ) :   0.9225
B( 28-N , 29-C ) :   1.3856 B( 29-C , 33-H ) :   0.9182 B( 34-C , 35-C ) :   1.8499
B( 34-C , 36-C ) :  -0.3025 B( 34-C , 46-C ) :   1.4905 B( 35-C , 36-C ) :   1.4175
B( 35-C , 46-C ) :  -0.4066 B( 36-C , 37-C ) :   1.3529 B( 36-C , 41-C ) :   1.3271
B( 37-C , 38-C ) :   1.4762 B( 37-C , 42-H ) :   0.9082 B( 38-C , 39-C ) :   1.4172
B( 38-C , 43-H ) :   0.8675 B( 39-C , 40-N ) :   1.3628 B( 39-C , 44-H ) :   0.9197
B( 40-N , 41-C ) :   1.3567 B( 41-C , 45-H ) :   0.9531 B( 46-C , 47-C ) :   1.3629
B( 46-C , 51-C ) :   1.4055 B( 47-C , 48-C ) :   1.5424 B( 47-C , 52-H ) :   0.8796
B( 48-C , 49-C ) :   1.5859 B( 48-C , 53-H ) :   0.8677 B( 49-C , 50-C ) :   1.3648
B( 49-C , 54-H ) :   0.8423 B( 50-C , 51-C ) :   1.3506 B( 50-C , 56-C ) :   0.9177
B( 51-C , 55-H ) :   0.8756 B( 56-C , 57-C ) :   1.4324 B( 56-C , 61-C ) :   1.3668
B( 57-C , 58-C ) :   1.5206 B( 57-C , 62-H ) :   0.8677 B( 58-C , 59-C ) :   1.4484
B( 58-C , 63-H ) :   0.8618 B( 59-C , 60-N ) :   1.3371 B( 59-C , 64-H ) :   0.9224
B( 60-N , 61-C ) :   1.3854 B( 61-C , 65-H ) :   0.9182 B( 66-C , 67-C ) :   1.8499
B( 66-C , 68-C ) :  -0.3029 B( 66-C , 78-C ) :   1.4903 B( 67-C , 68-C ) :   1.4179
B( 67-C , 78-C ) :  -0.4067 B( 68-C , 69-C ) :   1.3526 B( 68-C , 73-C ) :   1.3268
B( 69-C , 70-C ) :   1.4765 B( 69-C , 74-H ) :   0.9083 B( 70-C , 71-C ) :   1.4169
B( 70-C , 75-H ) :   0.8675 B( 71-C , 72-N ) :   1.3628 B( 71-C , 76-H ) :   0.9197
B( 72-N , 73-C ) :   1.3566 B( 73-C , 77-H ) :   0.9532 B( 78-C , 79-C ) :   1.3628
B( 78-C , 83-C ) :   1.4054 B( 79-C , 80-C ) :   1.5425 B( 79-C , 84-H ) :   0.8796
B( 80-C , 81-C ) :   1.5861 B( 80-C , 85-H ) :   0.8676 B( 81-C , 82-C ) :   1.3645
B( 81-C , 86-H ) :   0.8421 B( 82-C , 83-C ) :   1.3501 B( 82-C , 88-C ) :   0.9186
B( 83-C , 87-H ) :   0.8758 B( 88-C , 89-C ) :   1.4325 B( 88-C , 93-C ) :   1.3660
B( 89-C , 90-C ) :   1.5207 B( 89-C , 94-H ) :   0.8675 B( 90-C , 91-C ) :   1.4488
B( 90-C , 95-H ) :   0.8618 B( 91-C , 92-N ) :   1.3368 B( 91-C , 96-H ) :   0.9224
B( 92-N , 93-C ) :   1.3856 B( 93-C , 97-H ) :   0.9184 B( 98-C , 99-C ) :   1.8498
B( 98-C ,100-C ) :  -0.3028 B( 98-C ,110-C ) :   1.4899 B( 99-C ,100-C ) :   1.4175
B( 99-C ,110-C ) :  -0.4068 B(100-C ,101-C ) :   1.3527 B(100-C ,105-C ) :   1.3269
B(101-C ,102-C ) :   1.4763 B(101-C ,106-H ) :   0.9082 B(102-C ,103-C ) :   1.4172
B(102-C ,107-H ) :   0.8675 B(103-C ,104-N ) :   1.3629 B(103-C ,108-H ) :   0.9197
B(104-N ,105-C ) :   1.3567 B(105-C ,109-H ) :   0.9531 B(110-C ,111-C ) :   1.3628
B(110-C ,115-C ) :   1.4053 B(111-C ,112-C ) :   1.5425 B(111-C ,116-H ) :   0.8796
B(112-C ,113-C ) :   1.5860 B(112-C ,117-H ) :   0.8677 B(113-C ,114-C ) :   1.3647
B(113-C ,118-H ) :   0.8422 B(114-C ,115-C ) :   1.3504 B(114-C ,120-C ) :   0.9181
B(115-C ,119-H ) :   0.8758 B(120-C ,121-C ) :   1.4324 B(120-C ,125-C ) :   1.3664
B(121-C ,122-C ) :   1.5208 B(121-C ,126-H ) :   0.8676 B(122-C ,123-C ) :   1.4484
B(122-C ,127-H ) :   0.8618 B(123-C ,124-N ) :   1.3372 B(123-C ,128-H ) :   0.9224
B(124-N ,125-C ) :   1.3854 B(125-C ,129-H ) :   0.9183

Dispersion correction           -0.485278265
FINAL SINGLE POINT ENERGY     -3464.236878569829

DIPOLE MOMENT
-------------
                                X             Y             Z
Electronic contribution:     -0.65019      59.48091       1.00965
Nuclear contribution   :      0.65169     -59.65115      -1.01503
                        -----------------------------------------
Total Dipole Moment    :      0.00150      -0.17024      -0.00538
                        -----------------------------------------
Magnitude (a.u.)       :      0.17033
Magnitude (Debye)      :      0.43295

Rotational constants in cm-1:     0.000815     0.000534     0.000533
Rotational constants in MHz :    24.447334    16.003390    15.976968

                             ****ORCA TERMINATED NORMALLY****
TOTAL RUN TIME: 0 days 0 hours 6 minutes 10 seconds 604 msec
