                         Program Version 4.2.1 -  RELEASE  -
|  1> ! DFT SP RKS PBE0 def2-SVP D3BJ Grid6 NOFINALGRID SlowConv TightSCF printbasis
|  2>
|  3> %base "_s_3d1_b_PBE0"
|  4> %maxcore 3000
|  5> %scf
|  6>    MaxIter 2000
|  7> end
|  8> %pal
|  9>    nprocs 32
| 10> end
| 11>
| 12> * xyzfile 4 1 s_3d1_b.xyz
| 13>
| 14>                          ****END OF INPUT****

CARTESIAN COORDINATES (ANGSTROEM)
---------------------------------
  Pd     0.292800    6.450100    0.340500
  Pd     0.093300   -3.195300    0.220900
  C      5.053800    0.710900    0.129900
  C      4.578200   -0.390900    0.271800
  C      4.012500   -1.673600    0.415700
  C      4.802700   -2.806800    0.652600
  C      4.188100   -4.040300    0.775900
  C      2.809400   -4.127400    0.656800
  N      2.061100   -3.046100    0.425200
  C      2.630400   -1.846300    0.309100
  H      5.873800   -2.708800    0.737800
  H      4.770100   -4.928500    0.961500
  H      2.284500   -5.074000    0.752700
  H      1.967000   -1.003100    0.117900
  C      5.568000    2.007600   -0.085000
  C      6.829900    2.178900   -0.659000
  C      7.292800    3.456500   -0.913900
  C      6.517100    4.561400   -0.606200
  C      5.259000    4.404400   -0.019500
  C      4.792400    3.119700    0.243000
  H      7.431500    1.318500   -0.907800
  H      8.264300    3.595100   -1.363200
  H      6.884900    5.546100   -0.848500
  H      3.844200    2.964500    0.732400
  C      4.434500    5.584800    0.283800
  C      5.002700    6.803200    0.670900
  C      4.189100    7.901700    0.893000
  C      2.819000    7.767000    0.746000
  N      2.271300    6.597900    0.406700
  C      3.045600    5.538000    0.173800
  H      6.069500    6.885800    0.807200
  H      4.612700    8.850300    1.180700
  H      2.139600    8.602300    0.900200
  H      2.532900    4.629000   -0.132600
  C      0.454000    2.487300    5.187700
  C      0.352600    3.616900    4.770700
  C      0.246100    4.919800    4.244500
  C      0.064700    6.043000    5.063000
  C     -0.033700    7.291800    4.475500
  C      0.050200    7.403400    3.095700
  N      0.230000    6.331800    2.320600
  C      0.326500    5.119000    2.864700
  H      0.000500    5.925900    6.133600
  H     -0.176100    8.173500    5.079200
  H     -0.029200    8.362500    2.592300
  H      0.478500    4.281500    2.183500
  C      0.618300    1.162100    5.644600
  C      1.200600    0.915700    6.890200
  C      1.403900   -0.389200    7.299200
  C      1.034200   -1.447100    6.486200
  C      0.437600   -1.214500    5.244300
  C      0.230100    0.098000    4.830200
  H      1.495800    1.740000    7.520700
  H      1.860400   -0.586000    8.257100
  H      1.235800   -2.455400    6.812000
  H     -0.261800    0.312300    3.894800
  C      0.069300   -2.351300    4.385400
  C     -0.368500   -3.565800    4.924400
  C     -0.639200   -4.633000    4.084600
  C     -0.484000   -4.472100    2.718700
  N     -0.099700   -3.303700    2.197800
  C      0.173600   -2.271700    2.997300
  H     -0.504500   -3.669200    5.989400
  H     -0.966700   -5.578700    4.485100
  H     -0.672200   -5.285300    2.021200
  H      0.508000   -1.361900    2.505400
  C     -4.690600    2.588300    0.553500
  C     -4.235900    3.704400    0.464400
  C     -3.663500    4.989300    0.387700
  C     -4.441400    6.154700    0.365400
  C     -3.807100    7.383500    0.310100
  C     -2.421600    7.433900    0.283600
  N     -1.684800    6.319900    0.304500
  C     -2.274000    5.126600    0.351300
  H     -5.517800    6.086200    0.392000
  H     -4.379600    8.296700    0.291000
  H     -1.880700    8.376300    0.243300
  H     -1.624600    4.253200    0.367600
  C     -5.191800    1.277300    0.697800
  C     -6.461100    1.064300    1.241100
  C     -6.917200   -0.228800    1.418200
  C     -6.128700   -1.308600    1.058400
  C     -4.862300   -1.108700    0.503500
  C     -4.399000    0.191100    0.325200
  H     -7.074500    1.905200    1.525200
  H     -7.894100   -0.399300    1.844100
  H     -6.492600   -2.308700    1.234400
  H     -3.440900    0.378500   -0.132700
  C     -4.033100   -2.266800    0.132500
  C     -4.602400   -3.435000   -0.385700
  C     -3.795200   -4.520000   -0.682800
  C     -2.430800   -4.421600   -0.471300
  N     -1.881500   -3.300600    0.001800
  C     -2.649500   -2.251100    0.301000
  H     -5.664800   -3.486100   -0.565200
  H     -4.218700   -5.429900   -1.076200
  H     -1.757100   -5.247600   -0.684900
  H     -2.134500   -1.383800    0.709500
  C     -0.100300    2.732900   -4.618300
  C      0.035100    3.858000   -4.198300
  C      0.157400    5.140800   -3.628800
  C      0.172000    6.313300   -4.396600
  C      0.264900    7.534400   -3.752200
  C      0.331700    7.572600   -2.366700
  N      0.318600    6.453700   -1.640500
  C      0.241200    5.266000   -2.240600
  H      0.109600    6.256100   -5.472200
  H      0.279800    8.452800   -4.316500
  H      0.398800    8.508500   -1.820400
  H      0.237600    4.382500   -1.600500
  C     -0.304100    1.419700   -5.092200
  C     -0.888400    1.208600   -6.343500
  C     -1.126100   -0.083100   -6.774900
  C     -0.783500   -1.163500   -5.979900
  C     -0.187500   -0.965900   -4.731800
  C      0.048600    0.332300   -4.291300
  H     -1.156600    2.051000   -6.962100
  H     -1.584400   -0.251600   -7.737400
  H     -1.003900   -2.162000   -6.323700
  H      0.537500    0.513800   -3.347300
  C      0.171200   -2.129300   -3.904400
  C      0.656200   -3.305000   -4.486300
  C      0.941000   -4.400400   -3.688700
  C      0.747900   -4.303500   -2.322200
  N      0.308500   -3.173500   -1.759800
  C      0.023800   -2.114200   -2.518100
  H      0.819400   -3.354100   -5.551400
  H      1.309100   -5.316400   -4.121600
  H      0.949800   -5.140400   -1.655800
  H     -0.354300   -1.240800   -1.994000

 Total Charge           Charge          ....    4
 Multiplicity           Mult            ....    1
 Number of Electrons    NEL             ....  568
 Basis Dimension        Dim             .... 1422

ORBITAL ENERGIES
----------------

  NO   OCC          E(Eh)            E(eV)
   0   2.0000     -14.778988      -402.1567
   1   2.0000     -14.777266      -402.1098
   2   2.0000     -14.777190      -402.1078
   3   2.0000     -14.776489      -402.0887
   4   2.0000     -14.776101      -402.0781
   5   2.0000     -14.775646      -402.0658
   6   2.0000     -14.775599      -402.0645
   7   2.0000     -14.773440      -402.0057
   8   2.0000     -10.611830      -288.7626
   9   2.0000     -10.610241      -288.7193
  10   2.0000     -10.610057      -288.7143
  11   2.0000     -10.609322      -288.6943
  12   2.0000     -10.606259      -288.6110
  13   2.0000     -10.605672      -288.5950
  14   2.0000     -10.605200      -288.5822
  15   2.0000     -10.604914      -288.5744
  16   2.0000     -10.603462      -288.5349
  17   2.0000     -10.603265      -288.5295
  18   2.0000     -10.603096      -288.5249
  19   2.0000     -10.602730      -288.5150
  20   2.0000     -10.601879      -288.4918
  21   2.0000     -10.601604      -288.4843
  22   2.0000     -10.601206      -288.4735
  23   2.0000     -10.599354      -288.4231
  24   2.0000     -10.589987      -288.1682
  25   2.0000     -10.588238      -288.1206
  26   2.0000     -10.588011      -288.1144
  27   2.0000     -10.587108      -288.0898
  28   2.0000     -10.574359      -287.7429
  29   2.0000     -10.574062      -287.7348
  30   2.0000     -10.573665      -287.7241
  31   2.0000     -10.571703      -287.6707
  32   2.0000     -10.571430      -287.6632
  33   2.0000     -10.569839      -287.6199
  34   2.0000     -10.569537      -287.6117
  35   2.0000     -10.568517      -287.5840
  36   2.0000     -10.566717      -287.5350
  37   2.0000     -10.566513      -287.5294
  38   2.0000     -10.565854      -287.5115
  39   2.0000     -10.563881      -287.4578
  40   2.0000     -10.563177      -287.4387
  41   2.0000     -10.561456      -287.3918
  42   2.0000     -10.561137      -287.3832
  43   2.0000     -10.560734      -287.3722
  44   2.0000     -10.560292      -287.3602
  45   2.0000     -10.559923      -287.3501
  46   2.0000     -10.559489      -287.3383
  47   2.0000     -10.557487      -287.2838
  48   2.0000     -10.548571      -287.0412
  49   2.0000     -10.548370      -287.0357
  50   2.0000     -10.548295      -287.0337
  51   2.0000     -10.547870      -287.0221
  52   2.0000     -10.544260      -286.9239
  53   2.0000     -10.544160      -286.9212
  54   2.0000     -10.544001      -286.9169
  55   2.0000     -10.542953      -286.8883
  56   2.0000     -10.540519      -286.8221
  57   2.0000     -10.539543      -286.7956
  58   2.0000     -10.539468      -286.7935
  59   2.0000     -10.538855      -286.7768
  60   2.0000     -10.538237      -286.7600
  61   2.0000     -10.538104      -286.7564
  62   2.0000     -10.537835      -286.7491
  63   2.0000     -10.537121      -286.7296
  64   2.0000     -10.532493      -286.6037
  65   2.0000     -10.531896      -286.5875
  66   2.0000     -10.531886      -286.5872
  67   2.0000     -10.531416      -286.5744
  68   2.0000     -10.526309      -286.4354
  69   2.0000     -10.526215      -286.4329
  70   2.0000     -10.525940      -286.4254
  71   2.0000     -10.525045      -286.4010
  72   2.0000     -10.524209      -286.3783
  73   2.0000     -10.523960      -286.3715
  74   2.0000     -10.523930      -286.3707
  75   2.0000     -10.523513      -286.3593
  76   2.0000     -10.515502      -286.1414
  77   2.0000     -10.515398      -286.1385
  78   2.0000     -10.515174      -286.1324
  79   2.0000     -10.514426      -286.1121
  80   2.0000      -3.875407      -105.4552
  81   2.0000      -3.874833      -105.4396
  82   2.0000      -2.552884       -69.4675
  83   2.0000      -2.552510       -69.4573
  84   2.0000      -2.552355       -69.4531
  85   2.0000      -2.552081       -69.4456
  86   2.0000      -2.515873       -68.4604
  87   2.0000      -2.515451       -68.4489
  88   2.0000      -1.330279       -36.1987
  89   2.0000      -1.330273       -36.1986
  90   2.0000      -1.323214       -36.0065
  91   2.0000      -1.323038       -36.0017
  92   2.0000      -1.322480       -35.9865
  93   2.0000      -1.320980       -35.9457
  94   2.0000      -1.320268       -35.9263
  95   2.0000      -1.319459       -35.9043
  96   2.0000      -1.189290       -32.3622
  97   2.0000      -1.188893       -32.3514
  98   2.0000      -1.188613       -32.3438
  99   2.0000      -1.187804       -32.3218
 100   2.0000      -1.167199       -31.7611
 101   2.0000      -1.166416       -31.7398
 102   2.0000      -1.164796       -31.6957
 103   2.0000      -1.163968       -31.6732
 104   2.0000      -1.153194       -31.3800
 105   2.0000      -1.151591       -31.3364
 106   2.0000      -1.151090       -31.3227
 107   2.0000      -1.150071       -31.2950
 108   2.0000      -1.127614       -30.6839
 109   2.0000      -1.126819       -30.6623
 110   2.0000      -1.125552       -30.6278
 111   2.0000      -1.124615       -30.6023
 112   2.0000      -1.122561       -30.5465
 113   2.0000      -1.121699       -30.5230
 114   2.0000      -1.121033       -30.5048
 115   2.0000      -1.119621       -30.4664
 116   2.0000      -1.090575       -29.6761
 117   2.0000      -1.090026       -29.6611
 118   2.0000      -1.089928       -29.6584
 119   2.0000      -1.089451       -29.6455
 120   2.0000      -1.058382       -28.8000
 121   2.0000      -1.057853       -28.7856
 122   2.0000      -1.057400       -28.7733
 123   2.0000      -1.056615       -28.7520
 124   2.0000      -1.045716       -28.4554
 125   2.0000      -1.045274       -28.4434
 126   2.0000      -1.044757       -28.4293
 127   2.0000      -1.043913       -28.4063
 128   2.0000      -0.995734       -27.0953
 129   2.0000      -0.995072       -27.0773
 130   2.0000      -0.994332       -27.0572
 131   2.0000      -0.992060       -26.9953
 132   2.0000      -0.984271       -26.7834
 133   2.0000      -0.983605       -26.7653
 134   2.0000      -0.982594       -26.7377
 135   2.0000      -0.980808       -26.6891
 136   2.0000      -0.977999       -26.6127
 137   2.0000      -0.977036       -26.5865
 138   2.0000      -0.975349       -26.5406
 139   2.0000      -0.974469       -26.5167
 140   2.0000      -0.973122       -26.4800
 141   2.0000      -0.973077       -26.4788
 142   2.0000      -0.971476       -26.4352
 143   2.0000      -0.970861       -26.4185
 144   2.0000      -0.929390       -25.2900
 145   2.0000      -0.928183       -25.2571
 146   2.0000      -0.927054       -25.2264
 147   2.0000      -0.926775       -25.2188
 148   2.0000      -0.916113       -24.9287
 149   2.0000      -0.914014       -24.8716
 150   2.0000      -0.913322       -24.8527
 151   2.0000      -0.912845       -24.8398
 152   2.0000      -0.902570       -24.5602
 153   2.0000      -0.896633       -24.3986
 154   2.0000      -0.892517       -24.2866
 155   2.0000      -0.887359       -24.1463
 156   2.0000      -0.885683       -24.1007
 157   2.0000      -0.880190       -23.9512
 158   2.0000      -0.876544       -23.8520
 159   2.0000      -0.876407       -23.8482
 160   2.0000      -0.850513       -23.1436
 161   2.0000      -0.848946       -23.1010
 162   2.0000      -0.848128       -23.0787
 163   2.0000      -0.846261       -23.0279
 164   2.0000      -0.840697       -22.8765
 165   2.0000      -0.839916       -22.8553
 166   2.0000      -0.839344       -22.8397
 167   2.0000      -0.838584       -22.8190
 168   2.0000      -0.838096       -22.8058
 169   2.0000      -0.837450       -22.7882
 170   2.0000      -0.836740       -22.7689
 171   2.0000      -0.835157       -22.7258
 172   2.0000      -0.827529       -22.5182
 173   2.0000      -0.825652       -22.4671
 174   2.0000      -0.824691       -22.4410
 175   2.0000      -0.822816       -22.3900
 176   2.0000      -0.806839       -21.9552
 177   2.0000      -0.804557       -21.8931
 178   2.0000      -0.802032       -21.8244
 179   2.0000      -0.799745       -21.7622
 180   2.0000      -0.798765       -21.7355
 181   2.0000      -0.795397       -21.6438
 182   2.0000      -0.789860       -21.4932
 183   2.0000      -0.786121       -21.3915
 184   2.0000      -0.783966       -21.3328
 185   2.0000      -0.782398       -21.2901
 186   2.0000      -0.781300       -21.2603
 187   2.0000      -0.779872       -21.2214
 188   2.0000      -0.779278       -21.2052
 189   2.0000      -0.777447       -21.1554
 190   2.0000      -0.776474       -21.1289
 191   2.0000      -0.775824       -21.1113
 192   2.0000      -0.775354       -21.0985
 193   2.0000      -0.774803       -21.0835
 194   2.0000      -0.773790       -21.0559
 195   2.0000      -0.773150       -21.0385
 196   2.0000      -0.771718       -20.9995
 197   2.0000      -0.771263       -20.9871
 198   2.0000      -0.770183       -20.9578
 199   2.0000      -0.766967       -20.8702
 200   2.0000      -0.766022       -20.8445
 201   2.0000      -0.765331       -20.8257
 202   2.0000      -0.759494       -20.6669
 203   2.0000      -0.756282       -20.5795
 204   2.0000      -0.755558       -20.5598
 205   2.0000      -0.754682       -20.5359
 206   2.0000      -0.750795       -20.4302
 207   2.0000      -0.748440       -20.3661
 208   2.0000      -0.745953       -20.2984
 209   2.0000      -0.745822       -20.2948
 210   2.0000      -0.745219       -20.2784
 211   2.0000      -0.744655       -20.2631
 212   2.0000      -0.728932       -19.8352
 213   2.0000      -0.728557       -19.8251
 214   2.0000      -0.728268       -19.8172
 215   2.0000      -0.727560       -19.7979
 216   2.0000      -0.717784       -19.5319
 217   2.0000      -0.717234       -19.5169
 218   2.0000      -0.714888       -19.4531
 219   2.0000      -0.713661       -19.4197
 220   2.0000      -0.706349       -19.2207
 221   2.0000      -0.705643       -19.2015
 222   2.0000      -0.705248       -19.1908
 223   2.0000      -0.703726       -19.1494
 224   2.0000      -0.702323       -19.1112
 225   2.0000      -0.701362       -19.0850
 226   2.0000      -0.700286       -19.0557
 227   2.0000      -0.698445       -19.0057
 228   2.0000      -0.697826       -18.9888
 229   2.0000      -0.694273       -18.8921
 230   2.0000      -0.693905       -18.8821
 231   2.0000      -0.692002       -18.8303
 232   2.0000      -0.689931       -18.7740
 233   2.0000      -0.678746       -18.4696
 234   2.0000      -0.668789       -18.1987
 235   2.0000      -0.666297       -18.1309
 236   2.0000      -0.665082       -18.0978
 237   2.0000      -0.663726       -18.0609
 238   2.0000      -0.659562       -17.9476
 239   2.0000      -0.659414       -17.9436
 240   2.0000      -0.659361       -17.9421
 241   2.0000      -0.658774       -17.9261
 242   2.0000      -0.656687       -17.8694
 243   2.0000      -0.656119       -17.8539
 244   2.0000      -0.655346       -17.8329
 245   2.0000      -0.652394       -17.7525
 246   2.0000      -0.649818       -17.6824
 247   2.0000      -0.648554       -17.6481
 248   2.0000      -0.648122       -17.6363
 249   2.0000      -0.644612       -17.5408
 250   2.0000      -0.644449       -17.5363
 251   2.0000      -0.642555       -17.4848
 252   2.0000      -0.642167       -17.4743
 253   2.0000      -0.640791       -17.4368
 254   2.0000      -0.629406       -17.1270
 255   2.0000      -0.629084       -17.1182
 256   2.0000      -0.627450       -17.0738
 257   2.0000      -0.620784       -16.8924
 258   2.0000      -0.618485       -16.8298
 259   2.0000      -0.617311       -16.7979
 260   2.0000      -0.615384       -16.7454
 261   2.0000      -0.611592       -16.6423
 262   2.0000      -0.611096       -16.6288
 263   2.0000      -0.608625       -16.5615
 264   2.0000      -0.607587       -16.5333
 265   2.0000      -0.606171       -16.4948
 266   2.0000      -0.597820       -16.2675
 267   2.0000      -0.596175       -16.2227
 268   2.0000      -0.594646       -16.1812
 269   2.0000      -0.593450       -16.1486
 270   2.0000      -0.593049       -16.1377
 271   2.0000      -0.590666       -16.0728
 272   2.0000      -0.579987       -15.7822
 273   2.0000      -0.578717       -15.7477
 274   2.0000      -0.577037       -15.7020
 275   2.0000      -0.576097       -15.6764
 276   2.0000      -0.550862       -14.9897
 277   2.0000      -0.550269       -14.9736
 278   2.0000      -0.549691       -14.9579
 279   2.0000      -0.548748       -14.9322
 280   2.0000      -0.530369       -14.4321
 281   2.0000      -0.529325       -14.4037
 282   2.0000      -0.528932       -14.3930
 283   2.0000      -0.527663       -14.3584
 284   0.0000      -0.368342       -10.0231
 285   0.0000      -0.367560       -10.0018
 286   0.0000      -0.366273        -9.9668
 287   0.0000      -0.362577        -9.8662
 288   0.0000      -0.361962        -9.8495

MULLIKEN ATOMIC CHARGES
-----------------------
   0 Pd:    0.394747
   1 Pd:    0.382160
   2 C :    0.033255
   3 C :   -0.021359
   4 C :   -0.104509
   5 C :    0.118271
   6 C :   -0.020263
   7 C :    0.127734
   8 N :   -0.302775
   9 C :    0.157241
  10 H :    0.084398
  11 H :    0.092593
  12 H :    0.094620
  13 H :    0.055576
  14 C :   -0.063138
  15 C :    0.051118
  16 C :    0.011952
  17 C :   -0.007298
  18 C :    0.043048
  19 C :   -0.013516
  20 H :    0.054683
  21 H :    0.072952
  22 H :    0.048387
  23 H :   -0.004390
  24 C :   -0.020159
  25 C :    0.065939
  26 C :   -0.013196
  27 C :    0.130857
  28 N :   -0.301457
  29 C :    0.134292
  30 H :    0.080953
  31 H :    0.089080
  32 H :    0.088403
  33 H :    0.045515
  34 C :    0.031369
  35 C :   -0.018403
  36 C :   -0.103892
  37 C :    0.119316
  38 C :   -0.020985
  39 C :    0.131356
  40 N :   -0.302237
  41 C :    0.160399
  42 H :    0.084102
  43 H :    0.093264
  44 H :    0.087590
  45 H :    0.053337
  46 C :   -0.063734
  47 C :    0.051588
  48 C :    0.012026
  49 C :   -0.009282
  50 C :    0.042406
  51 C :   -0.011814
  52 H :    0.055627
  53 H :    0.072748
  54 H :    0.047275
  55 H :   -0.004550
  56 C :   -0.022294
  57 C :    0.065420
  58 C :   -0.013491
  59 C :    0.128403
  60 N :   -0.307156
  61 C :    0.132376
  62 H :    0.081463
  63 H :    0.088321
  64 H :    0.094068
  65 H :    0.048891
  66 C :    0.032370
  67 C :   -0.016346
  68 C :   -0.106053
  69 C :    0.118784
  70 C :   -0.019161
  71 C :    0.130468
  72 N :   -0.301570
  73 C :    0.163290
  74 H :    0.083894
  75 H :    0.092757
  76 H :    0.094186
  77 H :    0.044171
  78 C :   -0.063022
  79 C :    0.051583
  80 C :    0.011869
  81 C :   -0.007517
  82 C :    0.038357
  83 C :   -0.010216
  84 H :    0.055761
  85 H :    0.073042
  86 H :    0.047560
  87 H :   -0.006633
  88 C :   -0.023629
  89 C :    0.067337
  90 C :   -0.014269
  91 C :    0.125319
  92 N :   -0.305527
  93 C :    0.130767
  94 H :    0.081338
  95 H :    0.088694
  96 H :    0.090805
  97 H :    0.058213
  98 C :    0.033946
  99 C :   -0.018889
 100 C :   -0.102691
 101 C :    0.120382
 102 C :   -0.021520
 103 C :    0.134408
 104 N :   -0.300396
 105 C :    0.153484
 106 H :    0.083934
 107 H :    0.093493
 108 H :    0.093896
 109 H :    0.050989
 110 C :   -0.063327
 111 C :    0.051561
 112 C :    0.011943
 113 C :   -0.008094
 114 C :    0.035537
 115 C :   -0.007178
 116 H :    0.056196
 117 H :    0.072868
 118 H :    0.047148
 119 H :   -0.005994
 120 C :   -0.027860
 121 C :    0.067540
 122 C :   -0.012790
 123 C :    0.124246
 124 N :   -0.305825
 125 C :    0.136641
 126 H :    0.082102
 127 H :    0.088552
 128 H :    0.087977
 129 H :    0.051875
Sum of atomic charges:    4.0000000

LOEWDIN ATOMIC CHARGES
----------------------
   0 Pd:   -0.346735
   1 Pd:   -0.350486
   2 C :    0.032498
   3 C :   -0.054919
   4 C :   -0.032042
   5 C :    0.075167
   6 C :    0.010143
   7 C :    0.069403
   8 N :    0.071274
   9 C :    0.073941
  10 H :    0.069064
  11 H :    0.070676
  12 H :    0.059802
  13 H :    0.052421
  14 C :   -0.051461
  15 C :    0.036522
  16 C :    0.013441
  17 C :    0.015549
  18 C :   -0.035113
  19 C :    0.000595
  20 H :    0.055700
  21 H :    0.060081
  22 H :    0.047706
  23 H :    0.029115
  24 C :   -0.005865
  25 C :    0.060845
  26 C :    0.010688
  27 C :    0.068523
  28 N :    0.070853
  29 C :    0.066355
  30 H :    0.062673
  31 H :    0.069566
  32 H :    0.058615
  33 H :    0.044873
  34 C :    0.030247
  35 C :   -0.051988
  36 C :   -0.032089
  37 C :    0.075386
  38 C :    0.010560
  39 C :    0.069785
  40 N :    0.070721
  41 C :    0.075897
  42 H :    0.069076
  43 H :    0.070821
  44 H :    0.058261
  45 H :    0.051801
  46 C :   -0.050533
  47 C :    0.037063
  48 C :    0.013208
  49 C :    0.013849
  50 C :   -0.035977
  51 C :    0.000328
  52 H :    0.056125
  53 H :    0.059986
  54 H :    0.047073
  55 H :    0.029154
  56 C :   -0.006156
  57 C :    0.060541
  58 C :    0.009624
  59 C :    0.067982
  60 N :    0.069658
  61 C :    0.065205
  62 H :    0.062748
  63 H :    0.069314
  64 H :    0.059365
  65 H :    0.045185
  66 C :    0.029976
  67 C :   -0.051023
  68 C :   -0.031911
  69 C :    0.075115
  70 C :    0.010768
  71 C :    0.070389
  72 N :    0.071000
  73 C :    0.075383
  74 H :    0.068986
  75 H :    0.070820
  76 H :    0.060339
  77 H :    0.049278
  78 C :   -0.050343
  79 C :    0.037334
  80 C :    0.013300
  81 C :    0.013798
  82 C :   -0.036399
  83 C :    0.000158
  84 H :    0.056205
  85 H :    0.060074
  86 H :    0.047294
  87 H :    0.028766
  88 C :   -0.006328
  89 C :    0.060607
  90 C :    0.009396
  91 C :    0.066203
  92 N :    0.069264
  93 C :    0.066144
  94 H :    0.062840
  95 H :    0.069257
  96 H :    0.058193
  97 H :    0.048186
  98 C :    0.028999
  99 C :   -0.050010
 100 C :   -0.031878
 101 C :    0.074861
 102 C :    0.011304
 103 C :    0.073024
 104 N :    0.071990
 105 C :    0.073699
 106 H :    0.069014
 107 H :    0.071015
 108 H :    0.060208
 109 H :    0.050970
 110 C :   -0.050111
 111 C :    0.037530
 112 C :    0.013015
 113 C :    0.012862
 114 C :   -0.036784
 115 C :    0.000219
 116 H :    0.056386
 117 H :    0.060001
 118 H :    0.047010
 119 H :    0.029124
 120 C :   -0.006178
 121 C :    0.060962
 122 C :    0.009600
 123 C :    0.064815
 124 N :    0.069167
 125 C :    0.066851
 126 H :    0.063149
 127 H :    0.069313
 128 H :    0.058537
 129 H :    0.046579

  Mayer bond orders larger than 0.100000
B(  0-Pd, 28-N ) :   0.5511 B(  0-Pd, 40-N ) :   0.5412 B(  0-Pd, 72-N ) :   0.5425
B(  0-Pd,104-N ) :   0.5454 B(  1-Pd,  8-N ) :   0.5447 B(  1-Pd, 60-N ) :   0.5487
B(  1-Pd, 92-N ) :   0.5479 B(  1-Pd,124-N ) :   0.5446 B(  2-C ,  3-C ) :   2.6078
B(  2-C , 14-C ) :   1.0060 B(  3-C ,  4-C ) :   1.0140 B(  4-C ,  5-C ) :   1.3392
B(  4-C ,  9-C ) :   1.3725 B(  5-C ,  6-C ) :   1.4037 B(  5-C , 10-H ) :   0.9861
B(  6-C ,  7-C ) :   1.4189 B(  6-C , 11-H ) :   0.9714 B(  7-C ,  8-N ) :   1.3152
B(  7-C , 12-H ) :   0.9516 B(  8-N ,  9-C ) :   1.3262 B(  9-C , 13-H ) :   0.9621
B( 14-C , 15-C ) :   1.3284 B( 14-C , 19-C ) :   1.3433 B( 15-C , 16-C ) :   1.3862
B( 15-C , 20-H ) :   0.9959 B( 16-C , 17-C ) :   1.3970 B( 16-C , 21-H ) :   0.9818
B( 17-C , 18-C ) :   1.3576 B( 17-C , 22-H ) :   0.9879 B( 18-C , 19-C ) :   1.3637
B( 18-C , 24-C ) :   1.0088 B( 19-C , 23-H ) :   0.9847 B( 24-C , 25-C ) :   1.3727
B( 24-C , 29-C ) :   1.4055 B( 25-C , 26-C ) :   1.4058 B( 25-C , 30-H ) :   0.9793
B( 26-C , 27-C ) :   1.4260 B( 26-C , 31-H ) :   0.9713 B( 27-C , 28-N ) :   1.3150
B( 27-C , 32-H ) :   0.9514 B( 28-N , 29-C ) :   1.3239 B( 29-C , 33-H ) :   0.9535
B( 34-C , 35-C ) :   2.6086 B( 34-C , 46-C ) :   1.0054 B( 35-C , 36-C ) :   1.0129
B( 36-C , 37-C ) :   1.3383 B( 36-C , 41-C ) :   1.3782 B( 37-C , 38-C ) :   1.4036
B( 37-C , 42-H ) :   0.9864 B( 38-C , 39-C ) :   1.4188 B( 38-C , 43-H ) :   0.9713
B( 39-C , 40-N ) :   1.3183 B( 39-C , 44-H ) :   0.9556 B( 40-N , 41-C ) :   1.3238
B( 41-C , 45-H ) :   0.9591 B( 46-C , 47-C ) :   1.3292 B( 46-C , 51-C ) :   1.3437
B( 47-C , 48-C ) :   1.3857 B( 47-C , 52-H ) :   0.9959 B( 48-C , 49-C ) :   1.3973
B( 48-C , 53-H ) :   0.9820 B( 49-C , 50-C ) :   1.3570 B( 49-C , 54-H ) :   0.9879
B( 50-C , 51-C ) :   1.3636 B( 50-C , 56-C ) :   1.0087 B( 51-C , 55-H ) :   0.9850
B( 56-C , 57-C ) :   1.3721 B( 56-C , 61-C ) :   1.4042 B( 57-C , 58-C ) :   1.4053
B( 57-C , 62-H ) :   0.9794 B( 58-C , 59-C ) :   1.4277 B( 58-C , 63-H ) :   0.9713
B( 59-C , 60-N ) :   1.3126 B( 59-C , 64-H ) :   0.9464 B( 60-N , 61-C ) :   1.3268
B( 61-C , 65-H ) :   0.9534 B( 66-C , 67-C ) :   2.6053 B( 66-C , 78-C ) :   1.0068
B( 67-C , 68-C ) :   1.0158 B( 68-C , 69-C ) :   1.3379 B( 68-C , 73-C ) :   1.3774
B( 69-C , 70-C ) :   1.4025 B( 69-C , 74-H ) :   0.9864 B( 70-C , 71-C ) :   1.4210
B( 70-C , 75-H ) :   0.9713 B( 71-C , 72-N ) :   1.3117 B( 71-C , 76-H ) :   0.9517
B( 72-N , 73-C ) :   1.3295 B( 73-C , 77-H ) :   0.9620 B( 78-C , 79-C ) :   1.3285
B( 78-C , 83-C ) :   1.3420 B( 79-C , 80-C ) :   1.3859 B( 79-C , 84-H ) :   0.9959
B( 80-C , 81-C ) :   1.3959 B( 80-C , 85-H ) :   0.9821 B( 81-C , 82-C ) :   1.3570
B( 81-C , 86-H ) :   0.9886 B( 82-C , 83-C ) :   1.3653 B( 82-C , 88-C ) :   1.0055
B( 83-C , 87-H ) :   0.9861 B( 88-C , 89-C ) :   1.3734 B( 88-C , 93-C ) :   1.4033
B( 89-C , 90-C ) :   1.4057 B( 89-C , 94-H ) :   0.9796 B( 90-C , 91-C ) :   1.4253
B( 90-C , 95-H ) :   0.9716 B( 91-C , 92-N ) :   1.3168 B( 91-C , 96-H ) :   0.9492
B( 92-N , 93-C ) :   1.3223 B( 93-C , 97-H ) :   0.9539 B( 98-C , 99-C ) :   2.6053
B( 98-C ,110-C ) :   1.0072 B( 99-C ,100-C ) :   1.0171 B(100-C ,101-C ) :   1.3341
B(100-C ,105-C ) :   1.3817 B(101-C ,102-C ) :   1.4049 B(101-C ,106-H ) :   0.9863
B(102-C ,103-C ) :   1.4167 B(102-C ,107-H ) :   0.9712 B(103-C ,104-N ) :   1.3215
B(103-C ,108-H ) :   0.9536 B(104-N ,105-C ) :   1.3205 B(105-C ,109-H ) :   0.9588
B(110-C ,111-C ) :   1.3297 B(110-C ,115-C ) :   1.3401 B(111-C ,112-C ) :   1.3855
B(111-C ,116-H ) :   0.9959 B(112-C ,113-C ) :   1.3958 B(112-C ,117-H ) :   0.9823
B(113-C ,114-C ) :   1.3563 B(113-C ,118-H ) :   0.9888 B(114-C ,115-C ) :   1.3676
B(114-C ,120-C ) :   1.0042 B(115-C ,119-H ) :   0.9866 B(120-C ,121-C ) :   1.3754
B(120-C ,125-C ) :   1.4016 B(121-C ,122-C ) :   1.4028 B(121-C ,126-H ) :   0.9800
B(122-C ,123-C ) :   1.4295 B(122-C ,127-H ) :   0.9716 B(123-C ,124-N ) :   1.3092
B(123-C ,128-H ) :   0.9489 B(124-N ,125-C ) :   1.3312 B(125-C ,129-H ) :   0.9572

Dispersion correction           -0.206149404
FINAL SINGLE POINT ENERGY     -3459.290339988639

DIPOLE MOMENT
-------------
                                X             Y             Z
Electronic contribution:      2.45428      29.78942      -0.55040
Nuclear contribution   :     -2.50576     -29.77772       0.58353
                        -----------------------------------------
Total Dipole Moment    :     -0.05148       0.01170       0.03313
                        -----------------------------------------
Magnitude (a.u.)       :      0.06232
Magnitude (Debye)      :      0.15842

Rotational constants in cm-1:     0.000827     0.000529     0.000525
Rotational constants in MHz :    24.800545    15.873873    15.728468

                             ****ORCA TERMINATED NORMALLY****
TOTAL RUN TIME: 0 days 0 hours 10 minutes 0 seconds 408 msec
