                         Program Version 4.2.1 -  RELEASE  -
|  1> ! DFT SP RKS PBE0 def2-SVP D3BJ Grid6 NOFINALGRID SlowConv TightSCF printbasis
|  2>
|  3> %base "_s_3d1_a_PBE0"
|  4> %maxcore 3000
|  5> %scf
|  6>    MaxIter 2000
|  7> end
|  8> %pal
|  9>    nprocs 32
| 10> end
| 11>
| 12> * xyzfile 4 1 s_3d1_a.xyz
| 13>
| 14>                          ****END OF INPUT****

CARTESIAN COORDINATES (ANGSTROEM)
---------------------------------
  Pd    -0.093000    6.230800    0.242300
  Pd    -0.015600   -3.365800    0.123800
  C      4.878700    2.474800    0.254200
  C      4.451500    3.603500    0.314200
  C      3.877800    4.889500    0.355500
  C      4.644900    6.061200    0.406300
  C      3.998100    7.284600    0.425000
  C      2.611800    7.324700    0.388300
  N      1.886000    6.205800    0.340200
  C      2.487500    5.017300    0.327300
  H      5.721900    6.001900    0.429700
  H      4.561700    8.202700    0.464700
  H      2.063100    8.262200    0.396600
  H      1.848500    4.135100    0.288700
  C      5.359000    1.152900    0.141300
  C      6.659000    0.912400   -0.310000
  C      7.097700   -0.390200   -0.458900
  C      6.261500   -1.452100   -0.159200
  C      4.963200   -1.224700    0.304400
  C      4.516300    0.084400    0.451700
  H      7.309600    1.740200   -0.545700
  H      8.098500   -0.581800   -0.814500
  H      6.614700   -2.460000   -0.311100
  H      3.531200    0.291200    0.838900
  C      4.089800   -2.368200    0.614800
  C      4.605100   -3.538000    1.182600
  C      3.768000   -4.616100    1.415100
  C      2.427900   -4.509200    1.087200
  N      1.926800   -3.384000    0.569000
  C      2.724300   -2.340300    0.334600
  H      5.648700   -3.596000    1.449100
  H      4.150200   -5.527600    1.845300
  H      1.734200   -5.332600    1.242700
  H      2.250700   -1.469700   -0.112000
  C     -0.109200    2.373900    5.136100
  C     -0.166500    3.511300    4.732100
  C     -0.205000    4.808900    4.184900
  C     -0.249200    5.964700    4.976000
  C     -0.265200    7.201200    4.354400
  C     -0.232000    7.269500    2.969100
  N     -0.190200    6.165500    2.220400
  C     -0.180300    4.965000    2.797400
  H     -0.269700    5.883500    6.051600
  H     -0.300000    8.107700    4.936700
  H     -0.238400    8.218100    2.439800
  H     -0.147100    4.095900    2.140400
  C      0.000100    1.042000    5.588700
  C      0.455700    0.772800    6.881500
  C      0.600500   -0.539200    7.292700
  C      0.292500   -1.582400    6.436200
  C     -0.175200   -1.326200    5.144800
  C     -0.318500   -0.007600    4.725500
  H      0.697800    1.586000    7.548000
  H      0.959400   -0.752900    8.287900
  H      0.441300   -2.598000    6.768000
  H     -0.708900    0.221000    3.746500
  C     -0.494200   -2.450000    4.249200
  C     -1.066000   -3.627500    4.742200
  C     -1.306700   -4.686800    3.883700
  C     -0.982400   -4.554000    2.545100
  N     -0.459900   -3.421400    2.065600
  C     -0.218100   -2.395400    2.883700
  H     -1.329200   -3.705800    5.785400
  H     -1.740400   -5.603900    4.248400
  H     -1.144300   -5.362100    1.835100
  H      0.231200   -1.517300    2.426700
  C     -5.003300    2.395400    0.125200
  C     -4.593900    3.531900    0.095800
  C     -4.041100    4.827700    0.088700
  C     -4.827200    5.987600    0.065200
  C     -4.200600    7.221400    0.079200
  C     -2.815200    7.283300    0.120600
  N     -2.071200    6.175500    0.142600
  C     -2.653200    4.977400    0.124200
  H     -5.903100    5.911300    0.037200
  H     -4.779000    8.131000    0.061000
  H     -2.282000    8.229500    0.137100
  H     -1.999900    4.105100    0.142800
  C     -5.463000    1.063700    0.202500
  C     -6.761200    0.791600    0.640900
  C     -7.179900   -0.521000    0.754900
  C     -6.325600   -1.561800    0.433100
  C     -5.028900   -1.302600   -0.018000
  C     -4.602100    0.016600   -0.130400
  H     -7.425900    1.602900    0.893900
  H     -8.179300   -0.737200    1.100500
  H     -6.663600   -2.578600    0.558200
  H     -3.618700    0.248600   -0.507400
  C     -4.136100   -2.424100   -0.352400
  C     -4.630600   -3.588000   -0.950300
  C     -3.775500   -4.646800   -1.205200
  C     -2.438500   -4.526400   -0.869800
  N     -1.957200   -3.406000   -0.323100
  C     -2.772200   -2.381200   -0.066400
  H     -5.672100   -3.656200   -1.222300
  H     -4.141600   -5.553700   -1.658400
  H     -1.731200   -5.334700   -1.042400
  H     -2.314100   -1.514400    0.403100
  C     -0.008000    2.496000   -4.745000
  C      0.029200    3.624000   -4.313000
  C      0.044900    4.908200   -3.734000
  C      0.070100    6.083700   -4.496400
  C      0.064300    7.304600   -3.844600
  C      0.028800    7.338300   -2.458100
  N      0.005100    6.215700   -1.736800
  C      0.016200    5.029600   -2.343200
  H      0.092900    6.029400   -5.573700
  H      0.084000    8.225700   -4.404400
  H      0.018600    8.273500   -1.905600
  H     -0.003000    4.144300   -1.707700
  C     -0.093900    1.174200   -5.230900
  C     -0.541200    0.930000   -6.531600
  C     -0.663300   -0.373500   -6.975800
  C     -0.340900   -1.432600   -6.144500
  C      0.118800   -1.201200   -4.845600
  C      0.239300    0.108700   -4.393000
  H     -0.794600    1.755500   -7.178500
  H     -1.015600   -0.568200   -7.977200
  H     -0.472100   -2.441900   -6.501900
  H      0.623000    0.319300   -3.407400
  C      0.453500   -2.341700   -3.977200
  C      1.045000   -3.497400   -4.497800
  C      1.300300   -4.573900   -3.665300
  C      0.971100   -4.479500   -2.324600
  N      0.430000   -3.367400   -1.818500
  C      0.173600   -2.325300   -2.611500
  H      1.311800   -3.545500   -5.541800
  H      1.749000   -5.474800   -4.051600
  H      1.144100   -5.302300   -1.634500
  H     -0.290500   -1.466200   -2.133900

 Total Charge           Charge          ....    4
 Multiplicity           Mult            ....    1
 Number of Electrons    NEL             ....  568
 Basis Dimension        Dim             .... 1422

ORBITAL ENERGIES
----------------

  NO   OCC          E(Eh)            E(eV)
   0   2.0000     -14.777195      -402.1079
   1   2.0000     -14.777156      -402.1069
   2   2.0000     -14.777144      -402.1065
   3   2.0000     -14.777132      -402.1062
   4   2.0000     -14.776210      -402.0811
   5   2.0000     -14.776120      -402.0787
   6   2.0000     -14.776119      -402.0786
   7   2.0000     -14.776085      -402.0777
   8   2.0000     -10.608949      -288.6842
   9   2.0000     -10.608936      -288.6838
  10   2.0000     -10.608926      -288.6835
  11   2.0000     -10.608898      -288.6828
  12   2.0000     -10.607084      -288.6334
  13   2.0000     -10.607080      -288.6333
  14   2.0000     -10.607051      -288.6325
  15   2.0000     -10.607042      -288.6323
  16   2.0000     -10.603314      -288.5308
  17   2.0000     -10.603310      -288.5307
  18   2.0000     -10.603272      -288.5297
  19   2.0000     -10.603262      -288.5294
  20   2.0000     -10.601588      -288.4839
  21   2.0000     -10.601577      -288.4836
  22   2.0000     -10.601568      -288.4833
  23   2.0000     -10.601537      -288.4825
  24   2.0000     -10.586749      -288.0801
  25   2.0000     -10.586741      -288.0799
  26   2.0000     -10.586730      -288.0796
  27   2.0000     -10.586715      -288.0792
  28   2.0000     -10.575328      -287.7693
  29   2.0000     -10.575323      -287.7692
  30   2.0000     -10.575302      -287.7686
  31   2.0000     -10.575284      -287.7681
  32   2.0000     -10.568271      -287.5773
  33   2.0000     -10.568257      -287.5769
  34   2.0000     -10.568241      -287.5764
  35   2.0000     -10.568230      -287.5762
  36   2.0000     -10.567773      -287.5637
  37   2.0000     -10.567763      -287.5634
  38   2.0000     -10.567746      -287.5630
  39   2.0000     -10.567740      -287.5628
  40   2.0000     -10.561691      -287.3982
  41   2.0000     -10.561688      -287.3981
  42   2.0000     -10.561651      -287.3971
  43   2.0000     -10.561641      -287.3969
  44   2.0000     -10.559721      -287.3446
  45   2.0000     -10.559706      -287.3442
  46   2.0000     -10.559694      -287.3439
  47   2.0000     -10.559688      -287.3437
  48   2.0000     -10.548696      -287.0446
  49   2.0000     -10.548679      -287.0442
  50   2.0000     -10.548652      -287.0434
  51   2.0000     -10.548648      -287.0433
  52   2.0000     -10.544750      -286.9372
  53   2.0000     -10.544740      -286.9369
  54   2.0000     -10.544706      -286.9360
  55   2.0000     -10.544702      -286.9359
  56   2.0000     -10.538694      -286.7724
  57   2.0000     -10.538661      -286.7715
  58   2.0000     -10.538644      -286.7711
  59   2.0000     -10.538639      -286.7709
  60   2.0000     -10.538557      -286.7687
  61   2.0000     -10.538543      -286.7683
  62   2.0000     -10.538523      -286.7678
  63   2.0000     -10.538505      -286.7673
  64   2.0000     -10.531365      -286.5730
  65   2.0000     -10.531327      -286.5720
  66   2.0000     -10.531313      -286.5716
  67   2.0000     -10.531309      -286.5715
  68   2.0000     -10.526724      -286.4467
  69   2.0000     -10.526716      -286.4465
  70   2.0000     -10.526689      -286.4458
  71   2.0000     -10.526679      -286.4455
  72   2.0000     -10.524281      -286.3802
  73   2.0000     -10.524264      -286.3798
  74   2.0000     -10.524234      -286.3790
  75   2.0000     -10.524228      -286.3788
  76   2.0000     -10.515808      -286.1497
  77   2.0000     -10.515792      -286.1492
  78   2.0000     -10.515775      -286.1488
  79   2.0000     -10.515752      -286.1482
  80   2.0000      -3.875967      -105.4704
  81   2.0000      -3.874672      -105.4352
  82   2.0000      -2.553229       -69.4769
  83   2.0000      -2.553200       -69.4761
  84   2.0000      -2.552122       -69.4468
  85   2.0000      -2.552092       -69.4460
  86   2.0000      -2.516292       -68.4718
  87   2.0000      -2.515303       -68.4449
  88   2.0000      -1.330090       -36.1936
  89   2.0000      -1.330048       -36.1925
  90   2.0000      -1.322265       -35.9807
  91   2.0000      -1.322236       -35.9799
  92   2.0000      -1.322150       -35.9775
  93   2.0000      -1.322117       -35.9766
  94   2.0000      -1.321636       -35.9635
  95   2.0000      -1.321042       -35.9474
  96   2.0000      -1.190020       -32.3821
  97   2.0000      -1.189407       -32.3654
  98   2.0000      -1.189367       -32.3643
  99   2.0000      -1.189361       -32.3642
 100   2.0000      -1.166345       -31.7379
 101   2.0000      -1.163934       -31.6723
 102   2.0000      -1.163448       -31.6590
 103   2.0000      -1.163440       -31.6588
 104   2.0000      -1.154721       -31.4216
 105   2.0000      -1.152543       -31.3623
 106   2.0000      -1.152157       -31.3518
 107   2.0000      -1.152155       -31.3517
 108   2.0000      -1.126625       -30.6570
 109   2.0000      -1.125147       -30.6168
 110   2.0000      -1.125135       -30.6165
 111   2.0000      -1.124135       -30.5893
 112   2.0000      -1.123487       -30.5716
 113   2.0000      -1.122436       -30.5430
 114   2.0000      -1.122425       -30.5427
 115   2.0000      -1.121165       -30.5085
 116   2.0000      -1.090660       -29.6784
 117   2.0000      -1.090126       -29.6638
 118   2.0000      -1.090119       -29.6636
 119   2.0000      -1.089672       -29.6515
 120   2.0000      -1.059020       -28.8174
 121   2.0000      -1.058537       -28.8043
 122   2.0000      -1.058534       -28.8042
 123   2.0000      -1.057986       -28.7893
 124   2.0000      -1.045321       -28.4446
 125   2.0000      -1.044552       -28.4237
 126   2.0000      -1.044544       -28.4235
 127   2.0000      -1.043424       -28.3930
 128   2.0000      -0.995333       -27.0844
 129   2.0000      -0.994078       -27.0502
 130   2.0000      -0.994063       -27.0498
 131   2.0000      -0.991226       -26.9726
 132   2.0000      -0.984912       -26.8008
 133   2.0000      -0.984389       -26.7866
 134   2.0000      -0.984377       -26.7863
 135   2.0000      -0.982050       -26.7229
 136   2.0000      -0.977862       -26.6090
 137   2.0000      -0.976484       -26.5715
 138   2.0000      -0.975598       -26.5474
 139   2.0000      -0.973676       -26.4951
 140   2.0000      -0.973634       -26.4939
 141   2.0000      -0.973629       -26.4938
 142   2.0000      -0.971328       -26.4312
 143   2.0000      -0.971319       -26.4309
 144   2.0000      -0.929865       -25.3029
 145   2.0000      -0.928317       -25.2608
 146   2.0000      -0.927457       -25.2374
 147   2.0000      -0.927441       -25.2370
 148   2.0000      -0.917490       -24.9662
 149   2.0000      -0.914921       -24.8963
 150   2.0000      -0.913500       -24.8576
 151   2.0000      -0.913496       -24.8575
 152   2.0000      -0.903500       -24.5855
 153   2.0000      -0.894760       -24.3477
 154   2.0000      -0.890664       -24.2362
 155   2.0000      -0.886898       -24.1337
 156   2.0000      -0.886889       -24.1335
 157   2.0000      -0.881757       -23.9938
 158   2.0000      -0.877110       -23.8674
 159   2.0000      -0.877101       -23.8671
 160   2.0000      -0.849800       -23.1242
 161   2.0000      -0.847758       -23.0687
 162   2.0000      -0.847749       -23.0684
 163   2.0000      -0.844977       -22.9930
 164   2.0000      -0.840354       -22.8672
 165   2.0000      -0.840307       -22.8659
 166   2.0000      -0.840303       -22.8658
 167   2.0000      -0.838985       -22.8299
 168   2.0000      -0.838682       -22.8217
 169   2.0000      -0.838681       -22.8217
 170   2.0000      -0.838381       -22.8135
 171   2.0000      -0.837288       -22.7838
 172   2.0000      -0.827112       -22.5069
 173   2.0000      -0.824308       -22.4306
 174   2.0000      -0.824300       -22.4303
 175   2.0000      -0.821967       -22.3669
 176   2.0000      -0.807322       -21.9683
 177   2.0000      -0.803751       -21.8712
 178   2.0000      -0.803026       -21.8515
 179   2.0000      -0.800789       -21.7906
 180   2.0000      -0.796458       -21.6727
 181   2.0000      -0.793835       -21.6013
 182   2.0000      -0.790514       -21.5110
 183   2.0000      -0.790495       -21.5105
 184   2.0000      -0.783233       -21.3129
 185   2.0000      -0.782615       -21.2960
 186   2.0000      -0.780745       -21.2452
 187   2.0000      -0.779732       -21.2176
 188   2.0000      -0.779706       -21.2169
 189   2.0000      -0.776728       -21.1359
 190   2.0000      -0.776683       -21.1346
 191   2.0000      -0.776378       -21.1263
 192   2.0000      -0.776035       -21.1170
 193   2.0000      -0.774297       -21.0697
 194   2.0000      -0.774277       -21.0691
 195   2.0000      -0.772475       -21.0201
 196   2.0000      -0.772242       -21.0138
 197   2.0000      -0.772102       -21.0100
 198   2.0000      -0.770410       -20.9639
 199   2.0000      -0.769255       -20.9325
 200   2.0000      -0.766033       -20.8448
 201   2.0000      -0.765978       -20.8433
 202   2.0000      -0.761449       -20.7201
 203   2.0000      -0.756782       -20.5931
 204   2.0000      -0.756767       -20.5927
 205   2.0000      -0.754967       -20.5437
 206   2.0000      -0.751696       -20.4547
 207   2.0000      -0.747597       -20.3431
 208   2.0000      -0.746254       -20.3066
 209   2.0000      -0.746242       -20.3063
 210   2.0000      -0.745425       -20.2840
 211   2.0000      -0.745419       -20.2839
 212   2.0000      -0.729445       -19.8492
 213   2.0000      -0.728994       -19.8369
 214   2.0000      -0.728983       -19.8366
 215   2.0000      -0.728789       -19.8314
 216   2.0000      -0.716925       -19.5085
 217   2.0000      -0.713910       -19.4265
 218   2.0000      -0.713901       -19.4262
 219   2.0000      -0.712333       -19.3836
 220   2.0000      -0.706989       -19.2382
 221   2.0000      -0.706710       -19.2306
 222   2.0000      -0.706706       -19.2305
 223   2.0000      -0.706503       -19.2249
 224   2.0000      -0.702281       -19.1100
 225   2.0000      -0.701253       -19.0821
 226   2.0000      -0.700069       -19.0498
 227   2.0000      -0.698736       -19.0136
 228   2.0000      -0.698563       -19.0089
 229   2.0000      -0.694641       -18.9021
 230   2.0000      -0.694634       -18.9019
 231   2.0000      -0.692227       -18.8365
 232   2.0000      -0.690058       -18.7774
 233   2.0000      -0.676639       -18.4123
 234   2.0000      -0.668706       -18.1964
 235   2.0000      -0.668675       -18.1956
 236   2.0000      -0.664505       -18.0821
 237   2.0000      -0.664493       -18.0818
 238   2.0000      -0.660044       -17.9607
 239   2.0000      -0.659953       -17.9582
 240   2.0000      -0.659937       -17.9578
 241   2.0000      -0.659656       -17.9502
 242   2.0000      -0.656640       -17.8681
 243   2.0000      -0.654405       -17.8073
 244   2.0000      -0.654402       -17.8072
 245   2.0000      -0.653405       -17.7801
 246   2.0000      -0.651749       -17.7350
 247   2.0000      -0.649544       -17.6750
 248   2.0000      -0.649529       -17.6746
 249   2.0000      -0.644971       -17.5506
 250   2.0000      -0.644961       -17.5503
 251   2.0000      -0.642252       -17.4766
 252   2.0000      -0.642233       -17.4761
 253   2.0000      -0.641617       -17.4593
 254   2.0000      -0.630967       -17.1695
 255   2.0000      -0.626900       -17.0588
 256   2.0000      -0.626875       -17.0581
 257   2.0000      -0.618745       -16.8369
 258   2.0000      -0.618374       -16.8268
 259   2.0000      -0.618348       -16.8261
 260   2.0000      -0.615578       -16.7507
 261   2.0000      -0.611219       -16.6321
 262   2.0000      -0.611187       -16.6312
 263   2.0000      -0.608996       -16.5716
 264   2.0000      -0.608942       -16.5701
 265   2.0000      -0.606382       -16.5005
 266   2.0000      -0.597903       -16.2698
 267   2.0000      -0.596405       -16.2290
 268   2.0000      -0.593694       -16.1552
 269   2.0000      -0.592476       -16.1221
 270   2.0000      -0.592455       -16.1215
 271   2.0000      -0.590294       -16.0627
 272   2.0000      -0.580632       -15.7998
 273   2.0000      -0.579223       -15.7615
 274   2.0000      -0.579190       -15.7606
 275   2.0000      -0.578285       -15.7359
 276   2.0000      -0.551339       -15.0027
 277   2.0000      -0.550990       -14.9932
 278   2.0000      -0.550976       -14.9928
 279   2.0000      -0.550615       -14.9830
 280   2.0000      -0.530019       -14.4226
 281   2.0000      -0.528616       -14.3844
 282   2.0000      -0.528598       -14.3839
 283   2.0000      -0.527154       -14.3446
 284   0.0000      -0.367505       -10.0003
 285   0.0000      -0.365457        -9.9446
 286   0.0000      -0.365406        -9.9432
 287   0.0000      -0.365373        -9.9423
 288   0.0000      -0.363208        -9.8834

MULLIKEN ATOMIC CHARGES
-----------------------
   0 Pd:    0.399988
   1 Pd:    0.371467
   2 C :    0.032489
   3 C :   -0.016335
   4 C :   -0.103875
   5 C :    0.120559
   6 C :   -0.020834
   7 C :    0.133091
   8 N :   -0.300346
   9 C :    0.159349
  10 H :    0.083847
  11 H :    0.093589
  12 H :    0.092447
  13 H :    0.046673
  14 C :   -0.063103
  15 C :    0.052118
  16 C :    0.011943
  17 C :   -0.008591
  18 C :    0.037109
  19 C :   -0.008630
  20 H :    0.056635
  21 H :    0.072996
  22 H :    0.046899
  23 H :   -0.006620
  24 C :   -0.027285
  25 C :    0.068004
  26 C :   -0.013978
  27 C :    0.121975
  28 N :   -0.308634
  29 C :    0.133746
  30 H :    0.081909
  31 H :    0.088291
  32 H :    0.095262
  33 H :    0.056415
  34 C :    0.032554
  35 C :   -0.016378
  36 C :   -0.103884
  37 C :    0.120578
  38 C :   -0.020801
  39 C :    0.133058
  40 N :   -0.300265
  41 C :    0.159400
  42 H :    0.083843
  43 H :    0.093563
  44 H :    0.092426
  45 H :    0.046678
  46 C :   -0.063133
  47 C :    0.052095
  48 C :    0.011871
  49 C :   -0.008534
  50 C :    0.037019
  51 C :   -0.008653
  52 H :    0.056631
  53 H :    0.073015
  54 H :    0.046867
  55 H :   -0.006520
  56 C :   -0.027429
  57 C :    0.068110
  58 C :   -0.014094
  59 C :    0.122084
  60 N :   -0.308658
  61 C :    0.133841
  62 H :    0.081979
  63 H :    0.088372
  64 H :    0.095115
  65 H :    0.056420
  66 C :    0.032388
  67 C :   -0.016317
  68 C :   -0.103831
  69 C :    0.120538
  70 C :   -0.020860
  71 C :    0.133146
  72 N :   -0.300396
  73 C :    0.159395
  74 H :    0.083888
  75 H :    0.093615
  76 H :    0.092368
  77 H :    0.046698
  78 C :   -0.063123
  79 C :    0.052151
  80 C :    0.011918
  81 C :   -0.008697
  82 C :    0.037359
  83 C :   -0.008652
  84 H :    0.056624
  85 H :    0.073061
  86 H :    0.046961
  87 H :   -0.006702
  88 C :   -0.027190
  89 C :    0.067951
  90 C :   -0.013952
  91 C :    0.122100
  92 N :   -0.308689
  93 C :    0.133708
  94 H :    0.081867
  95 H :    0.088253
  96 H :    0.095151
  97 H :    0.056474
  98 C :    0.032456
  99 C :   -0.016311
 100 C :   -0.103830
 101 C :    0.120543
 102 C :   -0.020863
 103 C :    0.133106
 104 N :   -0.300411
 105 C :    0.159415
 106 H :    0.083868
 107 H :    0.093601
 108 H :    0.092395
 109 H :    0.046678
 110 C :   -0.063159
 111 C :    0.052123
 112 C :    0.011917
 113 C :   -0.008575
 114 C :    0.037138
 115 C :   -0.008617
 116 H :    0.056647
 117 H :    0.073004
 118 H :    0.046871
 119 H :   -0.006605
 120 C :   -0.027291
 121 C :    0.068075
 122 C :   -0.014093
 123 C :    0.122137
 124 N :   -0.308714
 125 C :    0.133796
 126 H :    0.081900
 127 H :    0.088362
 128 H :    0.095087
 129 H :    0.056407
Sum of atomic charges:    4.0000000

LOEWDIN ATOMIC CHARGES
----------------------
   0 Pd:   -0.344726
   1 Pd:   -0.351985
   2 C :    0.028487
   3 C :   -0.049051
   4 C :   -0.031850
   5 C :    0.075122
   6 C :    0.011331
   7 C :    0.071868
   8 N :    0.071403
   9 C :    0.075356
  10 H :    0.069042
  11 H :    0.071030
  12 H :    0.059975
  13 H :    0.049980
  14 C :   -0.049716
  15 C :    0.037865
  16 C :    0.013171
  17 C :    0.012617
  18 C :   -0.037082
  19 C :   -0.000014
  20 H :    0.056605
  21 H :    0.060056
  22 H :    0.046888
  23 H :    0.028814
  24 C :   -0.006345
  25 C :    0.060694
  26 C :    0.008898
  27 C :    0.065129
  28 N :    0.068742
  29 C :    0.066071
  30 H :    0.063048
  31 H :    0.069150
  32 H :    0.059193
  33 H :    0.047648
  34 C :    0.028497
  35 C :   -0.049056
  36 C :   -0.031857
  37 C :    0.075137
  38 C :    0.011371
  39 C :    0.071852
  40 N :    0.071436
  41 C :    0.075366
  42 H :    0.069040
  43 H :    0.071013
  44 H :    0.059969
  45 H :    0.049983
  46 C :   -0.049722
  47 C :    0.037818
  48 C :    0.013154
  49 C :    0.012582
  50 C :   -0.037081
  51 C :   -0.000015
  52 H :    0.056607
  53 H :    0.060062
  54 H :    0.046884
  55 H :    0.028847
  56 C :   -0.006358
  57 C :    0.060722
  58 C :    0.008867
  59 C :    0.065169
  60 N :    0.068729
  61 C :    0.066074
  62 H :    0.063088
  63 H :    0.069188
  64 H :    0.059173
  65 H :    0.047643
  66 C :    0.028490
  67 C :   -0.049073
  68 C :   -0.031844
  69 C :    0.075091
  70 C :    0.011313
  71 C :    0.071902
  72 N :    0.071419
  73 C :    0.075356
  74 H :    0.069069
  75 H :    0.071047
  76 H :    0.059946
  77 H :    0.049982
  78 C :   -0.049712
  79 C :    0.037895
  80 C :    0.013166
  81 C :    0.012655
  82 C :   -0.037084
  83 C :    0.000007
  84 H :    0.056602
  85 H :    0.060094
  86 H :    0.046914
  87 H :    0.028779
  88 C :   -0.006335
  89 C :    0.060736
  90 C :    0.008893
  91 C :    0.065114
  92 N :    0.068743
  93 C :    0.066107
  94 H :    0.063013
  95 H :    0.069135
  96 H :    0.059180
  97 H :    0.047668
  98 C :    0.028472
  99 C :   -0.049048
 100 C :   -0.031876
 101 C :    0.075121
 102 C :    0.011332
 103 C :    0.071863
 104 N :    0.071396
 105 C :    0.075388
 106 H :    0.069056
 107 H :    0.071035
 108 H :    0.059959
 109 H :    0.049978
 110 C :   -0.049714
 111 C :    0.037843
 112 C :    0.013171
 113 C :    0.012600
 114 C :   -0.037064
 115 C :   -0.000008
 116 H :    0.056614
 117 H :    0.060059
 118 H :    0.046884
 119 H :    0.028815
 120 C :   -0.006338
 121 C :    0.060712
 122 C :    0.008879
 123 C :    0.065174
 124 N :    0.068737
 125 C :    0.066087
 126 H :    0.063044
 127 H :    0.069181
 128 H :    0.059149
 129 H :    0.047632

  Mayer bond orders larger than 0.100000
B(  0-Pd,  8-N ) :   0.5439 B(  0-Pd, 40-N ) :   0.5439 B(  0-Pd, 72-N ) :   0.5440
B(  0-Pd,104-N ) :   0.5439 B(  1-Pd, 28-N ) :   0.5473 B(  1-Pd, 60-N ) :   0.5474
B(  1-Pd, 92-N ) :   0.5474 B(  1-Pd,124-N ) :   0.5474 B(  2-C ,  3-C ) :   2.6055
B(  2-C , 14-C ) :   1.0067 B(  3-C ,  4-C ) :   1.0167 B(  4-C ,  5-C ) :   1.3352
B(  4-C ,  9-C ) :   1.3819 B(  5-C ,  6-C ) :   1.4037 B(  5-C , 10-H ) :   0.9865
B(  6-C ,  7-C ) :   1.4185 B(  6-C , 11-H ) :   0.9711 B(  7-C ,  8-N ) :   1.3182
B(  7-C , 12-H ) :   0.9542 B(  8-N ,  9-C ) :   1.3234 B(  9-C , 13-H ) :   0.9591
B( 14-C , 15-C ) :   1.3294 B( 14-C , 19-C ) :   1.3412 B( 15-C , 16-C ) :   1.3852
B( 15-C , 20-H ) :   0.9959 B( 16-C , 17-C ) :   1.3962 B( 16-C , 21-H ) :   0.9823
B( 17-C , 18-C ) :   1.3561 B( 17-C , 22-H ) :   0.9887 B( 18-C , 19-C ) :   1.3666
B( 18-C , 24-C ) :   1.0049 B( 19-C , 23-H ) :   0.9863 B( 24-C , 25-C ) :   1.3741
B( 24-C , 29-C ) :   1.4015 B( 25-C , 26-C ) :   1.4038 B( 25-C , 30-H ) :   0.9799
B( 26-C , 27-C ) :   1.4280 B( 26-C , 31-H ) :   0.9715 B( 27-C , 28-N ) :   1.3112
B( 27-C , 32-H ) :   0.9461 B( 28-N , 29-C ) :   1.3275 B( 29-C , 33-H ) :   0.9559
B( 34-C , 35-C ) :   2.6055 B( 34-C , 46-C ) :   1.0067 B( 35-C , 36-C ) :   1.0167
B( 36-C , 37-C ) :   1.3353 B( 36-C , 41-C ) :   1.3818 B( 37-C , 38-C ) :   1.4035
B( 37-C , 42-H ) :   0.9865 B( 38-C , 39-C ) :   1.4187 B( 38-C , 43-H ) :   0.9712
B( 39-C , 40-N ) :   1.3181 B( 39-C , 44-H ) :   0.9542 B( 40-N , 41-C ) :   1.3236
B( 41-C , 45-H ) :   0.9591 B( 46-C , 47-C ) :   1.3294 B( 46-C , 51-C ) :   1.3411
B( 47-C , 48-C ) :   1.3852 B( 47-C , 52-H ) :   0.9959 B( 48-C , 49-C ) :   1.3962
B( 48-C , 53-H ) :   0.9822 B( 49-C , 50-C ) :   1.3561 B( 49-C , 54-H ) :   0.9887
B( 50-C , 51-C ) :   1.3667 B( 50-C , 56-C ) :   1.0048 B( 51-C , 55-H ) :   0.9864
B( 56-C , 57-C ) :   1.3741 B( 56-C , 61-C ) :   1.4017 B( 57-C , 58-C ) :   1.4038
B( 57-C , 62-H ) :   0.9799 B( 58-C , 59-C ) :   1.4281 B( 58-C , 63-H ) :   0.9714
B( 59-C , 60-N ) :   1.3113 B( 59-C , 64-H ) :   0.9462 B( 60-N , 61-C ) :   1.3273
B( 61-C , 65-H ) :   0.9558 B( 66-C , 67-C ) :   2.6055 B( 66-C , 78-C ) :   1.0068
B( 67-C , 68-C ) :   1.0166 B( 68-C , 69-C ) :   1.3351 B( 68-C , 73-C ) :   1.3819
B( 69-C , 70-C ) :   1.4038 B( 69-C , 74-H ) :   0.9865 B( 70-C , 71-C ) :   1.4185
B( 70-C , 75-H ) :   0.9711 B( 71-C , 72-N ) :   1.3181 B( 71-C , 76-H ) :   0.9542
B( 72-N , 73-C ) :   1.3234 B( 73-C , 77-H ) :   0.9591 B( 78-C , 79-C ) :   1.3293
B( 78-C , 83-C ) :   1.3412 B( 79-C , 80-C ) :   1.3852 B( 79-C , 84-H ) :   0.9959
B( 80-C , 81-C ) :   1.3962 B( 80-C , 85-H ) :   0.9822 B( 81-C , 82-C ) :   1.3560
B( 81-C , 86-H ) :   0.9886 B( 82-C , 83-C ) :   1.3666 B( 82-C , 88-C ) :   1.0051
B( 83-C , 87-H ) :   0.9863 B( 88-C , 89-C ) :   1.3741 B( 88-C , 93-C ) :   1.4014
B( 89-C , 90-C ) :   1.4038 B( 89-C , 94-H ) :   0.9799 B( 90-C , 91-C ) :   1.4282
B( 90-C , 95-H ) :   0.9715 B( 91-C , 92-N ) :   1.3111 B( 91-C , 96-H ) :   0.9461
B( 92-N , 93-C ) :   1.3275 B( 93-C , 97-H ) :   0.9559 B( 98-C , 99-C ) :   2.6053
B( 98-C ,110-C ) :   1.0068 B( 99-C ,100-C ) :   1.0167 B(100-C ,101-C ) :   1.3352
B(100-C ,105-C ) :   1.3819 B(101-C ,102-C ) :   1.4037 B(101-C ,106-H ) :   0.9865
B(102-C ,103-C ) :   1.4186 B(102-C ,107-H ) :   0.9711 B(103-C ,104-N ) :   1.3182
B(103-C ,108-H ) :   0.9542 B(104-N ,105-C ) :   1.3234 B(105-C ,109-H ) :   0.9592
B(110-C ,111-C ) :   1.3293 B(110-C ,115-C ) :   1.3412 B(111-C ,112-C ) :   1.3852
B(111-C ,116-H ) :   0.9959 B(112-C ,113-C ) :   1.3962 B(112-C ,117-H ) :   0.9822
B(113-C ,114-C ) :   1.3562 B(113-C ,118-H ) :   0.9887 B(114-C ,115-C ) :   1.3665
B(114-C ,120-C ) :   1.0049 B(115-C ,119-H ) :   0.9864 B(120-C ,121-C ) :   1.3740
B(120-C ,125-C ) :   1.4016 B(121-C ,122-C ) :   1.4039 B(121-C ,126-H ) :   0.9799
B(122-C ,123-C ) :   1.4280 B(122-C ,127-H ) :   0.9715 B(123-C ,124-N ) :   1.3113
B(123-C ,128-H ) :   0.9462 B(124-N ,125-C ) :   1.3272 B(125-C ,129-H ) :   0.9559

Dispersion correction           -0.206230530
FINAL SINGLE POINT ENERGY     -3459.290633050349

DIPOLE MOMENT
-------------
                                X             Y             Z
Electronic contribution:     -0.65159      59.67254       1.01204
Nuclear contribution   :      0.65169     -59.65115      -1.01503
                        -----------------------------------------
Total Dipole Moment    :      0.00010       0.02139      -0.00299
                        -----------------------------------------
Magnitude (a.u.)       :      0.02160
Magnitude (Debye)      :      0.05489

Rotational constants in cm-1:     0.000815     0.000534     0.000533
Rotational constants in MHz :    24.447334    16.003390    15.976968

                             ****ORCA TERMINATED NORMALLY****
TOTAL RUN TIME: 0 days 0 hours 10 minutes 47 seconds 408 msec
