                         Program Version 4.2.1 -  RELEASE  -
|  1> ! DFT SP B97-3c TightSCF printbasis  Grid6 NOFINALGRID SlowConv
|  2>
|  3> %base "_s_3d1_b_B97-3c"
|  4> %maxcore 3000
|  5> %scf
|  6>    MaxIter 2000
|  7> end
|  8> %pal
|  9>    nprocs 32
| 10> end
| 11>
| 12> * xyzfile 4 1 s_3d1_b.xyz
| 13>
| 14>                          ****END OF INPUT****

CARTESIAN COORDINATES (ANGSTROEM)
---------------------------------
  Pd     0.292800    6.450100    0.340500
  Pd     0.093300   -3.195300    0.220900
  C      5.053800    0.710900    0.129900
  C      4.578200   -0.390900    0.271800
  C      4.012500   -1.673600    0.415700
  C      4.802700   -2.806800    0.652600
  C      4.188100   -4.040300    0.775900
  C      2.809400   -4.127400    0.656800
  N      2.061100   -3.046100    0.425200
  C      2.630400   -1.846300    0.309100
  H      5.873800   -2.708800    0.737800
  H      4.770100   -4.928500    0.961500
  H      2.284500   -5.074000    0.752700
  H      1.967000   -1.003100    0.117900
  C      5.568000    2.007600   -0.085000
  C      6.829900    2.178900   -0.659000
  C      7.292800    3.456500   -0.913900
  C      6.517100    4.561400   -0.606200
  C      5.259000    4.404400   -0.019500
  C      4.792400    3.119700    0.243000
  H      7.431500    1.318500   -0.907800
  H      8.264300    3.595100   -1.363200
  H      6.884900    5.546100   -0.848500
  H      3.844200    2.964500    0.732400
  C      4.434500    5.584800    0.283800
  C      5.002700    6.803200    0.670900
  C      4.189100    7.901700    0.893000
  C      2.819000    7.767000    0.746000
  N      2.271300    6.597900    0.406700
  C      3.045600    5.538000    0.173800
  H      6.069500    6.885800    0.807200
  H      4.612700    8.850300    1.180700
  H      2.139600    8.602300    0.900200
  H      2.532900    4.629000   -0.132600
  C      0.454000    2.487300    5.187700
  C      0.352600    3.616900    4.770700
  C      0.246100    4.919800    4.244500
  C      0.064700    6.043000    5.063000
  C     -0.033700    7.291800    4.475500
  C      0.050200    7.403400    3.095700
  N      0.230000    6.331800    2.320600
  C      0.326500    5.119000    2.864700
  H      0.000500    5.925900    6.133600
  H     -0.176100    8.173500    5.079200
  H     -0.029200    8.362500    2.592300
  H      0.478500    4.281500    2.183500
  C      0.618300    1.162100    5.644600
  C      1.200600    0.915700    6.890200
  C      1.403900   -0.389200    7.299200
  C      1.034200   -1.447100    6.486200
  C      0.437600   -1.214500    5.244300
  C      0.230100    0.098000    4.830200
  H      1.495800    1.740000    7.520700
  H      1.860400   -0.586000    8.257100
  H      1.235800   -2.455400    6.812000
  H     -0.261800    0.312300    3.894800
  C      0.069300   -2.351300    4.385400
  C     -0.368500   -3.565800    4.924400
  C     -0.639200   -4.633000    4.084600
  C     -0.484000   -4.472100    2.718700
  N     -0.099700   -3.303700    2.197800
  C      0.173600   -2.271700    2.997300
  H     -0.504500   -3.669200    5.989400
  H     -0.966700   -5.578700    4.485100
  H     -0.672200   -5.285300    2.021200
  H      0.508000   -1.361900    2.505400
  C     -4.690600    2.588300    0.553500
  C     -4.235900    3.704400    0.464400
  C     -3.663500    4.989300    0.387700
  C     -4.441400    6.154700    0.365400
  C     -3.807100    7.383500    0.310100
  C     -2.421600    7.433900    0.283600
  N     -1.684800    6.319900    0.304500
  C     -2.274000    5.126600    0.351300
  H     -5.517800    6.086200    0.392000
  H     -4.379600    8.296700    0.291000
  H     -1.880700    8.376300    0.243300
  H     -1.624600    4.253200    0.367600
  C     -5.191800    1.277300    0.697800
  C     -6.461100    1.064300    1.241100
  C     -6.917200   -0.228800    1.418200
  C     -6.128700   -1.308600    1.058400
  C     -4.862300   -1.108700    0.503500
  C     -4.399000    0.191100    0.325200
  H     -7.074500    1.905200    1.525200
  H     -7.894100   -0.399300    1.844100
  H     -6.492600   -2.308700    1.234400
  H     -3.440900    0.378500   -0.132700
  C     -4.033100   -2.266800    0.132500
  C     -4.602400   -3.435000   -0.385700
  C     -3.795200   -4.520000   -0.682800
  C     -2.430800   -4.421600   -0.471300
  N     -1.881500   -3.300600    0.001800
  C     -2.649500   -2.251100    0.301000
  H     -5.664800   -3.486100   -0.565200
  H     -4.218700   -5.429900   -1.076200
  H     -1.757100   -5.247600   -0.684900
  H     -2.134500   -1.383800    0.709500
  C     -0.100300    2.732900   -4.618300
  C      0.035100    3.858000   -4.198300
  C      0.157400    5.140800   -3.628800
  C      0.172000    6.313300   -4.396600
  C      0.264900    7.534400   -3.752200
  C      0.331700    7.572600   -2.366700
  N      0.318600    6.453700   -1.640500
  C      0.241200    5.266000   -2.240600
  H      0.109600    6.256100   -5.472200
  H      0.279800    8.452800   -4.316500
  H      0.398800    8.508500   -1.820400
  H      0.237600    4.382500   -1.600500
  C     -0.304100    1.419700   -5.092200
  C     -0.888400    1.208600   -6.343500
  C     -1.126100   -0.083100   -6.774900
  C     -0.783500   -1.163500   -5.979900
  C     -0.187500   -0.965900   -4.731800
  C      0.048600    0.332300   -4.291300
  H     -1.156600    2.051000   -6.962100
  H     -1.584400   -0.251600   -7.737400
  H     -1.003900   -2.162000   -6.323700
  H      0.537500    0.513800   -3.347300
  C      0.171200   -2.129300   -3.904400
  C      0.656200   -3.305000   -4.486300
  C      0.941000   -4.400400   -3.688700
  C      0.747900   -4.303500   -2.322200
  N      0.308500   -3.173500   -1.759800
  C      0.023800   -2.114200   -2.518100
  H      0.819400   -3.354100   -5.551400
  H      1.309100   -5.316400   -4.121600
  H      0.949800   -5.140400   -1.655800
  H     -0.354300   -1.240800   -1.994000

 Total Charge           Charge          ....    4
 Multiplicity           Mult            ....    1
 Number of Electrons    NEL             ....  568
 Basis Dimension        Dim             .... 1730

ORBITAL ENERGIES
----------------

  NO   OCC          E(Eh)            E(eV)
   0   2.0000     -14.366282      -390.9264
   1   2.0000     -14.364179      -390.8692
   2   2.0000     -14.364045      -390.8655
   3   2.0000     -14.363865      -390.8606
   4   2.0000     -14.363709      -390.8564
   5   2.0000     -14.363575      -390.8527
   6   2.0000     -14.363541      -390.8518
   7   2.0000     -14.361220      -390.7887
   8   2.0000     -10.261934      -279.2414
   9   2.0000     -10.260065      -279.1906
  10   2.0000     -10.259758      -279.1822
  11   2.0000     -10.259254      -279.1685
  12   2.0000     -10.257234      -279.1135
  13   2.0000     -10.256730      -279.0998
  14   2.0000     -10.256151      -279.0841
  15   2.0000     -10.254894      -279.0499
  16   2.0000     -10.254104      -279.0284
  17   2.0000     -10.253584      -279.0142
  18   2.0000     -10.253216      -279.0042
  19   2.0000     -10.252828      -278.9936
  20   2.0000     -10.252756      -278.9917
  21   2.0000     -10.252141      -278.9750
  22   2.0000     -10.251533      -278.9584
  23   2.0000     -10.250190      -278.9219
  24   2.0000     -10.244047      -278.7547
  25   2.0000     -10.242068      -278.7008
  26   2.0000     -10.241764      -278.6926
  27   2.0000     -10.241028      -278.6725
  28   2.0000     -10.229966      -278.3715
  29   2.0000     -10.229742      -278.3654
  30   2.0000     -10.229321      -278.3540
  31   2.0000     -10.227234      -278.2972
  32   2.0000     -10.223491      -278.1953
  33   2.0000     -10.221690      -278.1463
  34   2.0000     -10.221283      -278.1353
  35   2.0000     -10.220474      -278.1132
  36   2.0000     -10.219663      -278.0912
  37   2.0000     -10.219556      -278.0882
  38   2.0000     -10.218850      -278.0690
  39   2.0000     -10.217389      -278.0293
  40   2.0000     -10.216786      -278.0129
  41   2.0000     -10.215429      -277.9760
  42   2.0000     -10.215420      -277.9757
  43   2.0000     -10.215164      -277.9687
  44   2.0000     -10.214973      -277.9635
  45   2.0000     -10.214323      -277.9458
  46   2.0000     -10.214080      -277.9393
  47   2.0000     -10.212184      -277.8876
  48   2.0000     -10.206306      -277.7277
  49   2.0000     -10.206123      -277.7227
  50   2.0000     -10.206003      -277.7195
  51   2.0000     -10.205653      -277.7099
  52   2.0000     -10.201963      -277.6095
  53   2.0000     -10.201838      -277.6061
  54   2.0000     -10.201701      -277.6024
  55   2.0000     -10.200646      -277.5737
  56   2.0000     -10.195473      -277.4329
  57   2.0000     -10.194291      -277.4007
  58   2.0000     -10.194199      -277.3983
  59   2.0000     -10.194159      -277.3972
  60   2.0000     -10.194072      -277.3948
  61   2.0000     -10.193797      -277.3873
  62   2.0000     -10.193640      -277.3831
  63   2.0000     -10.193092      -277.3681
  64   2.0000     -10.188268      -277.2369
  65   2.0000     -10.187515      -277.2164
  66   2.0000     -10.187489      -277.2157
  67   2.0000     -10.187089      -277.2048
  68   2.0000     -10.183002      -277.0936
  69   2.0000     -10.182897      -277.0907
  70   2.0000     -10.182594      -277.0825
  71   2.0000     -10.181746      -277.0594
  72   2.0000     -10.181150      -277.0432
  73   2.0000     -10.180919      -277.0369
  74   2.0000     -10.180850      -277.0350
  75   2.0000     -10.180465      -277.0245
  76   2.0000     -10.173107      -276.8243
  77   2.0000     -10.172997      -276.8213
  78   2.0000     -10.172750      -276.8146
  79   2.0000     -10.172046      -276.7954
  80   2.0000      -3.674771       -99.9956
  81   2.0000      -3.673855       -99.9707
  82   2.0000      -2.405406       -65.4544
  83   2.0000      -2.405050       -65.4447
  84   2.0000      -2.404565       -65.4315
  85   2.0000      -2.404265       -65.4234
  86   2.0000      -2.363027       -64.3012
  87   2.0000      -2.362138       -64.2770
  88   2.0000      -1.228534       -33.4301
  89   2.0000      -1.227941       -33.4140
  90   2.0000      -1.222165       -33.2568
  91   2.0000      -1.221363       -33.2350
  92   2.0000      -1.220869       -33.2215
  93   2.0000      -1.220277       -33.2054
  94   2.0000      -1.219728       -33.1905
  95   2.0000      -1.218517       -33.1575
  96   2.0000      -1.095038       -29.7975
  97   2.0000      -1.094707       -29.7885
  98   2.0000      -1.094396       -29.7800
  99   2.0000      -1.093551       -29.7570
 100   2.0000      -1.074803       -29.2469
 101   2.0000      -1.073836       -29.2206
 102   2.0000      -1.072384       -29.1810
 103   2.0000      -1.071687       -29.1621
 104   2.0000      -1.061803       -28.8931
 105   2.0000      -1.060508       -28.8579
 106   2.0000      -1.059994       -28.8439
 107   2.0000      -1.058849       -28.8128
 108   2.0000      -1.038501       -28.2591
 109   2.0000      -1.037471       -28.2310
 110   2.0000      -1.036345       -28.2004
 111   2.0000      -1.035547       -28.1787
 112   2.0000      -1.034269       -28.1439
 113   2.0000      -1.033411       -28.1205
 114   2.0000      -1.032817       -28.1044
 115   2.0000      -1.031325       -28.0638
 116   2.0000      -1.004657       -27.3381
 117   2.0000      -1.004168       -27.3248
 118   2.0000      -1.004066       -27.3220
 119   2.0000      -1.003659       -27.3109
 120   2.0000      -0.974974       -26.5304
 121   2.0000      -0.974486       -26.5171
 122   2.0000      -0.974076       -26.5059
 123   2.0000      -0.973223       -26.4828
 124   2.0000      -0.963519       -26.2187
 125   2.0000      -0.963119       -26.2078
 126   2.0000      -0.962573       -26.1930
 127   2.0000      -0.961848       -26.1732
 128   2.0000      -0.917085       -24.9552
 129   2.0000      -0.916428       -24.9373
 130   2.0000      -0.915635       -24.9157
 131   2.0000      -0.913653       -24.8618
 132   2.0000      -0.906584       -24.6694
 133   2.0000      -0.905875       -24.6501
 134   2.0000      -0.904900       -24.6236
 135   2.0000      -0.903289       -24.5797
 136   2.0000      -0.900587       -24.5062
 137   2.0000      -0.899350       -24.4726
 138   2.0000      -0.898452       -24.4481
 139   2.0000      -0.897282       -24.4163
 140   2.0000      -0.896519       -24.3955
 141   2.0000      -0.896270       -24.3887
 142   2.0000      -0.894773       -24.3480
 143   2.0000      -0.894187       -24.3321
 144   2.0000      -0.855545       -23.2806
 145   2.0000      -0.854741       -23.2587
 146   2.0000      -0.853756       -23.2319
 147   2.0000      -0.853502       -23.2250
 148   2.0000      -0.842497       -22.9255
 149   2.0000      -0.841013       -22.8851
 150   2.0000      -0.840031       -22.8584
 151   2.0000      -0.839956       -22.8564
 152   2.0000      -0.828135       -22.5347
 153   2.0000      -0.823249       -22.4017
 154   2.0000      -0.819330       -22.2951
 155   2.0000      -0.814144       -22.1540
 156   2.0000      -0.813521       -22.1370
 157   2.0000      -0.808671       -22.0051
 158   2.0000      -0.804862       -21.9014
 159   2.0000      -0.804797       -21.8996
 160   2.0000      -0.781867       -21.2757
 161   2.0000      -0.779752       -21.2181
 162   2.0000      -0.779038       -21.1987
 163   2.0000      -0.777213       -21.1491
 164   2.0000      -0.771154       -20.9842
 165   2.0000      -0.770658       -20.9707
 166   2.0000      -0.770499       -20.9664
 167   2.0000      -0.769303       -20.9338
 168   2.0000      -0.768273       -20.9058
 169   2.0000      -0.767652       -20.8889
 170   2.0000      -0.766954       -20.8699
 171   2.0000      -0.765193       -20.8220
 172   2.0000      -0.761153       -20.7120
 173   2.0000      -0.759535       -20.6680
 174   2.0000      -0.758616       -20.6430
 175   2.0000      -0.757039       -20.6001
 176   2.0000      -0.740660       -20.1544
 177   2.0000      -0.737019       -20.0553
 178   2.0000      -0.735467       -20.0131
 179   2.0000      -0.735001       -20.0004
 180   2.0000      -0.733895       -19.9703
 181   2.0000      -0.730166       -19.8688
 182   2.0000      -0.728339       -19.8191
 183   2.0000      -0.723817       -19.6961
 184   2.0000      -0.720967       -19.6185
 185   2.0000      -0.718215       -19.5436
 186   2.0000      -0.717178       -19.5154
 187   2.0000      -0.716668       -19.5015
 188   2.0000      -0.716182       -19.4883
 189   2.0000      -0.714120       -19.4322
 190   2.0000      -0.713411       -19.4129
 191   2.0000      -0.712002       -19.3746
 192   2.0000      -0.711726       -19.3671
 193   2.0000      -0.710093       -19.3226
 194   2.0000      -0.709336       -19.3020
 195   2.0000      -0.708874       -19.2894
 196   2.0000      -0.707535       -19.2530
 197   2.0000      -0.705975       -19.2106
 198   2.0000      -0.705320       -19.1927
 199   2.0000      -0.702139       -19.1062
 200   2.0000      -0.701015       -19.0756
 201   2.0000      -0.700981       -19.0747
 202   2.0000      -0.696585       -18.9550
 203   2.0000      -0.693616       -18.8743
 204   2.0000      -0.692884       -18.8543
 205   2.0000      -0.692238       -18.8367
 206   2.0000      -0.686618       -18.6838
 207   2.0000      -0.685239       -18.6463
 208   2.0000      -0.683598       -18.6017
 209   2.0000      -0.683025       -18.5861
 210   2.0000      -0.682837       -18.5809
 211   2.0000      -0.682555       -18.5733
 212   2.0000      -0.669714       -18.2238
 213   2.0000      -0.669284       -18.2121
 214   2.0000      -0.668975       -18.2037
 215   2.0000      -0.668294       -18.1852
 216   2.0000      -0.658741       -17.9252
 217   2.0000      -0.658036       -17.9061
 218   2.0000      -0.655952       -17.8494
 219   2.0000      -0.654772       -17.8173
 220   2.0000      -0.648104       -17.6358
 221   2.0000      -0.647600       -17.6221
 222   2.0000      -0.647119       -17.6090
 223   2.0000      -0.645506       -17.5651
 224   2.0000      -0.644527       -17.5385
 225   2.0000      -0.643394       -17.5076
 226   2.0000      -0.641649       -17.4602
 227   2.0000      -0.640982       -17.4420
 228   2.0000      -0.639112       -17.3911
 229   2.0000      -0.635713       -17.2986
 230   2.0000      -0.635399       -17.2901
 231   2.0000      -0.633653       -17.2426
 232   2.0000      -0.629213       -17.1218
 233   2.0000      -0.619731       -16.8637
 234   2.0000      -0.613893       -16.7049
 235   2.0000      -0.610943       -16.6246
 236   2.0000      -0.610174       -16.6037
 237   2.0000      -0.609096       -16.5743
 238   2.0000      -0.605063       -16.4646
 239   2.0000      -0.604948       -16.4615
 240   2.0000      -0.604896       -16.4601
 241   2.0000      -0.604286       -16.4435
 242   2.0000      -0.602905       -16.4059
 243   2.0000      -0.602370       -16.3913
 244   2.0000      -0.600692       -16.3457
 245   2.0000      -0.599028       -16.3004
 246   2.0000      -0.595936       -16.2162
 247   2.0000      -0.593788       -16.1578
 248   2.0000      -0.593597       -16.1526
 249   2.0000      -0.588195       -16.0056
 250   2.0000      -0.586410       -15.9570
 251   2.0000      -0.584526       -15.9057
 252   2.0000      -0.581367       -15.8198
 253   2.0000      -0.575627       -15.6636
 254   2.0000      -0.574436       -15.6312
 255   2.0000      -0.572045       -15.5661
 256   2.0000      -0.571127       -15.5412
 257   2.0000      -0.570352       -15.5201
 258   2.0000      -0.568153       -15.4602
 259   2.0000      -0.567012       -15.4292
 260   2.0000      -0.565708       -15.3937
 261   2.0000      -0.563733       -15.3400
 262   2.0000      -0.563481       -15.3331
 263   2.0000      -0.562536       -15.3074
 264   2.0000      -0.555877       -15.1262
 265   2.0000      -0.553391       -15.0585
 266   2.0000      -0.548164       -14.9163
 267   2.0000      -0.547729       -14.9045
 268   2.0000      -0.546889       -14.8816
 269   2.0000      -0.546686       -14.8761
 270   2.0000      -0.536538       -14.6000
 271   2.0000      -0.536022       -14.5859
 272   2.0000      -0.533578       -14.5194
 273   2.0000      -0.532011       -14.4768
 274   2.0000      -0.531654       -14.4671
 275   2.0000      -0.530391       -14.4327
 276   2.0000      -0.511404       -13.9160
 277   2.0000      -0.510883       -13.9018
 278   2.0000      -0.510315       -13.8864
 279   2.0000      -0.509381       -13.8610
 280   2.0000      -0.493861       -13.4386
 281   2.0000      -0.492961       -13.4142
 282   2.0000      -0.492517       -13.4021
 283   2.0000      -0.491446       -13.3729
 284   0.0000      -0.400607       -10.9011
 285   0.0000      -0.397445       -10.8150
 286   0.0000      -0.390438       -10.6244
 287   0.0000      -0.389645       -10.6028
 288   0.0000      -0.388555       -10.5731

MULLIKEN ATOMIC CHARGES
-----------------------
   0 Pd:   -0.022423
   1 Pd:    0.011026
   2 C :    0.040759
   3 C :    0.000673
   4 C :    0.056656
   5 C :   -0.188118
   6 C :   -0.020089
   7 C :   -0.132766
   8 N :   -0.058439
   9 C :   -0.181714
  10 H :    0.260627
  11 H :    0.255854
  12 H :    0.209014
  13 H :    0.181481
  14 C :   -0.166005
  15 C :   -0.118136
  16 C :   -0.166516
  17 C :   -0.138195
  18 C :   -0.050402
  19 C :   -0.121281
  20 H :    0.244394
  21 H :    0.230374
  22 H :    0.249138
  23 H :    0.225309
  24 C :    0.040192
  25 C :   -0.168327
  26 C :   -0.049969
  27 C :   -0.128954
  28 N :   -0.060215
  29 C :   -0.146319
  30 H :    0.266420
  31 H :    0.253533
  32 H :    0.195737
  33 H :    0.186813
  34 C :    0.035314
  35 C :    0.014245
  36 C :    0.057115
  37 C :   -0.188441
  38 C :   -0.024718
  39 C :   -0.130309
  40 N :   -0.053754
  41 C :   -0.165082
  42 H :    0.260221
  43 H :    0.255657
  44 H :    0.206776
  45 H :    0.179338
  46 C :   -0.168026
  47 C :   -0.119736
  48 C :   -0.165983
  49 C :   -0.145486
  50 C :   -0.048034
  51 C :   -0.121739
  52 H :    0.245572
  53 H :    0.230347
  54 H :    0.248144
  55 H :    0.221810
  56 C :    0.044122
  57 C :   -0.171511
  58 C :   -0.042405
  59 C :   -0.127382
  60 N :   -0.077557
  61 C :   -0.151408
  62 H :    0.267813
  63 H :    0.253911
  64 H :    0.194826
  65 H :    0.189940
  66 C :    0.029289
  67 C :    0.014303
  68 C :    0.055240
  69 C :   -0.195552
  70 C :   -0.010997
  71 C :   -0.131835
  72 N :   -0.049110
  73 C :   -0.157712
  74 H :    0.259111
  75 H :    0.255435
  76 H :    0.205808
  77 H :    0.174809
  78 C :   -0.158688
  79 C :   -0.120416
  80 C :   -0.164720
  81 C :   -0.141738
  82 C :   -0.043311
  83 C :   -0.138203
  84 H :    0.245439
  85 H :    0.230616
  86 H :    0.250088
  87 H :    0.221011
  88 C :    0.055262
  89 C :   -0.173474
  90 C :   -0.050177
  91 C :   -0.133323
  92 N :   -0.079535
  93 C :   -0.161387
  94 H :    0.268686
  95 H :    0.254267
  96 H :    0.200007
  97 H :    0.195194
  98 C :    0.029567
  99 C :    0.021152
 100 C :    0.066348
 101 C :   -0.187684
 102 C :   -0.019403
 103 C :   -0.125320
 104 N :   -0.044434
 105 C :   -0.191702
 106 H :    0.259278
 107 H :    0.255725
 108 H :    0.207287
 109 H :    0.178078
 110 C :   -0.153037
 111 C :   -0.123823
 112 C :   -0.163186
 113 C :   -0.147543
 114 C :   -0.036929
 115 C :   -0.148713
 116 H :    0.245792
 117 H :    0.230434
 118 H :    0.250154
 119 H :    0.221408
 120 C :    0.040610
 121 C :   -0.175814
 122 C :   -0.044455
 123 C :   -0.140366
 124 N :   -0.081003
 125 C :   -0.139407
 126 H :    0.270403
 127 H :    0.254538
 128 H :    0.197265
 129 H :    0.196677
Sum of atomic charges:    4.0000000

LOEWDIN ATOMIC CHARGES
----------------------
   0 Pd:   -0.058492
   1 Pd:   -0.061007
   2 C :    0.027721
   3 C :   -0.054413
   4 C :   -0.041706
   5 C :   -0.061132
   6 C :   -0.114137
   7 C :   -0.034924
   8 N :   -0.076976
   9 C :   -0.024798
  10 H :    0.207412
  11 H :    0.206474
  12 H :    0.191285
  13 H :    0.185978
  14 C :   -0.063853
  15 C :   -0.091979
  16 C :   -0.113151
  17 C :   -0.110088
  18 C :   -0.058382
  19 C :   -0.121305
  20 H :    0.194632
  21 H :    0.194990
  22 H :    0.188202
  23 H :    0.172912
  24 C :   -0.027382
  25 C :   -0.072938
  26 C :   -0.113631
  27 C :   -0.031852
  28 N :   -0.077094
  29 C :   -0.028567
  30 H :    0.202653
  31 H :    0.205439
  32 H :    0.189336
  33 H :    0.181763
  34 C :    0.025034
  35 C :   -0.051105
  36 C :   -0.041891
  37 C :   -0.060897
  38 C :   -0.113723
  39 C :   -0.033396
  40 N :   -0.076344
  41 C :   -0.021209
  42 H :    0.207390
  43 H :    0.206610
  44 H :    0.189924
  45 H :    0.185067
  46 C :   -0.062932
  47 C :   -0.091428
  48 C :   -0.113424
  49 C :   -0.112049
  50 C :   -0.059423
  51 C :   -0.121543
  52 H :    0.195116
  53 H :    0.194919
  54 H :    0.187678
  55 H :    0.172906
  56 C :   -0.027679
  57 C :   -0.073490
  58 C :   -0.114735
  59 C :   -0.033152
  60 N :   -0.078022
  61 C :   -0.030273
  62 H :    0.202881
  63 H :    0.205164
  64 H :    0.190424
  65 H :    0.182940
  66 C :    0.024612
  67 C :   -0.049907
  68 C :   -0.041739
  69 C :   -0.061201
  70 C :   -0.113544
  71 C :   -0.032616
  72 N :   -0.076143
  73 C :   -0.021456
  74 H :    0.207267
  75 H :    0.206579
  76 H :    0.191268
  77 H :    0.183519
  78 C :   -0.062642
  79 C :   -0.091157
  80 C :   -0.113339
  81 C :   -0.112121
  82 C :   -0.060068
  83 C :   -0.121821
  84 H :    0.195218
  85 H :    0.195004
  86 H :    0.187970
  87 H :    0.172707
  88 C :   -0.028009
  89 C :   -0.073365
  90 C :   -0.114984
  91 C :   -0.035353
  92 N :   -0.078739
  93 C :   -0.029717
  94 H :    0.203109
  95 H :    0.205134
  96 H :    0.189886
  97 H :    0.184525
  98 C :    0.023692
  99 C :   -0.048854
 100 C :   -0.041780
 101 C :   -0.061395
 102 C :   -0.112882
 103 C :   -0.030142
 104 N :   -0.075896
 105 C :   -0.024023
 106 H :    0.207314
 107 H :    0.206840
 108 H :    0.191697
 109 H :    0.184266
 110 C :   -0.062450
 111 C :   -0.090994
 112 C :   -0.113611
 113 C :   -0.113144
 114 C :   -0.060531
 115 C :   -0.121692
 116 H :    0.195386
 117 H :    0.194926
 118 H :    0.187833
 119 H :    0.173166
 120 C :   -0.028040
 121 C :   -0.073156
 122 C :   -0.114821
 123 C :   -0.036708
 124 N :   -0.077835
 125 C :   -0.028253
 126 H :    0.203604
 127 H :    0.205174
 128 H :    0.189553
 129 H :    0.183543

  Mayer bond orders larger than 0.100000
B(  0-Pd, 28-N ) :   0.5322 B(  0-Pd, 40-N ) :   0.5295 B(  0-Pd, 72-N ) :   0.5298
B(  0-Pd,104-N ) :   0.5316 B(  1-Pd,  8-N ) :   0.5210 B(  1-Pd, 60-N ) :   0.5195
B(  1-Pd, 92-N ) :   0.5159 B(  1-Pd,124-N ) :   0.5188 B(  2-C ,  3-C ) :   1.8611
B(  2-C ,  4-C ) :  -0.3057 B(  2-C , 14-C ) :   1.4925 B(  3-C ,  4-C ) :   1.4267
B(  3-C , 14-C ) :  -0.3855 B(  4-C ,  5-C ) :   1.3631 B(  4-C ,  9-C ) :   1.3054
B(  5-C ,  6-C ) :   1.4863 B(  5-C , 10-H ) :   0.9061 B(  6-C ,  7-C ) :   1.4242
B(  6-C , 11-H ) :   0.8676 B(  7-C ,  8-N ) :   1.3540 B(  7-C , 12-H ) :   0.9170
B(  8-N ,  9-C ) :   1.3682 B(  9-C , 13-H ) :   0.9563 B( 14-C , 15-C ) :   1.3654
B( 14-C , 19-C ) :   1.4181 B( 15-C , 16-C ) :   1.5445 B( 15-C , 20-H ) :   0.8787
B( 16-C , 17-C ) :   1.5890 B( 16-C , 21-H ) :   0.8676 B( 17-C , 18-C ) :   1.3632
B( 17-C , 22-H ) :   0.8418 B( 18-C , 19-C ) :   1.3415 B( 18-C , 24-C ) :   0.9218
B( 19-C , 23-H ) :   0.8644 B( 24-C , 25-C ) :   1.4350 B( 24-C , 29-C ) :   1.3862
B( 25-C , 26-C ) :   1.5176 B( 25-C , 30-H ) :   0.8687 B( 26-C , 27-C ) :   1.4472
B( 26-C , 31-H ) :   0.8632 B( 27-C , 28-N ) :   1.3537 B( 27-C , 32-H ) :   0.9211
B( 28-N , 29-C ) :   1.3754 B( 29-C , 33-H ) :   0.9116 B( 34-C , 35-C ) :   1.8546
B( 34-C , 36-C ) :  -0.3012 B( 34-C , 46-C ) :   1.4938 B( 34-C , 51-C ) :  -0.1007
B( 35-C , 36-C ) :   1.4190 B( 35-C , 46-C ) :  -0.3963 B( 36-C , 37-C ) :   1.3605
B( 36-C , 41-C ) :   1.3137 B( 37-C , 38-C ) :   1.4824 B( 37-C , 42-H ) :   0.9067
B( 38-C , 39-C ) :   1.4286 B( 38-C , 43-H ) :   0.8676 B( 39-C , 40-N ) :   1.3640
B( 39-C , 44-H ) :   0.9156 B( 40-N , 41-C ) :   1.3590 B( 41-C , 45-H ) :   0.9533
B( 46-C , 47-C ) :   1.3674 B( 46-C , 51-C ) :   1.4139 B( 47-C , 48-C ) :   1.5448
B( 47-C , 52-H ) :   0.8784 B( 48-C , 49-C ) :   1.5908 B( 48-C , 53-H ) :   0.8677
B( 49-C , 50-C ) :   1.3625 B( 49-C , 54-H ) :   0.8419 B( 50-C , 51-C ) :   1.3440
B( 50-C , 56-C ) :   0.9252 B( 51-C , 55-H ) :   0.8669 B( 56-C , 57-C ) :   1.4289
B( 56-C , 61-C ) :   1.3849 B( 57-C , 58-C ) :   1.5180 B( 57-C , 62-H ) :   0.8680
B( 58-C , 59-C ) :   1.4466 B( 58-C , 63-H ) :   0.8628 B( 59-C , 60-N ) :   1.3412
B( 59-C , 64-H ) :   0.9227 B( 60-N , 61-C ) :   1.3823 B( 61-C , 65-H ) :   0.9104
B( 66-C , 67-C ) :   1.8490 B( 66-C , 68-C ) :  -0.3030 B( 66-C , 78-C ) :   1.4926
B( 67-C , 68-C ) :   1.4228 B( 67-C , 78-C ) :  -0.4017 B( 68-C , 69-C ) :   1.3525
B( 68-C , 73-C ) :   1.3357 B( 69-C , 70-C ) :   1.4759 B( 69-C , 74-H ) :   0.9082
B( 70-C , 71-C ) :   1.4172 B( 70-C , 75-H ) :   0.8678 B( 71-C , 72-N ) :   1.3500
B( 71-C , 76-H ) :   0.9208 B( 72-N , 73-C ) :   1.3678 B( 73-C , 77-H ) :   0.9465
B( 78-C , 79-C ) :   1.3606 B( 78-C , 83-C ) :   1.4113 B( 79-C , 80-C ) :   1.5421
B( 79-C , 84-H ) :   0.8797 B( 80-C , 81-C ) :   1.5861 B( 80-C , 85-H ) :   0.8676
B( 81-C , 82-C ) :   1.3639 B( 81-C , 86-H ) :   0.8422 B( 82-C , 83-C ) :   1.3453
B( 82-C , 88-C ) :   0.9172 B( 83-C , 87-H ) :   0.8732 B( 88-C , 89-C ) :   1.4371
B( 88-C , 93-C ) :   1.3596 B( 89-C , 90-C ) :   1.5231 B( 89-C , 94-H ) :   0.8677
B( 90-C , 91-C ) :   1.4510 B( 90-C , 95-H ) :   0.8629 B( 91-C , 92-N ) :   1.3510
B( 91-C , 96-H ) :   0.9178 B( 92-N , 93-C ) :   1.3762 B( 93-C , 97-H ) :   0.9210
B( 98-C , 99-C ) :   1.8554 B( 98-C ,100-C ) :  -0.3036 B( 98-C ,110-C ) :   1.4890
B( 99-C ,100-C ) :   1.4203 B( 99-C ,110-C ) :  -0.4025 B(100-C ,101-C ) :   1.3541
B(100-C ,105-C ) :   1.3216 B(101-C ,102-C ) :   1.4784 B(101-C ,106-H ) :   0.9081
B(102-C ,103-C ) :   1.4175 B(102-C ,107-H ) :   0.8683 B(103-C ,104-N ) :   1.3699
B(103-C ,108-H ) :   0.9181 B(104-N ,105-C ) :   1.3550 B(105-C ,109-H ) :   0.9533
B(110-C ,111-C ) :   1.3640 B(110-C ,115-C ) :   1.4055 B(111-C ,112-C ) :   1.5428
B(111-C ,116-H ) :   0.8800 B(112-C ,113-C ) :   1.5846 B(112-C ,117-H ) :   0.8678
B(113-C ,114-C ) :   1.3659 B(113-C ,118-H ) :   0.8419 B(114-C ,115-C ) :   1.3516
B(114-C ,120-C ) :   0.9132 B(115-C ,119-H ) :   0.8745 B(120-C ,121-C ) :   1.4341
B(120-C ,125-C ) :   1.3778 B(121-C ,122-C ) :   1.5185 B(121-C ,126-H ) :   0.8670
B(122-C ,123-C ) :   1.4541 B(122-C ,127-H ) :   0.8617 B(123-C ,124-N ) :   1.3370
B(123-C ,128-H ) :   0.9196 B(124-N ,125-C ) :   1.3890 B(125-C ,129-H ) :   0.9149

Dispersion correction           -0.485134906
FINAL SINGLE POINT ENERGY     -3464.236451970616

DIPOLE MOMENT
-------------
                                X             Y             Z
Electronic contribution:      2.46236      29.69634      -0.55744
Nuclear contribution   :     -2.50576     -29.77772       0.58353
                        -----------------------------------------
Total Dipole Moment    :     -0.04340      -0.08137       0.02610
                        -----------------------------------------
Magnitude (a.u.)       :      0.09585
Magnitude (Debye)      :      0.24362

Rotational constants in cm-1:     0.000827     0.000529     0.000525
Rotational constants in MHz :    24.800545    15.873873    15.728468

                             ****ORCA TERMINATED NORMALLY****
TOTAL RUN TIME: 0 days 0 hours 5 minutes 53 seconds 945 msec
