                         Program Version 4.2.1 -  RELEASE  -
|  1> ! DFT SP RKS PBE0 def2-SVP D3BJ Grid6 NOFINALGRID SlowConv TightSCF printbasis
|  2>
|  3> %base "_s_3d1_d_PBE0"
|  4> %maxcore 3000
|  5> %scf
|  6>    MaxIter 2000
|  7> end
|  8> %pal
|  9>    nprocs 32
| 10> end
| 11>
| 12> * xyzfile 4 1 s_3d1_d.xyz
| 13>
| 14>                          ****END OF INPUT****

CARTESIAN COORDINATES (ANGSTROEM)
---------------------------------
  Pd    -0.139200    4.605000    0.073700
  Pd     0.193500   -5.056700   -0.126300
  C      4.946400   -1.013800   -0.280700
  C      4.546600   -2.146300   -0.413800
  C      4.036800   -3.453900   -0.541800
  C      4.854600   -4.548400   -0.854900
  C      4.283400   -5.804400   -0.957600
  C      2.920700   -5.952600   -0.744700
  N      2.147300   -4.909000   -0.440400
  C      2.674900   -3.688200   -0.341100
  H      5.912000   -4.404100   -1.013800
  H      4.886700   -6.664200   -1.200200
  H      2.430400   -6.918200   -0.821100
  H      1.995100   -2.873600   -0.086200
  C      5.390600    0.309700   -0.073600
  C      6.677000    0.549100    0.415700
  C      7.078200    1.848100    0.666400
  C      6.217800    2.907400    0.433900
  C      4.933800    2.682600   -0.069300
  C      4.526400    1.376300   -0.322900
  H      7.345500   -0.276800    0.603100
  H      8.068100    2.038800    1.051900
  H      6.541100    3.909100    0.669700
  H      3.555900    1.172300   -0.746500
  C      4.028500    3.820100   -0.297800
  C      4.510300    5.064500   -0.717200
  C      3.635400    6.128200   -0.861000
  C      2.290300    5.932900   -0.600800
  N      1.821600    4.737000   -0.232900
  C      2.655900    3.709000   -0.078800
  H      5.558100    5.194100   -0.938000
  H      3.992800    7.096300   -1.172400
  H      1.566200    6.741100   -0.687600
  H      2.208500    2.776000    0.252800
  C      0.239500    0.642200    4.882000
  C      0.306200    1.774900    4.466600
  C      0.358600    3.080700    3.939200
  C      0.607600    4.202400    4.742200
  C      0.638400    5.454400    4.154200
  C      0.418900    5.571700    2.789500
  N      0.175800    4.502000    2.030200
  C      0.146000    3.284800    2.574200
  H      0.773700    4.081700    5.801400
  H      0.830500    6.334800    4.745800
  H      0.440400    6.533500    2.286100
  H     -0.061400    2.447900    1.905400
  C      0.110300   -0.684800    5.344900
  C     -0.359300   -0.934200    6.636800
  C     -0.533300   -2.239700    7.056700
  C     -0.243600   -3.295700    6.209500
  C      0.240700   -3.060100    4.920300
  C      0.417200   -1.747100    4.494100
  H     -0.591200   -0.111200    7.294900
  H     -0.903200   -2.438600    8.050900
  H     -0.420300   -4.304700    6.547600
  H      0.824400   -1.532500    3.518900
  C      0.530600   -4.195000    4.029400
  C      1.022300   -5.406600    4.526300
  C      1.223400   -6.472400    3.665200
  C      0.947700   -6.310800    2.318700
  N      0.510700   -5.144400    1.835400
  C      0.300800   -4.115500    2.656400
  H      1.254100   -5.508800    5.574700
  H      1.590800   -7.416200    4.034400
  H      1.078000   -7.122700    1.605400
  H     -0.085400   -3.209300    2.197800
  C     -4.825800   -1.360200    0.190200
  C     -4.348900   -2.467100    0.276600
  C     -3.750200   -3.740800    0.350800
  C     -4.490300   -4.901000    0.617300
  C     -3.833900   -6.117900    0.668200
  C     -2.464600   -6.163100    0.450700
  N     -1.765400   -5.057000    0.190900
  C     -2.375700   -3.872400    0.142000
  H     -5.554700   -4.836400    0.781000
  H     -4.376300   -7.026500    0.874200
  H     -1.909000   -7.095100    0.487300
  H     -1.754000   -3.003000   -0.078100
  C     -5.360400   -0.063000    0.037600
  C     -6.661200    0.107300   -0.442300
  C     -7.151300    1.384800   -0.639700
  C     -6.365200    2.490300   -0.363100
  C     -5.067900    2.333800    0.131400
  C     -4.571100    1.049300    0.331300
  H     -7.271700   -0.754200   -0.664100
  H     -8.152800    1.522700   -1.017800
  H     -6.757200    3.476200   -0.557800
  H     -3.587900    0.895300    0.746900
  C     -4.242500    3.520500    0.407500
  C     -4.808000    4.710500    0.877500
  C     -4.008000    5.824900    1.066100
  C     -2.653100    5.733500    0.799500
  N     -2.104000    4.589000    0.383000
  C     -2.865900    3.513300    0.185600
  H     -5.861800    4.758400    1.102400
  H     -4.430600    6.752500    1.416900
  H     -1.986200    6.585400    0.920500
  H     -2.356000    2.627800   -0.183900
  C     -0.250400    0.827400   -4.894800
  C     -0.394300    1.934600   -4.432800
  C     -0.535700    3.210900   -3.852100
  C     -0.862100    4.344900   -4.608600
  C     -0.978300    5.566500   -3.969500
  C     -0.765800    5.642300   -2.600700
  N     -0.448900    4.561400   -1.885800
  C     -0.336100    3.372600   -2.479400
  H     -1.020600    4.256900   -5.672100
  H     -1.231100    6.455300   -4.524700
  H     -0.852800    6.578700   -2.058200
  H     -0.071000    2.525000   -1.845400
  C     -0.030700   -0.467300   -5.411900
  C      0.453700   -0.630200   -6.712000
  C      0.716400   -1.902200   -7.185300
  C      0.500700   -3.009700   -6.383100
  C      0.002700   -2.861500   -5.086100
  C     -0.263100   -1.582500   -4.606300
  H      0.628000    0.233300   -7.335100
  H      1.098100   -2.034000   -8.186200
  H      0.745900   -3.989400   -6.762200
  H     -0.683200   -1.436800   -3.623800
  C     -0.207500   -4.049400   -4.243300
  C     -0.615200   -5.270500   -4.790600
  C     -0.741500   -6.382200   -3.974600
  C     -0.475900   -6.257800   -2.622100
  N     -0.119600   -5.085100   -2.090400
  C      0.018000   -4.011200   -2.867900
  H     -0.840600   -5.345000   -5.842800
  H     -1.043500   -7.333000   -4.383000
  H     -0.549100   -7.105500   -1.943100
  H      0.341300   -3.100200   -2.371600

 Total Charge           Charge          ....    4
 Multiplicity           Mult            ....    1
 Number of Electrons    NEL             ....  568
 Basis Dimension        Dim             .... 1422

ORBITAL ENERGIES
----------------

  NO   OCC          E(Eh)            E(eV)
   0   2.0000     -14.777781      -402.1239
   1   2.0000     -14.777771      -402.1236
   2   2.0000     -14.777755      -402.1232
   3   2.0000     -14.777744      -402.1229
   4   2.0000     -14.774778      -402.0421
   5   2.0000     -14.774773      -402.0420
   6   2.0000     -14.774751      -402.0414
   7   2.0000     -14.774744      -402.0412
   8   2.0000     -10.610714      -288.7322
   9   2.0000     -10.610703      -288.7319
  10   2.0000     -10.610690      -288.7316
  11   2.0000     -10.610679      -288.7312
  12   2.0000     -10.604634      -288.5668
  13   2.0000     -10.604629      -288.5666
  14   2.0000     -10.604610      -288.5661
  15   2.0000     -10.604608      -288.5661
  16   2.0000     -10.603597      -288.5385
  17   2.0000     -10.603595      -288.5385
  18   2.0000     -10.603580      -288.5381
  19   2.0000     -10.603577      -288.5380
  20   2.0000     -10.600858      -288.4640
  21   2.0000     -10.600857      -288.4640
  22   2.0000     -10.600837      -288.4634
  23   2.0000     -10.600832      -288.4633
  24   2.0000     -10.588742      -288.1343
  25   2.0000     -10.588735      -288.1341
  26   2.0000     -10.588734      -288.1341
  27   2.0000     -10.588731      -288.1340
  28   2.0000     -10.572950      -287.7046
  29   2.0000     -10.572944      -287.7044
  30   2.0000     -10.572941      -287.7043
  31   2.0000     -10.572939      -287.7043
  32   2.0000     -10.570262      -287.6315
  33   2.0000     -10.570247      -287.6310
  34   2.0000     -10.570247      -287.6310
  35   2.0000     -10.570232      -287.6306
  36   2.0000     -10.565092      -287.4908
  37   2.0000     -10.565092      -287.4908
  38   2.0000     -10.565073      -287.4903
  39   2.0000     -10.565064      -287.4900
  40   2.0000     -10.561861      -287.4029
  41   2.0000     -10.561856      -287.4027
  42   2.0000     -10.561855      -287.4027
  43   2.0000     -10.561842      -287.4023
  44   2.0000     -10.558873      -287.3215
  45   2.0000     -10.558860      -287.3212
  46   2.0000     -10.558853      -287.3210
  47   2.0000     -10.558841      -287.3207
  48   2.0000     -10.548117      -287.0288
  49   2.0000     -10.548114      -287.0288
  50   2.0000     -10.548107      -287.0286
  51   2.0000     -10.548100      -287.0284
  52   2.0000     -10.543548      -286.9045
  53   2.0000     -10.543541      -286.9043
  54   2.0000     -10.543537      -286.9042
  55   2.0000     -10.543534      -286.9042
  56   2.0000     -10.539800      -286.8025
  57   2.0000     -10.539797      -286.8024
  58   2.0000     -10.539790      -286.8023
  59   2.0000     -10.539788      -286.8022
  60   2.0000     -10.537535      -286.7409
  61   2.0000     -10.537532      -286.7408
  62   2.0000     -10.537530      -286.7408
  63   2.0000     -10.537528      -286.7407
  64   2.0000     -10.532048      -286.5916
  65   2.0000     -10.532045      -286.5915
  66   2.0000     -10.532035      -286.5912
  67   2.0000     -10.532033      -286.5912
  68   2.0000     -10.525571      -286.4153
  69   2.0000     -10.525568      -286.4153
  70   2.0000     -10.525565      -286.4152
  71   2.0000     -10.525554      -286.4149
  72   2.0000     -10.523742      -286.3656
  73   2.0000     -10.523730      -286.3652
  74   2.0000     -10.523726      -286.3651
  75   2.0000     -10.523724      -286.3651
  76   2.0000     -10.514885      -286.1246
  77   2.0000     -10.514884      -286.1245
  78   2.0000     -10.514873      -286.1242
  79   2.0000     -10.514870      -286.1241
  80   2.0000      -3.874950      -105.4427
  81   2.0000      -3.874943      -105.4426
  82   2.0000      -2.552553       -69.4585
  83   2.0000      -2.552538       -69.4581
  84   2.0000      -2.552008       -69.4437
  85   2.0000      -2.552005       -69.4436
  86   2.0000      -2.515532       -68.4511
  87   2.0000      -2.515527       -68.4510
  88   2.0000      -1.330074       -36.1932
  89   2.0000      -1.330060       -36.1928
  90   2.0000      -1.323803       -36.0225
  91   2.0000      -1.323782       -36.0219
  92   2.0000      -1.320734       -35.9390
  93   2.0000      -1.320730       -35.9389
  94   2.0000      -1.319986       -35.9186
  95   2.0000      -1.319985       -35.9186
  96   2.0000      -1.188586       -32.3431
  97   2.0000      -1.188425       -32.3387
  98   2.0000      -1.188170       -32.3318
  99   2.0000      -1.188169       -32.3317
 100   2.0000      -1.167105       -31.7585
 101   2.0000      -1.166337       -31.7376
 102   2.0000      -1.165000       -31.7013
 103   2.0000      -1.164985       -31.7008
 104   2.0000      -1.152240       -31.3540
 105   2.0000      -1.151370       -31.3304
 106   2.0000      -1.150363       -31.3030
 107   2.0000      -1.150359       -31.3029
 108   2.0000      -1.127186       -30.6723
 109   2.0000      -1.126223       -30.6461
 110   2.0000      -1.126207       -30.6456
 111   2.0000      -1.126007       -30.6402
 112   2.0000      -1.121399       -30.5148
 113   2.0000      -1.120966       -30.5030
 114   2.0000      -1.120959       -30.5028
 115   2.0000      -1.119990       -30.4765
 116   2.0000      -1.090430       -29.6721
 117   2.0000      -1.089875       -29.6570
 118   2.0000      -1.089868       -29.6568
 119   2.0000      -1.089389       -29.6438
 120   2.0000      -1.057349       -28.7719
 121   2.0000      -1.057310       -28.7709
 122   2.0000      -1.057306       -28.7708
 123   2.0000      -1.057227       -28.7686
 124   2.0000      -1.045337       -28.4451
 125   2.0000      -1.045062       -28.4376
 126   2.0000      -1.045059       -28.4375
 127   2.0000      -1.044351       -28.4182
 128   2.0000      -0.995358       -27.0851
 129   2.0000      -0.994793       -27.0697
 130   2.0000      -0.994790       -27.0696
 131   2.0000      -0.992963       -27.0199
 132   2.0000      -0.983199       -26.7542
 133   2.0000      -0.983057       -26.7503
 134   2.0000      -0.983049       -26.7501
 135   2.0000      -0.980662       -26.6852
 136   2.0000      -0.977483       -26.5987
 137   2.0000      -0.977200       -26.5910
 138   2.0000      -0.974710       -26.5232
 139   2.0000      -0.973730       -26.4966
 140   2.0000      -0.973716       -26.4962
 141   2.0000      -0.973631       -26.4938
 142   2.0000      -0.971076       -26.4243
 143   2.0000      -0.971067       -26.4241
 144   2.0000      -0.928948       -25.2780
 145   2.0000      -0.928294       -25.2602
 146   2.0000      -0.926788       -25.2192
 147   2.0000      -0.926783       -25.2190
 148   2.0000      -0.915074       -24.9004
 149   2.0000      -0.914790       -24.8927
 150   2.0000      -0.912325       -24.8256
 151   2.0000      -0.912317       -24.8254
 152   2.0000      -0.902473       -24.5575
 153   2.0000      -0.898742       -24.4560
 154   2.0000      -0.887978       -24.1631
 155   2.0000      -0.887967       -24.1628
 156   2.0000      -0.886921       -24.1343
 157   2.0000      -0.882156       -24.0047
 158   2.0000      -0.875832       -23.8326
 159   2.0000      -0.875826       -23.8324
 160   2.0000      -0.849846       -23.1255
 161   2.0000      -0.848635       -23.0925
 162   2.0000      -0.848626       -23.0923
 163   2.0000      -0.846552       -23.0358
 164   2.0000      -0.840115       -22.8607
 165   2.0000      -0.839699       -22.8494
 166   2.0000      -0.839689       -22.8491
 167   2.0000      -0.838752       -22.8236
 168   2.0000      -0.837092       -22.7784
 169   2.0000      -0.837089       -22.7783
 170   2.0000      -0.836191       -22.7539
 171   2.0000      -0.835686       -22.7402
 172   2.0000      -0.827222       -22.5099
 173   2.0000      -0.825125       -22.4528
 174   2.0000      -0.825119       -22.4526
 175   2.0000      -0.823621       -22.4119
 176   2.0000      -0.805328       -21.9141
 177   2.0000      -0.805311       -21.9136
 178   2.0000      -0.801124       -21.7997
 179   2.0000      -0.800934       -21.7945
 180   2.0000      -0.796385       -21.6707
 181   2.0000      -0.795507       -21.6469
 182   2.0000      -0.789378       -21.4801
 183   2.0000      -0.789374       -21.4800
 184   2.0000      -0.781866       -21.2757
 185   2.0000      -0.781574       -21.2677
 186   2.0000      -0.779729       -21.2175
 187   2.0000      -0.779499       -21.2113
 188   2.0000      -0.779496       -21.2112
 189   2.0000      -0.777458       -21.1557
 190   2.0000      -0.776415       -21.1273
 191   2.0000      -0.776373       -21.1262
 192   2.0000      -0.774744       -21.0819
 193   2.0000      -0.774697       -21.0806
 194   2.0000      -0.774550       -21.0766
 195   2.0000      -0.772931       -21.0325
 196   2.0000      -0.771301       -20.9882
 197   2.0000      -0.771269       -20.9873
 198   2.0000      -0.769471       -20.9384
 199   2.0000      -0.769239       -20.9320
 200   2.0000      -0.765135       -20.8204
 201   2.0000      -0.765127       -20.8202
 202   2.0000      -0.757395       -20.6098
 203   2.0000      -0.756125       -20.5752
 204   2.0000      -0.755745       -20.5649
 205   2.0000      -0.755741       -20.5648
 206   2.0000      -0.749803       -20.4032
 207   2.0000      -0.748833       -20.3768
 208   2.0000      -0.746328       -20.3086
 209   2.0000      -0.746316       -20.3083
 210   2.0000      -0.744414       -20.2565
 211   2.0000      -0.744398       -20.2561
 212   2.0000      -0.728270       -19.8172
 213   2.0000      -0.728180       -19.8148
 214   2.0000      -0.727937       -19.8082
 215   2.0000      -0.727935       -19.8081
 216   2.0000      -0.716840       -19.5062
 217   2.0000      -0.716280       -19.4910
 218   2.0000      -0.715771       -19.4771
 219   2.0000      -0.715765       -19.4770
 220   2.0000      -0.705490       -19.1974
 221   2.0000      -0.704682       -19.1754
 222   2.0000      -0.704679       -19.1753
 223   2.0000      -0.704472       -19.1697
 224   2.0000      -0.702986       -19.1292
 225   2.0000      -0.702372       -19.1125
 226   2.0000      -0.700064       -19.0497
 227   2.0000      -0.697826       -18.9888
 228   2.0000      -0.696541       -18.9538
 229   2.0000      -0.694047       -18.8860
 230   2.0000      -0.694044       -18.8859
 231   2.0000      -0.691521       -18.8172
 232   2.0000      -0.689229       -18.7549
 233   2.0000      -0.678419       -18.4607
 234   2.0000      -0.669119       -18.2076
 235   2.0000      -0.669117       -18.2076
 236   2.0000      -0.663132       -18.0447
 237   2.0000      -0.663120       -18.0444
 238   2.0000      -0.659117       -17.9355
 239   2.0000      -0.659108       -17.9352
 240   2.0000      -0.658958       -17.9312
 241   2.0000      -0.658815       -17.9273
 242   2.0000      -0.656822       -17.8730
 243   2.0000      -0.656807       -17.8726
 244   2.0000      -0.654190       -17.8014
 245   2.0000      -0.652939       -17.7674
 246   2.0000      -0.650793       -17.7090
 247   2.0000      -0.648071       -17.6349
 248   2.0000      -0.648043       -17.6341
 249   2.0000      -0.643804       -17.5188
 250   2.0000      -0.643732       -17.5168
 251   2.0000      -0.643720       -17.5165
 252   2.0000      -0.640813       -17.4374
 253   2.0000      -0.640797       -17.4370
 254   2.0000      -0.629198       -17.1214
 255   2.0000      -0.628091       -17.0912
 256   2.0000      -0.628058       -17.0903
 257   2.0000      -0.620851       -16.8942
 258   2.0000      -0.618158       -16.8209
 259   2.0000      -0.618148       -16.8207
 260   2.0000      -0.614698       -16.7268
 261   2.0000      -0.611178       -16.6310
 262   2.0000      -0.611143       -16.6301
 263   2.0000      -0.609284       -16.5795
 264   2.0000      -0.607037       -16.5183
 265   2.0000      -0.607021       -16.5179
 266   2.0000      -0.597903       -16.2698
 267   2.0000      -0.596327       -16.2269
 268   2.0000      -0.594366       -16.1735
 269   2.0000      -0.594119       -16.1668
 270   2.0000      -0.594078       -16.1657
 271   2.0000      -0.591291       -16.0898
 272   2.0000      -0.577086       -15.7033
 273   2.0000      -0.576560       -15.6890
 274   2.0000      -0.576482       -15.6869
 275   2.0000      -0.576114       -15.6769
 276   2.0000      -0.549852       -14.9622
 277   2.0000      -0.549527       -14.9534
 278   2.0000      -0.549524       -14.9533
 279   2.0000      -0.549100       -14.9418
 280   2.0000      -0.530313       -14.4306
 281   2.0000      -0.529384       -14.4053
 282   2.0000      -0.529360       -14.4046
 283   2.0000      -0.528434       -14.3794
 284   0.0000      -0.366598        -9.9756
 285   0.0000      -0.366579        -9.9751
 286   0.0000      -0.365532        -9.9466
 287   0.0000      -0.365270        -9.9395
 288   0.0000      -0.361111        -9.8263

MULLIKEN ATOMIC CHARGES
-----------------------
   0 Pd:    0.392539
   1 Pd:    0.392528
   2 C :    0.032509
   3 C :   -0.020257
   4 C :   -0.103382
   5 C :    0.119471
   6 C :   -0.021702
   7 C :    0.130777
   8 N :   -0.302412
   9 C :    0.154845
  10 H :    0.084211
  11 H :    0.093182
  12 H :    0.091387
  13 H :    0.057922
  14 C :   -0.063880
  15 C :    0.051256
  16 C :    0.011998
  17 C :   -0.008584
  18 C :    0.040985
  19 C :   -0.010762
  20 H :    0.055316
  21 H :    0.072749
  22 H :    0.047595
  23 H :   -0.004082
  24 C :   -0.023294
  25 C :    0.065313
  26 C :   -0.012353
  27 C :    0.128622
  28 N :   -0.304930
  29 C :    0.135562
  30 H :    0.081545
  31 H :    0.088550
  32 H :    0.089936
  33 H :    0.045629
  34 C :    0.032501
  35 C :   -0.020314
  36 C :   -0.103324
  37 C :    0.119478
  38 C :   -0.021646
  39 C :    0.130726
  40 N :   -0.302334
  41 C :    0.154755
  42 H :    0.084154
  43 H :    0.093149
  44 H :    0.091437
  45 H :    0.057891
  46 C :   -0.063830
  47 C :    0.051284
  48 C :    0.012029
  49 C :   -0.008714
  50 C :    0.041112
  51 C :   -0.010753
  52 H :    0.055348
  53 H :    0.072753
  54 H :    0.047657
  55 H :   -0.004194
  56 C :   -0.023256
  57 C :    0.065302
  58 C :   -0.012425
  59 C :    0.128715
  60 N :   -0.304922
  61 C :    0.135392
  62 H :    0.081512
  63 H :    0.088580
  64 H :    0.089903
  65 H :    0.045771
  66 C :    0.032475
  67 C :   -0.020242
  68 C :   -0.103463
  69 C :    0.119569
  70 C :   -0.021754
  71 C :    0.130772
  72 N :   -0.302312
  73 C :    0.154847
  74 H :    0.084133
  75 H :    0.093216
  76 H :    0.091421
  77 H :    0.057893
  78 C :   -0.063818
  79 C :    0.051244
  80 C :    0.011970
  81 C :   -0.008698
  82 C :    0.041100
  83 C :   -0.010812
  84 H :    0.055297
  85 H :    0.072776
  86 H :    0.047613
  87 H :   -0.004052
  88 C :   -0.023337
  89 C :    0.065378
  90 C :   -0.012433
  91 C :    0.128632
  92 N :   -0.304853
  93 C :    0.135491
  94 H :    0.081520
  95 H :    0.088590
  96 H :    0.089943
  97 H :    0.045596
  98 C :    0.032471
  99 C :   -0.020311
 100 C :   -0.103331
 101 C :    0.119514
 102 C :   -0.021714
 103 C :    0.130797
 104 N :   -0.302294
 105 C :    0.154833
 106 H :    0.084106
 107 H :    0.093189
 108 H :    0.091366
 109 H :    0.057868
 110 C :   -0.063816
 111 C :    0.051228
 112 C :    0.012035
 113 C :   -0.008691
 114 C :    0.041124
 115 C :   -0.010791
 116 H :    0.055362
 117 H :    0.072762
 118 H :    0.047655
 119 H :   -0.004167
 120 C :   -0.023267
 121 C :    0.065302
 122 C :   -0.012417
 123 C :    0.128655
 124 N :   -0.304915
 125 C :    0.135341
 126 H :    0.081557
 127 H :    0.088568
 128 H :    0.089952
 129 H :    0.045805
Sum of atomic charges:    4.0000000

LOEWDIN ATOMIC CHARGES
----------------------
   0 Pd:   -0.349076
   1 Pd:   -0.349051
   2 C :    0.030741
   3 C :   -0.052853
   4 C :   -0.032186
   5 C :    0.075002
   6 C :    0.010505
   7 C :    0.070671
   8 N :    0.071215
   9 C :    0.074340
  10 H :    0.069066
  11 H :    0.070791
  12 H :    0.059024
  13 H :    0.053194
  14 C :   -0.050906
  15 C :    0.036843
  16 C :    0.013113
  17 C :    0.014124
  18 C :   -0.035722
  19 C :    0.000529
  20 H :    0.055970
  21 H :    0.059986
  22 H :    0.047227
  23 H :    0.029379
  24 C :   -0.005976
  25 C :    0.060706
  26 C :    0.010203
  27 C :    0.067324
  28 N :    0.069981
  29 C :    0.066137
  30 H :    0.062838
  31 H :    0.069425
  32 H :    0.059227
  33 H :    0.044623
  34 C :    0.030739
  35 C :   -0.052855
  36 C :   -0.032167
  37 C :    0.074997
  38 C :    0.010501
  39 C :    0.070658
  40 N :    0.071222
  41 C :    0.074304
  42 H :    0.069038
  43 H :    0.070777
  44 H :    0.059044
  45 H :    0.053181
  46 C :   -0.050889
  47 C :    0.036856
  48 C :    0.013135
  49 C :    0.014158
  50 C :   -0.035745
  51 C :    0.000538
  52 H :    0.055987
  53 H :    0.059990
  54 H :    0.047250
  55 H :    0.029341
  56 C :   -0.005980
  57 C :    0.060728
  58 C :    0.010188
  59 C :    0.067303
  60 N :    0.069968
  61 C :    0.066121
  62 H :    0.062814
  63 H :    0.069432
  64 H :    0.059221
  65 H :    0.044657
  66 C :    0.030742
  67 C :   -0.052856
  68 C :   -0.032153
  69 C :    0.075003
  70 C :    0.010510
  71 C :    0.070656
  72 N :    0.071249
  73 C :    0.074290
  74 H :    0.069030
  75 H :    0.070804
  76 H :    0.059034
  77 H :    0.053203
  78 C :   -0.050916
  79 C :    0.036835
  80 C :    0.013124
  81 C :    0.014110
  82 C :   -0.035736
  83 C :    0.000524
  84 H :    0.055965
  85 H :    0.060000
  86 H :    0.047239
  87 H :    0.029397
  88 C :   -0.005948
  89 C :    0.060711
  90 C :    0.010167
  91 C :    0.067308
  92 N :    0.069995
  93 C :    0.066097
  94 H :    0.062825
  95 H :    0.069444
  96 H :    0.059240
  97 H :    0.044617
  98 C :    0.030744
  99 C :   -0.052866
 100 C :   -0.032142
 101 C :    0.074984
 102 C :    0.010529
 103 C :    0.070662
 104 N :    0.071257
 105 C :    0.074305
 106 H :    0.069020
 107 H :    0.070790
 108 H :    0.059020
 109 H :    0.053179
 110 C :   -0.050903
 111 C :    0.036848
 112 C :    0.013130
 113 C :    0.014153
 114 C :   -0.035748
 115 C :    0.000542
 116 H :    0.055995
 117 H :    0.059998
 118 H :    0.047250
 119 H :    0.029355
 120 C :   -0.005985
 121 C :    0.060723
 122 C :    0.010169
 123 C :    0.067308
 124 N :    0.069979
 125 C :    0.066101
 126 H :    0.062834
 127 H :    0.069426
 128 H :    0.059231
 129 H :    0.044669

  Mayer bond orders larger than 0.100000
B(  0-Pd, 28-N ) :   0.5461 B(  0-Pd, 40-N ) :   0.5423 B(  0-Pd, 92-N ) :   0.5460
B(  0-Pd,104-N ) :   0.5423 B(  1-Pd,  8-N ) :   0.5423 B(  1-Pd, 60-N ) :   0.5460
B(  1-Pd, 72-N ) :   0.5422 B(  1-Pd,124-N ) :   0.5460 B(  2-C ,  3-C ) :   2.6083
B(  2-C , 14-C ) :   1.0057 B(  3-C ,  4-C ) :   1.0137 B(  4-C ,  5-C ) :   1.3370
B(  4-C ,  9-C ) :   1.3779 B(  5-C ,  6-C ) :   1.4046 B(  5-C , 10-H ) :   0.9862
B(  6-C ,  7-C ) :   1.4169 B(  6-C , 11-H ) :   0.9713 B(  7-C ,  8-N ) :   1.3219
B(  7-C , 12-H ) :   0.9543 B(  8-N ,  9-C ) :   1.3208 B(  9-C , 13-H ) :   0.9586
B( 14-C , 15-C ) :   1.3295 B( 14-C , 19-C ) :   1.3425 B( 15-C , 16-C ) :   1.3857
B( 15-C , 20-H ) :   0.9959 B( 16-C , 17-C ) :   1.3971 B( 16-C , 21-H ) :   0.9820
B( 17-C , 18-C ) :   1.3568 B( 17-C , 22-H ) :   0.9880 B( 18-C , 19-C ) :   1.3649
B( 18-C , 24-C ) :   1.0078 B( 19-C , 23-H ) :   0.9854 B( 24-C , 25-C ) :   1.3737
B( 24-C , 29-C ) :   1.4036 B( 25-C , 26-C ) :   1.4040 B( 25-C , 30-H ) :   0.9796
B( 26-C , 27-C ) :   1.4288 B( 26-C , 31-H ) :   0.9714 B( 27-C , 28-N ) :   1.3102
B( 27-C , 32-H ) :   0.9487 B( 28-N , 29-C ) :   1.3306 B( 29-C , 33-H ) :   0.9548
B( 34-C , 35-C ) :   2.6082 B( 34-C , 46-C ) :   1.0057 B( 35-C , 36-C ) :   1.0138
B( 36-C , 37-C ) :   1.3369 B( 36-C , 41-C ) :   1.3778 B( 37-C , 38-C ) :   1.4047
B( 37-C , 42-H ) :   0.9862 B( 38-C , 39-C ) :   1.4168 B( 38-C , 43-H ) :   0.9713
B( 39-C , 40-N ) :   1.3219 B( 39-C , 44-H ) :   0.9542 B( 40-N , 41-C ) :   1.3209
B( 41-C , 45-H ) :   0.9586 B( 46-C , 47-C ) :   1.3293 B( 46-C , 51-C ) :   1.3426
B( 47-C , 48-C ) :   1.3859 B( 47-C , 52-H ) :   0.9959 B( 48-C , 49-C ) :   1.3969
B( 48-C , 53-H ) :   0.9820 B( 49-C , 50-C ) :   1.3570 B( 49-C , 54-H ) :   0.9880
B( 50-C , 51-C ) :   1.3647 B( 50-C , 56-C ) :   1.0078 B( 51-C , 55-H ) :   0.9853
B( 56-C , 57-C ) :   1.3737 B( 56-C , 61-C ) :   1.4036 B( 57-C , 58-C ) :   1.4040
B( 57-C , 62-H ) :   0.9796 B( 58-C , 59-C ) :   1.4288 B( 58-C , 63-H ) :   0.9713
B( 59-C , 60-N ) :   1.3103 B( 59-C , 64-H ) :   0.9487 B( 60-N , 61-C ) :   1.3306
B( 61-C , 65-H ) :   0.9548 B( 66-C , 67-C ) :   2.6083 B( 66-C , 78-C ) :   1.0057
B( 67-C , 68-C ) :   1.0138 B( 68-C , 69-C ) :   1.3370 B( 68-C , 73-C ) :   1.3778
B( 69-C , 70-C ) :   1.4046 B( 69-C , 74-H ) :   0.9862 B( 70-C , 71-C ) :   1.4169
B( 70-C , 75-H ) :   0.9713 B( 71-C , 72-N ) :   1.3218 B( 71-C , 76-H ) :   0.9543
B( 72-N , 73-C ) :   1.3210 B( 73-C , 77-H ) :   0.9585 B( 78-C , 79-C ) :   1.3295
B( 78-C , 83-C ) :   1.3425 B( 79-C , 80-C ) :   1.3857 B( 79-C , 84-H ) :   0.9959
B( 80-C , 81-C ) :   1.3970 B( 80-C , 85-H ) :   0.9820 B( 81-C , 82-C ) :   1.3569
B( 81-C , 86-H ) :   0.9880 B( 82-C , 83-C ) :   1.3648 B( 82-C , 88-C ) :   1.0078
B( 83-C , 87-H ) :   0.9853 B( 88-C , 89-C ) :   1.3736 B( 88-C , 93-C ) :   1.4037
B( 89-C , 90-C ) :   1.4042 B( 89-C , 94-H ) :   0.9796 B( 90-C , 91-C ) :   1.4287
B( 90-C , 95-H ) :   0.9713 B( 91-C , 92-N ) :   1.3104 B( 91-C , 96-H ) :   0.9487
B( 92-N , 93-C ) :   1.3306 B( 93-C , 97-H ) :   0.9548 B( 98-C , 99-C ) :   2.6083
B( 98-C ,110-C ) :   1.0057 B( 99-C ,100-C ) :   1.0138 B(100-C ,101-C ) :   1.3370
B(100-C ,105-C ) :   1.3777 B(101-C ,102-C ) :   1.4047 B(101-C ,106-H ) :   0.9862
B(102-C ,103-C ) :   1.4168 B(102-C ,107-H ) :   0.9713 B(103-C ,104-N ) :   1.3219
B(103-C ,108-H ) :   0.9543 B(104-N ,105-C ) :   1.3209 B(105-C ,109-H ) :   0.9586
B(110-C ,111-C ) :   1.3294 B(110-C ,115-C ) :   1.3425 B(111-C ,112-C ) :   1.3857
B(111-C ,116-H ) :   0.9959 B(112-C ,113-C ) :   1.3970 B(112-C ,117-H ) :   0.9820
B(113-C ,114-C ) :   1.3569 B(113-C ,118-H ) :   0.9880 B(114-C ,115-C ) :   1.3648
B(114-C ,120-C ) :   1.0079 B(115-C ,119-H ) :   0.9853 B(120-C ,121-C ) :   1.3735
B(120-C ,125-C ) :   1.4037 B(121-C ,122-C ) :   1.4041 B(121-C ,126-H ) :   0.9796
B(122-C ,123-C ) :   1.4287 B(122-C ,127-H ) :   0.9713 B(123-C ,124-N ) :   1.3104
B(123-C ,128-H ) :   0.9487 B(124-N ,125-C ) :   1.3305 B(125-C ,129-H ) :   0.9548

Dispersion correction           -0.205958473
FINAL SINGLE POINT ENERGY     -3459.288709255239

DIPOLE MOMENT
-------------
                                X             Y             Z
Electronic contribution:     -0.02405       0.01541      -0.03919
Nuclear contribution   :      0.02457      -0.01559       0.03932
                        -----------------------------------------
Total Dipole Moment    :      0.00052      -0.00018       0.00013
                        -----------------------------------------
Magnitude (a.u.)       :      0.00056
Magnitude (Debye)      :      0.00144

Rotational constants in cm-1:     0.000820     0.000528     0.000528
Rotational constants in MHz :    24.597067    15.838725    15.818310

                             ****ORCA TERMINATED NORMALLY****
TOTAL RUN TIME: 0 days 0 hours 13 minutes 14 seconds 672 msec
