                         Program Version 4.2.1 -  RELEASE  -
|  1> ! DFT SP RKS PBE0 def2-SVP D3BJ Grid6 NOFINALGRID SlowConv TightSCF printbasis
|  2>
|  3> %base "_s_3d1_c_PBE0"
|  4> %maxcore 3000
|  5> %scf
|  6>    MaxIter 2000
|  7> end
|  8> %pal
|  9>    nprocs 32
| 10> end
| 11>
| 12> * xyzfile 4 1 s_3d1_c.xyz
| 13>
| 14>                          ****END OF INPUT****

CARTESIAN COORDINATES (ANGSTROEM)
---------------------------------
  Pd    -0.209000    2.922200    0.110900
  Pd    -0.731000   -6.722600    0.211200
  C      4.360200   -2.952500    0.028600
  C      3.845900   -4.036900    0.168900
  C      3.239700   -5.300000    0.320300
  C      3.994100   -6.454400    0.570300
  C      3.341100   -7.666500    0.707900
  C      1.960300   -7.710600    0.592900
  N      1.245800   -6.608900    0.348100
  C      1.853000   -5.430600    0.214600
  H      5.067600   -6.389000    0.655400
  H      3.894900   -8.570400    0.903500
  H      1.405700   -8.639300    0.701500
  H      1.217900   -4.570100    0.011200
  C      4.919800   -1.674000   -0.182000
  C      6.193700   -1.545500   -0.740500
  C      6.702200   -0.284200   -0.989600
  C      5.960300    0.846200   -0.691600
  C      4.690500    0.732100   -0.120300
  C      4.178200   -0.536400    0.136700
  H      6.769000   -2.425700   -0.982200
  H      7.683200   -0.178500   -1.427100
  H      6.364000    1.817600   -0.930000
  H      3.219200   -0.660800    0.613800
  C      3.901100    1.940200    0.168000
  C      4.503400    3.143900    0.550400
  C      3.722500    4.269600    0.751500
  C      2.350700    4.178400    0.586500
  N      1.769700    3.024300    0.252600
  C      2.512800    1.936700    0.042600
  H      5.570600    3.194100    0.698800
  H      4.172500    5.207100    1.035500
  H      1.698100    5.036700    0.724100
  H      1.974600    1.040200   -0.258100
  C     -0.315300   -2.756500    5.066500
  C     -0.495800   -3.876600    4.650400
  C     -0.668400   -5.169900    4.118900
  C     -0.773300   -6.306000    4.933000
  C     -0.912000   -7.547400    4.337400
  C     -0.934900   -7.640600    2.953700
  N     -0.835500   -6.555200    2.182600
  C     -0.712000   -5.348600    2.734400
  H     -0.743600   -6.205400    6.006700
  H     -0.996400   -8.438400    4.938300
  H     -1.037500   -8.594500    2.443300
  H     -0.636400   -4.498700    2.056700
  C     -0.059800   -1.447500    5.527200
  C      0.501800   -1.244300    6.790300
  C      0.790800    0.041500    7.207800
  C      0.524200    1.124300    6.387100
  C     -0.047900    0.935200    5.126700
  C     -0.338300   -0.357400    4.701800
  H      0.712700   -2.088000    7.428800
  H      1.231200    0.203700    8.179700
  H      0.785800    2.116100    6.720900
  H     -0.812900   -0.531700    3.749300
  C     -0.323000    2.096300    4.265100
  C     -0.747900    3.316100    4.802300
  C     -0.960100    4.399100    3.966200
  C     -0.759200    4.247000    2.605300
  N     -0.375000    3.078000    2.086800
  C     -0.156500    2.030400    2.882700
  H     -0.922500    3.409000    5.862700
  H     -1.281000    5.347900    4.364700
  H     -0.908300    5.068900    1.908600
  H      0.183800    1.121100    2.392200
  C     -5.298700   -0.847000    0.308800
  C     -4.785300    0.236700    0.159500
  C     -4.179200    1.498800   -0.000700
  C     -4.933300    2.651500   -0.259200
  C     -4.280000    3.862600   -0.404300
  C     -2.899400    3.907500   -0.287600
  N     -2.185200    2.807300   -0.035000
  C     -2.792600    1.630000    0.105200
  H     -6.006700    2.585500   -0.344900
  H     -4.833600    4.765200   -0.606400
  H     -2.344600    4.835500   -0.401100
  H     -2.157700    0.770600    0.314200
  C     -5.856300   -2.124600    0.530000
  C     -7.124000   -2.251000    1.103100
  C     -7.629700   -3.511300    1.362300
  C     -6.891100   -4.642900    1.060300
  C     -5.627600   -4.530900    0.474700
  C     -5.118200   -3.263400    0.207400
  H     -7.696500   -1.369900    1.347800
  H     -8.605800   -3.615400    1.811100
  H     -7.292000   -5.613500    1.306700
  H     -4.164600   -3.140800   -0.280800
  C     -4.841200   -5.739900    0.182600
  C     -5.447000   -6.945000   -0.189500
  C     -4.667800   -8.071200   -0.394600
  C     -3.294500   -7.979300   -0.243100
  N     -2.710500   -6.824100    0.081400
  C     -3.451700   -5.735800    0.294500
  H     -6.515600   -6.995900   -0.327000
  H     -5.120400   -9.009700   -0.671100
  H     -2.643100   -8.837900   -0.384200
  H     -2.910700   -4.838000    0.586500
  C     -0.634000   -1.042200   -4.743200
  C     -0.446100    0.076900   -4.327600
  C     -0.266400    1.369300   -3.796300
  C     -0.154700    2.504700   -4.610300
  C     -0.010400    3.745500   -4.014600
  C      0.010600    3.838800   -2.630900
  N     -0.095200    2.753900   -1.859900
  C     -0.223400    1.547800   -2.411700
  H     -0.183600    2.404200   -5.684100
  H      0.079300    4.636000   -4.615500
  H      0.116800    4.792300   -2.120500
  H     -0.303600    0.698300   -1.734100
  C     -0.898600   -2.349900   -5.202400
  C     -1.470800   -2.550300   -6.461100
  C     -1.769100   -3.834700   -6.876500
  C     -1.501000   -4.918800   -6.058100
  C     -0.918200   -4.732600   -4.802300
  C     -0.618700   -3.441500   -4.379300
  H     -1.682900   -1.705500   -7.097800
  H     -2.217900   -3.994600   -7.845000
  H     -1.769800   -5.909400   -6.390100
  H     -0.135800   -3.269600   -3.430500
  C     -0.641300   -5.895100   -3.943100
  C     -0.225400   -7.116300   -4.483900
  C     -0.010800   -8.200400   -3.649700
  C     -0.200600   -8.047800   -2.287200
  N     -0.576500   -6.877600   -1.765500
  C     -0.797100   -5.828900   -2.559500
  H     -0.059400   -7.209700   -5.545600
  H      0.303500   -9.150200   -4.050900
  H     -0.049100   -8.870500   -1.592000
  H     -1.130200   -4.918500   -2.066200

 Total Charge           Charge          ....    4
 Multiplicity           Mult            ....    1
 Number of Electrons    NEL             ....  568
 Basis Dimension        Dim             .... 1422

ORBITAL ENERGIES
----------------

  NO   OCC          E(Eh)            E(eV)
   0   2.0000     -14.778318      -402.1385
   1   2.0000     -14.778271      -402.1372
   2   2.0000     -14.777718      -402.1221
   3   2.0000     -14.777702      -402.1217
   4   2.0000     -14.774878      -402.0449
   5   2.0000     -14.774843      -402.0439
   6   2.0000     -14.774123      -402.0243
   7   2.0000     -14.774107      -402.0239
   8   2.0000     -10.611271      -288.7474
   9   2.0000     -10.611204      -288.7455
  10   2.0000     -10.610524      -288.7270
  11   2.0000     -10.610500      -288.7264
  12   2.0000     -10.605049      -288.5781
  13   2.0000     -10.604996      -288.5766
  14   2.0000     -10.604711      -288.5689
  15   2.0000     -10.604647      -288.5671
  16   2.0000     -10.603795      -288.5439
  17   2.0000     -10.603752      -288.5428
  18   2.0000     -10.603172      -288.5270
  19   2.0000     -10.603143      -288.5262
  20   2.0000     -10.601510      -288.4818
  21   2.0000     -10.601464      -288.4805
  22   2.0000     -10.599674      -288.4318
  23   2.0000     -10.599656      -288.4313
  24   2.0000     -10.589363      -288.1512
  25   2.0000     -10.589298      -288.1494
  26   2.0000     -10.588499      -288.1277
  27   2.0000     -10.588465      -288.1268
  28   2.0000     -10.573330      -287.7149
  29   2.0000     -10.573256      -287.7129
  30   2.0000     -10.572339      -287.6880
  31   2.0000     -10.572318      -287.6874
  32   2.0000     -10.570906      -287.6490
  33   2.0000     -10.570828      -287.6468
  34   2.0000     -10.569894      -287.6214
  35   2.0000     -10.569869      -287.6208
  36   2.0000     -10.565706      -287.5075
  37   2.0000     -10.565631      -287.5054
  38   2.0000     -10.564542      -287.4758
  39   2.0000     -10.564525      -287.4753
  40   2.0000     -10.562672      -287.4249
  41   2.0000     -10.562599      -287.4229
  42   2.0000     -10.561454      -287.3918
  43   2.0000     -10.561434      -287.3912
  44   2.0000     -10.559586      -287.3409
  45   2.0000     -10.559529      -287.3394
  46   2.0000     -10.558030      -287.2986
  47   2.0000     -10.558007      -287.2980
  48   2.0000     -10.548357      -287.0354
  49   2.0000     -10.548299      -287.0338
  50   2.0000     -10.548063      -287.0274
  51   2.0000     -10.548003      -287.0258
  52   2.0000     -10.543790      -286.9111
  53   2.0000     -10.543716      -286.9091
  54   2.0000     -10.543392      -286.9003
  55   2.0000     -10.543362      -286.8995
  56   2.0000     -10.540202      -286.8135
  57   2.0000     -10.540126      -286.8114
  58   2.0000     -10.539699      -286.7998
  59   2.0000     -10.539659      -286.7987
  60   2.0000     -10.537898      -286.7508
  61   2.0000     -10.537832      -286.7490
  62   2.0000     -10.537412      -286.7376
  63   2.0000     -10.537392      -286.7370
  64   2.0000     -10.532310      -286.5987
  65   2.0000     -10.532236      -286.5967
  66   2.0000     -10.532005      -286.5904
  67   2.0000     -10.531959      -286.5892
  68   2.0000     -10.525925      -286.4250
  69   2.0000     -10.525855      -286.4231
  70   2.0000     -10.525395      -286.4106
  71   2.0000     -10.525334      -286.4089
  72   2.0000     -10.523988      -286.3723
  73   2.0000     -10.523930      -286.3707
  74   2.0000     -10.523689      -286.3641
  75   2.0000     -10.523641      -286.3628
  76   2.0000     -10.515179      -286.1326
  77   2.0000     -10.515130      -286.1312
  78   2.0000     -10.514720      -286.1201
  79   2.0000     -10.514653      -286.1183
  80   2.0000      -3.875114      -105.4472
  81   2.0000      -3.875100      -105.4468
  82   2.0000      -2.552645       -69.4610
  83   2.0000      -2.552629       -69.4606
  84   2.0000      -2.552259       -69.4505
  85   2.0000      -2.552248       -69.4502
  86   2.0000      -2.515658       -68.4545
  87   2.0000      -2.515649       -68.4543
  88   2.0000      -1.330473       -36.2040
  89   2.0000      -1.330439       -36.2031
  90   2.0000      -1.323433       -36.0124
  91   2.0000      -1.323412       -36.0119
  92   2.0000      -1.321586       -35.9622
  93   2.0000      -1.321557       -35.9614
  94   2.0000      -1.319419       -35.9032
  95   2.0000      -1.319409       -35.9029
  96   2.0000      -1.188758       -32.3478
  97   2.0000      -1.188621       -32.3440
  98   2.0000      -1.188095       -32.3297
  99   2.0000      -1.188022       -32.3277
 100   2.0000      -1.167313       -31.7642
 101   2.0000      -1.166491       -31.7418
 102   2.0000      -1.165374       -31.7114
 103   2.0000      -1.165171       -31.7059
 104   2.0000      -1.152141       -31.3514
 105   2.0000      -1.151185       -31.3253
 106   2.0000      -1.150506       -31.3068
 107   2.0000      -1.150186       -31.2982
 108   2.0000      -1.127772       -30.6882
 109   2.0000      -1.127149       -30.6713
 110   2.0000      -1.125801       -30.6346
 111   2.0000      -1.125384       -30.6233
 112   2.0000      -1.121759       -30.5246
 113   2.0000      -1.121430       -30.5157
 114   2.0000      -1.120291       -30.4847
 115   2.0000      -1.119678       -30.4680
 116   2.0000      -1.090533       -29.6749
 117   2.0000      -1.090023       -29.6610
 118   2.0000      -1.089910       -29.6580
 119   2.0000      -1.089428       -29.6448
 120   2.0000      -1.057767       -28.7833
 121   2.0000      -1.057706       -28.7816
 122   2.0000      -1.056774       -28.7563
 123   2.0000      -1.056724       -28.7549
 124   2.0000      -1.045921       -28.4609
 125   2.0000      -1.045429       -28.4476
 126   2.0000      -1.044816       -28.4309
 127   2.0000      -1.044305       -28.4170
 128   2.0000      -0.995973       -27.1018
 129   2.0000      -0.995338       -27.0845
 130   2.0000      -0.994362       -27.0580
 131   2.0000      -0.992400       -27.0046
 132   2.0000      -0.983681       -26.7673
 133   2.0000      -0.983301       -26.7570
 134   2.0000      -0.982222       -26.7276
 135   2.0000      -0.980537       -26.6818
 136   2.0000      -0.978173       -26.6174
 137   2.0000      -0.977170       -26.5901
 138   2.0000      -0.975812       -26.5532
 139   2.0000      -0.974804       -26.5258
 140   2.0000      -0.973096       -26.4793
 141   2.0000      -0.972253       -26.4564
 142   2.0000      -0.971415       -26.4335
 143   2.0000      -0.971012       -26.4226
 144   2.0000      -0.929276       -25.2869
 145   2.0000      -0.927991       -25.2519
 146   2.0000      -0.927247       -25.2317
 147   2.0000      -0.926349       -25.2072
 148   2.0000      -0.915008       -24.8986
 149   2.0000      -0.914353       -24.8808
 150   2.0000      -0.913297       -24.8521
 151   2.0000      -0.912993       -24.8438
 152   2.0000      -0.902033       -24.5456
 153   2.0000      -0.895540       -24.3689
 154   2.0000      -0.894636       -24.3443
 155   2.0000      -0.889945       -24.2166
 156   2.0000      -0.882876       -24.0243
 157   2.0000      -0.879314       -23.9273
 158   2.0000      -0.876956       -23.8632
 159   2.0000      -0.876226       -23.8433
 160   2.0000      -0.850924       -23.1548
 161   2.0000      -0.849149       -23.1065
 162   2.0000      -0.848244       -23.0819
 163   2.0000      -0.847285       -23.0558
 164   2.0000      -0.841093       -22.8873
 165   2.0000      -0.839533       -22.8449
 166   2.0000      -0.839134       -22.8340
 167   2.0000      -0.838606       -22.8196
 168   2.0000      -0.837002       -22.7760
 169   2.0000      -0.836868       -22.7723
 170   2.0000      -0.835744       -22.7417
 171   2.0000      -0.835524       -22.7358
 172   2.0000      -0.827755       -22.5243
 173   2.0000      -0.825996       -22.4765
 174   2.0000      -0.825022       -22.4500
 175   2.0000      -0.823142       -22.3988
 176   2.0000      -0.806139       -21.9362
 177   2.0000      -0.806120       -21.9356
 178   2.0000      -0.800799       -21.7909
 179   2.0000      -0.799796       -21.7636
 180   2.0000      -0.799067       -21.7437
 181   2.0000      -0.797576       -21.7032
 182   2.0000      -0.786232       -21.3945
 183   2.0000      -0.785407       -21.3720
 184   2.0000      -0.784534       -21.3482
 185   2.0000      -0.783768       -21.3274
 186   2.0000      -0.781827       -21.2746
 187   2.0000      -0.781292       -21.2600
 188   2.0000      -0.778531       -21.1849
 189   2.0000      -0.776734       -21.1360
 190   2.0000      -0.776644       -21.1336
 191   2.0000      -0.775846       -21.1118
 192   2.0000      -0.775392       -21.0995
 193   2.0000      -0.775018       -21.0893
 194   2.0000      -0.773511       -21.0483
 195   2.0000      -0.773081       -21.0366
 196   2.0000      -0.772341       -21.0165
 197   2.0000      -0.771544       -20.9948
 198   2.0000      -0.767556       -20.8863
 199   2.0000      -0.766823       -20.8663
 200   2.0000      -0.766186       -20.8490
 201   2.0000      -0.765533       -20.8312
 202   2.0000      -0.758203       -20.6318
 203   2.0000      -0.757484       -20.6122
 204   2.0000      -0.754786       -20.5388
 205   2.0000      -0.754147       -20.5214
 206   2.0000      -0.750078       -20.4107
 207   2.0000      -0.749299       -20.3895
 208   2.0000      -0.745665       -20.2906
 209   2.0000      -0.745398       -20.2833
 210   2.0000      -0.745083       -20.2747
 211   2.0000      -0.744941       -20.2709
 212   2.0000      -0.728498       -19.8234
 213   2.0000      -0.728401       -19.8208
 214   2.0000      -0.727788       -19.8041
 215   2.0000      -0.727695       -19.8016
 216   2.0000      -0.718305       -19.5461
 217   2.0000      -0.717629       -19.5277
 218   2.0000      -0.715144       -19.4601
 219   2.0000      -0.715046       -19.4574
 220   2.0000      -0.705464       -19.1967
 221   2.0000      -0.705355       -19.1937
 222   2.0000      -0.704179       -19.1617
 223   2.0000      -0.703921       -19.1547
 224   2.0000      -0.701841       -19.0981
 225   2.0000      -0.700655       -19.0658
 226   2.0000      -0.700596       -19.0642
 227   2.0000      -0.698699       -19.0126
 228   2.0000      -0.698267       -19.0008
 229   2.0000      -0.693991       -18.8845
 230   2.0000      -0.693725       -18.8772
 231   2.0000      -0.692218       -18.8362
 232   2.0000      -0.690167       -18.7804
 233   2.0000      -0.679672       -18.4948
 234   2.0000      -0.667358       -18.1597
 235   2.0000      -0.665702       -18.1147
 236   2.0000      -0.665130       -18.0991
 237   2.0000      -0.664428       -18.0800
 238   2.0000      -0.659280       -17.9399
 239   2.0000      -0.659212       -17.9381
 240   2.0000      -0.659199       -17.9377
 241   2.0000      -0.658663       -17.9231
 242   2.0000      -0.657056       -17.8794
 243   2.0000      -0.656640       -17.8681
 244   2.0000      -0.655659       -17.8414
 245   2.0000      -0.650783       -17.7087
 246   2.0000      -0.649363       -17.6701
 247   2.0000      -0.648620       -17.6498
 248   2.0000      -0.647334       -17.6148
 249   2.0000      -0.645172       -17.5560
 250   2.0000      -0.644444       -17.5362
 251   2.0000      -0.643045       -17.4981
 252   2.0000      -0.641173       -17.4472
 253   2.0000      -0.640918       -17.4403
 254   2.0000      -0.629488       -17.1292
 255   2.0000      -0.629183       -17.1209
 256   2.0000      -0.628218       -17.0947
 257   2.0000      -0.621342       -16.9076
 258   2.0000      -0.618742       -16.8368
 259   2.0000      -0.616410       -16.7734
 260   2.0000      -0.615951       -16.7609
 261   2.0000      -0.612028       -16.6541
 262   2.0000      -0.610754       -16.6195
 263   2.0000      -0.608311       -16.5530
 264   2.0000      -0.606651       -16.5078
 265   2.0000      -0.606307       -16.4985
 266   2.0000      -0.597682       -16.2637
 267   2.0000      -0.596053       -16.2194
 268   2.0000      -0.594525       -16.1778
 269   2.0000      -0.594115       -16.1667
 270   2.0000      -0.592634       -16.1264
 271   2.0000      -0.590736       -16.0747
 272   2.0000      -0.579817       -15.7776
 273   2.0000      -0.579552       -15.7704
 274   2.0000      -0.576642       -15.6912
 275   2.0000      -0.576286       -15.6815
 276   2.0000      -0.550309       -14.9747
 277   2.0000      -0.550152       -14.9704
 278   2.0000      -0.549033       -14.9400
 279   2.0000      -0.548786       -14.9332
 280   2.0000      -0.530402       -14.4330
 281   2.0000      -0.529579       -14.4106
 282   2.0000      -0.528722       -14.3873
 283   2.0000      -0.527881       -14.3644
 284   0.0000      -0.369204       -10.0465
 285   0.0000      -0.368394       -10.0245
 286   0.0000      -0.365580        -9.9479
 287   0.0000      -0.364586        -9.9209
 288   0.0000      -0.360209        -9.8018

MULLIKEN ATOMIC CHARGES
-----------------------
   0 Pd:    0.387974
   1 Pd:    0.388238
   2 C :    0.032074
   3 C :   -0.019875
   4 C :   -0.104732
   5 C :    0.117801
   6 C :   -0.019444
   7 C :    0.128894
   8 N :   -0.302139
   9 C :    0.162287
  10 H :    0.084197
  11 H :    0.092547
  12 H :    0.089894
  13 H :    0.050740
  14 C :   -0.063085
  15 C :    0.051341
  16 C :    0.011941
  17 C :   -0.007975
  18 C :    0.044039
  19 C :   -0.014102
  20 H :    0.054944
  21 H :    0.072940
  22 H :    0.047985
  23 H :   -0.004997
  24 C :   -0.019400
  25 C :    0.065507
  26 C :   -0.014256
  27 C :    0.131758
  28 N :   -0.303273
  29 C :    0.131388
  30 H :    0.080865
  31 H :    0.088765
  32 H :    0.090583
  33 H :    0.048192
  34 C :    0.033841
  35 C :   -0.018753
  36 C :   -0.104460
  37 C :    0.118960
  38 C :   -0.019926
  39 C :    0.131176
  40 N :   -0.301880
  41 C :    0.156680
  42 H :    0.083973
  43 H :    0.092784
  44 H :    0.096638
  45 H :    0.048891
  46 C :   -0.063066
  47 C :    0.051344
  48 C :    0.011925
  49 C :   -0.006924
  50 C :    0.037055
  51 C :   -0.008959
  52 H :    0.055391
  53 H :    0.072999
  54 H :    0.047795
  55 H :   -0.006146
  56 C :   -0.024337
  57 C :    0.067348
  58 C :   -0.013160
  59 C :    0.126222
  60 N :   -0.303550
  61 C :    0.134119
  62 H :    0.081536
  63 H :    0.089001
  64 H :    0.085663
  65 H :    0.054332
  66 C :    0.032036
  67 C :   -0.019715
  68 C :   -0.104914
  69 C :    0.117892
  70 C :   -0.019469
  71 C :    0.128832
  72 N :   -0.302206
  73 C :    0.162154
  74 H :    0.084224
  75 H :    0.092570
  76 H :    0.090083
  77 H :    0.050858
  78 C :   -0.063313
  79 C :    0.051418
  80 C :    0.011903
  81 C :   -0.007938
  82 C :    0.043873
  83 C :   -0.014181
  84 H :    0.054866
  85 H :    0.072936
  86 H :    0.047964
  87 H :   -0.004765
  88 C :   -0.019384
  89 C :    0.065568
  90 C :   -0.014228
  91 C :    0.131729
  92 N :   -0.303211
  93 C :    0.131392
  94 H :    0.080865
  95 H :    0.088786
  96 H :    0.090494
  97 H :    0.047997
  98 C :    0.033944
  99 C :   -0.018749
 100 C :   -0.104608
 101 C :    0.118981
 102 C :   -0.019977
 103 C :    0.131089
 104 N :   -0.301940
 105 C :    0.156877
 106 H :    0.084061
 107 H :    0.092817
 108 H :    0.096751
 109 H :    0.048972
 110 C :   -0.063165
 111 C :    0.051275
 112 C :    0.011854
 113 C :   -0.006997
 114 C :    0.037069
 115 C :   -0.009020
 116 H :    0.055384
 117 H :    0.073007
 118 H :    0.047833
 119 H :   -0.005958
 120 C :   -0.024360
 121 C :    0.067406
 122 C :   -0.013131
 123 C :    0.126267
 124 N :   -0.303425
 125 C :    0.134393
 126 H :    0.081536
 127 H :    0.088973
 128 H :    0.085468
 129 H :    0.054127
Sum of atomic charges:    4.0000000

LOEWDIN ATOMIC CHARGES
----------------------
   0 Pd:   -0.348415
   1 Pd:   -0.348387
   2 C :    0.031761
   3 C :   -0.053950
   4 C :   -0.031991
   5 C :    0.075477
   6 C :    0.010247
   7 C :    0.068592
   8 N :    0.070883
   9 C :    0.075655
  10 H :    0.069033
  11 H :    0.070655
  12 H :    0.058898
  13 H :    0.050846
  14 C :   -0.051072
  15 C :    0.036696
  16 C :    0.013436
  17 C :    0.015147
  18 C :   -0.035321
  19 C :    0.000307
  20 H :    0.055828
  21 H :    0.060084
  22 H :    0.047512
  23 H :    0.028876
  24 C :   -0.006114
  25 C :    0.060549
  26 C :    0.010114
  27 C :    0.069252
  28 N :    0.070524
  29 C :    0.065480
  30 H :    0.062565
  31 H :    0.069419
  32 H :    0.058580
  33 H :    0.045406
  34 C :    0.030574
  35 C :   -0.051939
  36 C :   -0.031865
  37 C :    0.074926
  38 C :    0.010773
  39 C :    0.071616
  40 N :    0.071530
  41 C :    0.073354
  42 H :    0.068939
  43 H :    0.070852
  44 H :    0.060745
  45 H :    0.050394
  46 C :   -0.050637
  47 C :    0.037182
  48 C :    0.013204
  49 C :    0.014148
  50 C :   -0.036163
  51 C :    0.000456
  52 H :    0.056024
  53 H :    0.060060
  54 H :    0.047405
  55 H :    0.029029
  56 C :   -0.006082
  57 C :    0.060917
  58 C :    0.010036
  59 C :    0.065722
  60 N :    0.069564
  61 C :    0.066894
  62 H :    0.062968
  63 H :    0.069425
  64 H :    0.057661
  65 H :    0.047283
  66 C :    0.031758
  67 C :   -0.053968
  68 C :   -0.032022
  69 C :    0.075492
  70 C :    0.010234
  71 C :    0.068617
  72 N :    0.070850
  73 C :    0.075652
  74 H :    0.069043
  75 H :    0.070664
  76 H :    0.058952
  77 H :    0.050891
  78 C :   -0.051075
  79 C :    0.036610
  80 C :    0.013389
  81 C :    0.015106
  82 C :   -0.035335
  83 C :    0.000284
  84 H :    0.055791
  85 H :    0.060079
  86 H :    0.047502
  87 H :    0.028945
  88 C :   -0.006115
  89 C :    0.060554
  90 C :    0.010147
  91 C :    0.069241
  92 N :    0.070541
  93 C :    0.065464
  94 H :    0.062576
  95 H :    0.069430
  96 H :    0.058559
  97 H :    0.045364
  98 C :    0.030616
  99 C :   -0.051961
 100 C :   -0.031866
 101 C :    0.074924
 102 C :    0.010792
 103 C :    0.071591
 104 N :    0.071520
 105 C :    0.073411
 106 H :    0.068979
 107 H :    0.070860
 108 H :    0.060786
 109 H :    0.050426
 110 C :   -0.050655
 111 C :    0.037121
 112 C :    0.013180
 113 C :    0.014066
 114 C :   -0.036161
 115 C :    0.000454
 116 H :    0.056020
 117 H :    0.060064
 118 H :    0.047432
 119 H :    0.029089
 120 C :   -0.006071
 121 C :    0.060952
 122 C :    0.010101
 123 C :    0.065723
 124 N :    0.069629
 125 C :    0.066958
 126 H :    0.062973
 127 H :    0.069405
 128 H :    0.057609
 129 H :    0.047242

  Mayer bond orders larger than 0.100000
B(  0-Pd, 28-N ) :   0.5513 B(  0-Pd, 60-N ) :   0.5470 B(  0-Pd, 72-N ) :   0.5418
B(  0-Pd,104-N ) :   0.5461 B(  1-Pd,  8-N ) :   0.5419 B(  1-Pd, 40-N ) :   0.5459
B(  1-Pd, 92-N ) :   0.5512 B(  1-Pd,124-N ) :   0.5471 B(  2-C ,  3-C ) :   2.6085
B(  2-C , 14-C ) :   1.0057 B(  3-C ,  4-C ) :   1.0131 B(  4-C ,  5-C ) :   1.3406
B(  4-C ,  9-C ) :   1.3730 B(  5-C ,  6-C ) :   1.4025 B(  5-C , 10-H ) :   0.9863
B(  6-C ,  7-C ) :   1.4211 B(  6-C , 11-H ) :   0.9715 B(  7-C ,  8-N ) :   1.3121
B(  7-C , 12-H ) :   0.9530 B(  8-N ,  9-C ) :   1.3297 B(  9-C , 13-H ) :   0.9629
B( 14-C , 15-C ) :   1.3282 B( 14-C , 19-C ) :   1.3444 B( 15-C , 16-C ) :   1.3862
B( 15-C , 20-H ) :   0.9959 B( 16-C , 17-C ) :   1.3972 B( 16-C , 21-H ) :   0.9818
B( 17-C , 18-C ) :   1.3578 B( 17-C , 22-H ) :   0.9879 B( 18-C , 19-C ) :   1.3626
B( 18-C , 24-C ) :   1.0093 B( 19-C , 23-H ) :   0.9844 B( 24-C , 25-C ) :   1.3713
B( 24-C , 29-C ) :   1.4061 B( 25-C , 26-C ) :   1.4069 B( 25-C , 30-H ) :   0.9792
B( 26-C , 27-C ) :   1.4251 B( 26-C , 31-H ) :   0.9713 B( 27-C , 28-N ) :   1.3180
B( 27-C , 32-H ) :   0.9493 B( 28-N , 29-C ) :   1.3213 B( 29-C , 33-H ) :   0.9522
B( 34-C , 35-C ) :   2.6054 B( 34-C , 46-C ) :   1.0073 B( 35-C , 36-C ) :   1.0164
B( 36-C , 37-C ) :   1.3364 B( 36-C , 41-C ) :   1.3770 B( 37-C , 38-C ) :   1.4039
B( 37-C , 42-H ) :   0.9863 B( 38-C , 39-C ) :   1.4187 B( 38-C , 43-H ) :   0.9714
B( 39-C , 40-N ) :   1.3149 B( 39-C , 44-H ) :   0.9510 B( 40-N , 41-C ) :   1.3260
B( 41-C , 45-H ) :   0.9616 B( 46-C , 47-C ) :   1.3286 B( 46-C , 51-C ) :   1.3410
B( 47-C , 48-C ) :   1.3861 B( 47-C , 52-H ) :   0.9959 B( 48-C , 49-C ) :   1.3956
B( 48-C , 53-H ) :   0.9822 B( 49-C , 50-C ) :   1.3569 B( 49-C , 54-H ) :   0.9887
B( 50-C , 51-C ) :   1.3664 B( 50-C , 56-C ) :   1.0050 B( 51-C , 55-H ) :   0.9862
B( 56-C , 57-C ) :   1.3745 B( 56-C , 61-C ) :   1.4034 B( 57-C , 58-C ) :   1.4048
B( 57-C , 62-H ) :   0.9798 B( 58-C , 59-C ) :   1.4265 B( 58-C , 63-H ) :   0.9717
B( 59-C , 60-N ) :   1.3140 B( 59-C , 64-H ) :   0.9519 B( 60-N , 61-C ) :   1.3251
B( 61-C , 65-H ) :   0.9549 B( 66-C , 67-C ) :   2.6085 B( 66-C , 78-C ) :   1.0057
B( 67-C , 68-C ) :   1.0129 B( 68-C , 69-C ) :   1.3407 B( 68-C , 73-C ) :   1.3732
B( 69-C , 70-C ) :   1.4023 B( 69-C , 74-H ) :   0.9863 B( 70-C , 71-C ) :   1.4212
B( 70-C , 75-H ) :   0.9715 B( 71-C , 72-N ) :   1.3121 B( 71-C , 76-H ) :   0.9529
B( 72-N , 73-C ) :   1.3298 B( 73-C , 77-H ) :   0.9628 B( 78-C , 79-C ) :   1.3282
B( 78-C , 83-C ) :   1.3445 B( 79-C , 80-C ) :   1.3862 B( 79-C , 84-H ) :   0.9959
B( 80-C , 81-C ) :   1.3971 B( 80-C , 85-H ) :   0.9818 B( 81-C , 82-C ) :   1.3579
B( 81-C , 86-H ) :   0.9879 B( 82-C , 83-C ) :   1.3625 B( 82-C , 88-C ) :   1.0092
B( 83-C , 87-H ) :   0.9845 B( 88-C , 89-C ) :   1.3714 B( 88-C , 93-C ) :   1.4061
B( 89-C , 90-C ) :   1.4069 B( 89-C , 94-H ) :   0.9792 B( 90-C , 91-C ) :   1.4251
B( 90-C , 95-H ) :   0.9713 B( 91-C , 92-N ) :   1.3180 B( 91-C , 96-H ) :   0.9493
B( 92-N , 93-C ) :   1.3213 B( 93-C , 97-H ) :   0.9522 B( 98-C , 99-C ) :   2.6054
B( 98-C ,110-C ) :   1.0073 B( 99-C ,100-C ) :   1.0164 B(100-C ,101-C ) :   1.3365
B(100-C ,105-C ) :   1.3769 B(101-C ,102-C ) :   1.4037 B(101-C ,106-H ) :   0.9863
B(102-C ,103-C ) :   1.4188 B(102-C ,107-H ) :   0.9714 B(103-C ,104-N ) :   1.3148
B(103-C ,108-H ) :   0.9510 B(104-N ,105-C ) :   1.3260 B(105-C ,109-H ) :   0.9616
B(110-C ,111-C ) :   1.3288 B(110-C ,115-C ) :   1.3409 B(111-C ,112-C ) :   1.3860
B(111-C ,116-H ) :   0.9959 B(112-C ,113-C ) :   1.3957 B(112-C ,117-H ) :   0.9821
B(113-C ,114-C ) :   1.3569 B(113-C ,118-H ) :   0.9887 B(114-C ,115-C ) :   1.3664
B(114-C ,120-C ) :   1.0049 B(115-C ,119-H ) :   0.9862 B(120-C ,121-C ) :   1.3745
B(120-C ,125-C ) :   1.4035 B(121-C ,122-C ) :   1.4048 B(121-C ,126-H ) :   0.9798
B(122-C ,123-C ) :   1.4265 B(122-C ,127-H ) :   0.9717 B(123-C ,124-N ) :   1.3141
B(123-C ,128-H ) :   0.9520 B(124-N ,125-C ) :   1.3250 B(125-C ,129-H ) :   0.9549

Dispersion correction           -0.206193931
FINAL SINGLE POINT ENERGY     -3459.291100556383

DIPOLE MOMENT
-------------
                                X             Y             Z
Electronic contribution:      0.33370      -0.04887      -0.54330
Nuclear contribution   :     -0.33594       0.04870       0.54791
                        -----------------------------------------
Total Dipole Moment    :     -0.00224      -0.00016       0.00460
                        -----------------------------------------
Magnitude (a.u.)       :      0.00512
Magnitude (Debye)      :      0.01302

Rotational constants in cm-1:     0.000836     0.000525     0.000522
Rotational constants in MHz :    25.069267    15.747280    15.654203

                             ****ORCA TERMINATED NORMALLY****
TOTAL RUN TIME: 0 days 0 hours 10 minutes 0 seconds 346 msec
