                         Program Version 4.2.1 -  RELEASE  -
|  1> ! DFT SP B97-3c TightSCF printbasis  Grid6 NOFINALGRID SlowConv
|  2>
|  3> %base "_s_3d1_d_B97-3c"
|  4> %maxcore 3000
|  5> %scf
|  6>    MaxIter 2000
|  7> end
|  8> %pal
|  9>    nprocs 32
| 10> end
| 11>
| 12> * xyzfile 4 1 s_3d1_d.xyz
| 13>
| 14>                          ****END OF INPUT****

CARTESIAN COORDINATES (ANGSTROEM)
---------------------------------
  Pd    -0.139200    4.605000    0.073700
  Pd     0.193500   -5.056700   -0.126300
  C      4.946400   -1.013800   -0.280700
  C      4.546600   -2.146300   -0.413800
  C      4.036800   -3.453900   -0.541800
  C      4.854600   -4.548400   -0.854900
  C      4.283400   -5.804400   -0.957600
  C      2.920700   -5.952600   -0.744700
  N      2.147300   -4.909000   -0.440400
  C      2.674900   -3.688200   -0.341100
  H      5.912000   -4.404100   -1.013800
  H      4.886700   -6.664200   -1.200200
  H      2.430400   -6.918200   -0.821100
  H      1.995100   -2.873600   -0.086200
  C      5.390600    0.309700   -0.073600
  C      6.677000    0.549100    0.415700
  C      7.078200    1.848100    0.666400
  C      6.217800    2.907400    0.433900
  C      4.933800    2.682600   -0.069300
  C      4.526400    1.376300   -0.322900
  H      7.345500   -0.276800    0.603100
  H      8.068100    2.038800    1.051900
  H      6.541100    3.909100    0.669700
  H      3.555900    1.172300   -0.746500
  C      4.028500    3.820100   -0.297800
  C      4.510300    5.064500   -0.717200
  C      3.635400    6.128200   -0.861000
  C      2.290300    5.932900   -0.600800
  N      1.821600    4.737000   -0.232900
  C      2.655900    3.709000   -0.078800
  H      5.558100    5.194100   -0.938000
  H      3.992800    7.096300   -1.172400
  H      1.566200    6.741100   -0.687600
  H      2.208500    2.776000    0.252800
  C      0.239500    0.642200    4.882000
  C      0.306200    1.774900    4.466600
  C      0.358600    3.080700    3.939200
  C      0.607600    4.202400    4.742200
  C      0.638400    5.454400    4.154200
  C      0.418900    5.571700    2.789500
  N      0.175800    4.502000    2.030200
  C      0.146000    3.284800    2.574200
  H      0.773700    4.081700    5.801400
  H      0.830500    6.334800    4.745800
  H      0.440400    6.533500    2.286100
  H     -0.061400    2.447900    1.905400
  C      0.110300   -0.684800    5.344900
  C     -0.359300   -0.934200    6.636800
  C     -0.533300   -2.239700    7.056700
  C     -0.243600   -3.295700    6.209500
  C      0.240700   -3.060100    4.920300
  C      0.417200   -1.747100    4.494100
  H     -0.591200   -0.111200    7.294900
  H     -0.903200   -2.438600    8.050900
  H     -0.420300   -4.304700    6.547600
  H      0.824400   -1.532500    3.518900
  C      0.530600   -4.195000    4.029400
  C      1.022300   -5.406600    4.526300
  C      1.223400   -6.472400    3.665200
  C      0.947700   -6.310800    2.318700
  N      0.510700   -5.144400    1.835400
  C      0.300800   -4.115500    2.656400
  H      1.254100   -5.508800    5.574700
  H      1.590800   -7.416200    4.034400
  H      1.078000   -7.122700    1.605400
  H     -0.085400   -3.209300    2.197800
  C     -4.825800   -1.360200    0.190200
  C     -4.348900   -2.467100    0.276600
  C     -3.750200   -3.740800    0.350800
  C     -4.490300   -4.901000    0.617300
  C     -3.833900   -6.117900    0.668200
  C     -2.464600   -6.163100    0.450700
  N     -1.765400   -5.057000    0.190900
  C     -2.375700   -3.872400    0.142000
  H     -5.554700   -4.836400    0.781000
  H     -4.376300   -7.026500    0.874200
  H     -1.909000   -7.095100    0.487300
  H     -1.754000   -3.003000   -0.078100
  C     -5.360400   -0.063000    0.037600
  C     -6.661200    0.107300   -0.442300
  C     -7.151300    1.384800   -0.639700
  C     -6.365200    2.490300   -0.363100
  C     -5.067900    2.333800    0.131400
  C     -4.571100    1.049300    0.331300
  H     -7.271700   -0.754200   -0.664100
  H     -8.152800    1.522700   -1.017800
  H     -6.757200    3.476200   -0.557800
  H     -3.587900    0.895300    0.746900
  C     -4.242500    3.520500    0.407500
  C     -4.808000    4.710500    0.877500
  C     -4.008000    5.824900    1.066100
  C     -2.653100    5.733500    0.799500
  N     -2.104000    4.589000    0.383000
  C     -2.865900    3.513300    0.185600
  H     -5.861800    4.758400    1.102400
  H     -4.430600    6.752500    1.416900
  H     -1.986200    6.585400    0.920500
  H     -2.356000    2.627800   -0.183900
  C     -0.250400    0.827400   -4.894800
  C     -0.394300    1.934600   -4.432800
  C     -0.535700    3.210900   -3.852100
  C     -0.862100    4.344900   -4.608600
  C     -0.978300    5.566500   -3.969500
  C     -0.765800    5.642300   -2.600700
  N     -0.448900    4.561400   -1.885800
  C     -0.336100    3.372600   -2.479400
  H     -1.020600    4.256900   -5.672100
  H     -1.231100    6.455300   -4.524700
  H     -0.852800    6.578700   -2.058200
  H     -0.071000    2.525000   -1.845400
  C     -0.030700   -0.467300   -5.411900
  C      0.453700   -0.630200   -6.712000
  C      0.716400   -1.902200   -7.185300
  C      0.500700   -3.009700   -6.383100
  C      0.002700   -2.861500   -5.086100
  C     -0.263100   -1.582500   -4.606300
  H      0.628000    0.233300   -7.335100
  H      1.098100   -2.034000   -8.186200
  H      0.745900   -3.989400   -6.762200
  H     -0.683200   -1.436800   -3.623800
  C     -0.207500   -4.049400   -4.243300
  C     -0.615200   -5.270500   -4.790600
  C     -0.741500   -6.382200   -3.974600
  C     -0.475900   -6.257800   -2.622100
  N     -0.119600   -5.085100   -2.090400
  C      0.018000   -4.011200   -2.867900
  H     -0.840600   -5.345000   -5.842800
  H     -1.043500   -7.333000   -4.383000
  H     -0.549100   -7.105500   -1.943100
  H      0.341300   -3.100200   -2.371600

 Total Charge           Charge          ....    4
 Multiplicity           Mult            ....    1
 Number of Electrons    NEL             ....  568
 Basis Dimension        Dim             .... 1730

ORBITAL ENERGIES
----------------

  NO   OCC          E(Eh)            E(eV)
   0   2.0000     -14.365006      -390.8917
   1   2.0000     -14.364999      -390.8915
   2   2.0000     -14.364999      -390.8915
   3   2.0000     -14.364985      -390.8911
   4   2.0000     -14.362463      -390.8225
   5   2.0000     -14.362461      -390.8224
   6   2.0000     -14.362461      -390.8224
   7   2.0000     -14.362443      -390.8220
   8   2.0000     -10.260752      -279.2093
   9   2.0000     -10.260749      -279.2092
  10   2.0000     -10.260746      -279.2091
  11   2.0000     -10.260730      -279.2087
  12   2.0000     -10.255452      -279.0650
  13   2.0000     -10.255449      -279.0650
  14   2.0000     -10.255439      -279.0647
  15   2.0000     -10.255427      -279.0644
  16   2.0000     -10.253559      -279.0135
  17   2.0000     -10.253554      -279.0134
  18   2.0000     -10.253552      -279.0133
  19   2.0000     -10.253550      -279.0133
  20   2.0000     -10.251644      -278.9614
  21   2.0000     -10.251641      -278.9613
  22   2.0000     -10.251630      -278.9610
  23   2.0000     -10.251628      -278.9610
  24   2.0000     -10.242744      -278.7192
  25   2.0000     -10.242738      -278.7191
  26   2.0000     -10.242736      -278.7190
  27   2.0000     -10.242727      -278.7188
  28   2.0000     -10.228462      -278.3306
  29   2.0000     -10.228460      -278.3306
  30   2.0000     -10.228460      -278.3305
  31   2.0000     -10.228455      -278.3304
  32   2.0000     -10.222293      -278.1627
  33   2.0000     -10.222274      -278.1622
  34   2.0000     -10.222271      -278.1621
  35   2.0000     -10.222262      -278.1619
  36   2.0000     -10.217958      -278.0448
  37   2.0000     -10.217948      -278.0445
  38   2.0000     -10.217935      -278.0441
  39   2.0000     -10.217922      -278.0438
  40   2.0000     -10.216082      -277.9937
  41   2.0000     -10.216078      -277.9936
  42   2.0000     -10.216078      -277.9936
  43   2.0000     -10.216057      -277.9931
  44   2.0000     -10.213488      -277.9231
  45   2.0000     -10.213486      -277.9231
  46   2.0000     -10.213470      -277.9227
  47   2.0000     -10.213458      -277.9223
  48   2.0000     -10.205843      -277.7151
  49   2.0000     -10.205839      -277.7150
  50   2.0000     -10.205838      -277.7150
  51   2.0000     -10.205825      -277.7146
  52   2.0000     -10.201200      -277.5888
  53   2.0000     -10.201194      -277.5886
  54   2.0000     -10.201191      -277.5885
  55   2.0000     -10.201186      -277.5884
  56   2.0000     -10.194670      -277.4111
  57   2.0000     -10.194669      -277.4110
  58   2.0000     -10.194663      -277.4109
  59   2.0000     -10.194654      -277.4106
  60   2.0000     -10.193481      -277.3787
  61   2.0000     -10.193471      -277.3785
  62   2.0000     -10.193471      -277.3785
  63   2.0000     -10.193471      -277.3784
  64   2.0000     -10.187757      -277.2230
  65   2.0000     -10.187752      -277.2228
  66   2.0000     -10.187746      -277.2227
  67   2.0000     -10.187736      -277.2224
  68   2.0000     -10.182211      -277.0720
  69   2.0000     -10.182211      -277.0720
  70   2.0000     -10.182208      -277.0720
  71   2.0000     -10.182194      -277.0716
  72   2.0000     -10.180660      -277.0298
  73   2.0000     -10.180647      -277.0295
  74   2.0000     -10.180646      -277.0295
  75   2.0000     -10.180640      -277.0293
  76   2.0000     -10.172451      -276.8065
  77   2.0000     -10.172450      -276.8064
  78   2.0000     -10.172441      -276.8062
  79   2.0000     -10.172438      -276.8061
  80   2.0000      -3.674068       -99.9765
  81   2.0000      -3.674061       -99.9763
  82   2.0000      -2.404841       -65.4390
  83   2.0000      -2.404824       -65.4386
  84   2.0000      -2.404316       -65.4248
  85   2.0000      -2.404312       -65.4246
  86   2.0000      -2.362366       -64.2832
  87   2.0000      -2.362359       -64.2831
  88   2.0000      -1.228069       -33.4175
  89   2.0000      -1.228054       -33.4171
  90   2.0000      -1.222316       -33.2609
  91   2.0000      -1.222295       -33.2603
  92   2.0000      -1.219802       -33.1925
  93   2.0000      -1.219796       -33.1923
  94   2.0000      -1.219103       -33.1735
  95   2.0000      -1.219101       -33.1734
  96   2.0000      -1.094270       -29.7766
  97   2.0000      -1.094134       -29.7729
  98   2.0000      -1.093908       -29.7667
  99   2.0000      -1.093907       -29.7667
 100   2.0000      -1.074607       -29.2415
 101   2.0000      -1.073972       -29.2243
 102   2.0000      -1.072830       -29.1932
 103   2.0000      -1.072813       -29.1927
 104   2.0000      -1.060781       -28.8653
 105   2.0000      -1.060065       -28.8458
 106   2.0000      -1.059180       -28.8217
 107   2.0000      -1.059177       -28.8217
 108   2.0000      -1.038007       -28.2456
 109   2.0000      -1.037100       -28.2209
 110   2.0000      -1.037083       -28.2205
 111   2.0000      -1.036925       -28.2162
 112   2.0000      -1.033037       -28.1104
 113   2.0000      -1.032638       -28.0995
 114   2.0000      -1.032633       -28.0994
 115   2.0000      -1.031728       -28.0747
 116   2.0000      -1.004519       -27.3343
 117   2.0000      -1.004012       -27.3205
 118   2.0000      -1.004006       -27.3204
 119   2.0000      -1.003585       -27.3089
 120   2.0000      -0.973915       -26.5016
 121   2.0000      -0.973866       -26.5002
 122   2.0000      -0.973862       -26.5001
 123   2.0000      -0.973808       -26.4987
 124   2.0000      -0.963213       -26.2103
 125   2.0000      -0.962937       -26.2028
 126   2.0000      -0.962933       -26.2027
 127   2.0000      -0.962328       -26.1863
 128   2.0000      -0.916776       -24.9468
 129   2.0000      -0.916178       -24.9305
 130   2.0000      -0.916174       -24.9304
 131   2.0000      -0.914606       -24.8877
 132   2.0000      -0.905426       -24.6379
 133   2.0000      -0.905210       -24.6320
 134   2.0000      -0.905204       -24.6319
 135   2.0000      -0.903149       -24.5759
 136   2.0000      -0.899964       -24.4893
 137   2.0000      -0.899699       -24.4821
 138   2.0000      -0.897737       -24.4287
 139   2.0000      -0.896819       -24.4037
 140   2.0000      -0.896775       -24.4025
 141   2.0000      -0.896760       -24.4021
 142   2.0000      -0.894506       -24.3407
 143   2.0000      -0.894496       -24.3405
 144   2.0000      -0.855126       -23.2692
 145   2.0000      -0.854796       -23.2602
 146   2.0000      -0.853501       -23.2249
 147   2.0000      -0.853497       -23.2248
 148   2.0000      -0.841580       -22.9005
 149   2.0000      -0.841228       -22.8910
 150   2.0000      -0.839389       -22.8409
 151   2.0000      -0.839383       -22.8408
 152   2.0000      -0.828219       -22.5370
 153   2.0000      -0.825059       -22.4510
 154   2.0000      -0.814837       -22.1728
 155   2.0000      -0.814826       -22.1725
 156   2.0000      -0.814816       -22.1723
 157   2.0000      -0.810497       -22.0548
 158   2.0000      -0.804177       -21.8828
 159   2.0000      -0.804170       -21.8826
 160   2.0000      -0.781458       -21.2646
 161   2.0000      -0.779416       -21.2090
 162   2.0000      -0.779408       -21.2088
 163   2.0000      -0.777328       -21.1522
 164   2.0000      -0.770817       -20.9750
 165   2.0000      -0.770805       -20.9747
 166   2.0000      -0.770368       -20.9628
 167   2.0000      -0.770078       -20.9549
 168   2.0000      -0.767024       -20.8718
 169   2.0000      -0.767021       -20.8717
 170   2.0000      -0.766230       -20.8502
 171   2.0000      -0.765799       -20.8384
 172   2.0000      -0.761091       -20.7103
 173   2.0000      -0.759083       -20.6557
 174   2.0000      -0.759077       -20.6555
 175   2.0000      -0.757765       -20.6198
 176   2.0000      -0.739492       -20.1226
 177   2.0000      -0.738954       -20.1080
 178   2.0000      -0.734051       -19.9745
 179   2.0000      -0.734012       -19.9735
 180   2.0000      -0.731895       -19.9159
 181   2.0000      -0.730271       -19.8717
 182   2.0000      -0.727777       -19.8038
 183   2.0000      -0.727775       -19.8038
 184   2.0000      -0.717823       -19.5330
 185   2.0000      -0.717455       -19.5230
 186   2.0000      -0.716958       -19.5094
 187   2.0000      -0.716308       -19.4917
 188   2.0000      -0.716302       -19.4916
 189   2.0000      -0.714102       -19.4317
 190   2.0000      -0.712848       -19.3976
 191   2.0000      -0.712126       -19.3779
 192   2.0000      -0.712119       -19.3777
 193   2.0000      -0.709943       -19.3185
 194   2.0000      -0.709217       -19.2988
 195   2.0000      -0.709202       -19.2984
 196   2.0000      -0.706632       -19.2284
 197   2.0000      -0.706593       -19.2274
 198   2.0000      -0.704703       -19.1759
 199   2.0000      -0.704036       -19.1578
 200   2.0000      -0.700502       -19.0616
 201   2.0000      -0.700496       -19.0615
 202   2.0000      -0.694584       -18.9006
 203   2.0000      -0.693285       -18.8652
 204   2.0000      -0.692989       -18.8572
 205   2.0000      -0.692986       -18.8571
 206   2.0000      -0.686033       -18.6679
 207   2.0000      -0.685114       -18.6429
 208   2.0000      -0.683516       -18.5994
 209   2.0000      -0.683503       -18.5991
 210   2.0000      -0.682532       -18.5726
 211   2.0000      -0.682514       -18.5721
 212   2.0000      -0.668999       -18.2044
 213   2.0000      -0.668884       -18.2013
 214   2.0000      -0.668609       -18.1938
 215   2.0000      -0.668608       -18.1937
 216   2.0000      -0.657815       -17.9000
 217   2.0000      -0.657316       -17.8865
 218   2.0000      -0.657027       -17.8786
 219   2.0000      -0.657023       -17.8785
 220   2.0000      -0.646945       -17.6043
 221   2.0000      -0.646498       -17.5921
 222   2.0000      -0.646497       -17.5921
 223   2.0000      -0.646373       -17.5887
 224   2.0000      -0.644926       -17.5493
 225   2.0000      -0.644445       -17.5362
 226   2.0000      -0.640858       -17.4386
 227   2.0000      -0.640672       -17.4336
 228   2.0000      -0.638206       -17.3665
 229   2.0000      -0.635475       -17.2921
 230   2.0000      -0.635470       -17.2920
 231   2.0000      -0.633236       -17.2312
 232   2.0000      -0.628456       -17.1012
 233   2.0000      -0.619087       -16.8462
 234   2.0000      -0.614437       -16.7197
 235   2.0000      -0.614433       -16.7196
 236   2.0000      -0.608232       -16.5508
 237   2.0000      -0.608216       -16.5504
 238   2.0000      -0.604509       -16.4495
 239   2.0000      -0.604496       -16.4492
 240   2.0000      -0.604485       -16.4489
 241   2.0000      -0.604289       -16.4435
 242   2.0000      -0.602272       -16.3886
 243   2.0000      -0.602269       -16.3886
 244   2.0000      -0.601095       -16.3566
 245   2.0000      -0.599788       -16.3211
 246   2.0000      -0.596988       -16.2449
 247   2.0000      -0.592472       -16.1220
 248   2.0000      -0.592447       -16.1213
 249   2.0000      -0.589216       -16.0334
 250   2.0000      -0.585343       -15.9280
 251   2.0000      -0.585321       -15.9274
 252   2.0000      -0.580225       -15.7887
 253   2.0000      -0.575109       -15.6495
 254   2.0000      -0.575092       -15.6490
 255   2.0000      -0.572404       -15.5759
 256   2.0000      -0.571612       -15.5543
 257   2.0000      -0.571600       -15.5540
 258   2.0000      -0.567405       -15.4399
 259   2.0000      -0.565380       -15.3848
 260   2.0000      -0.565359       -15.3842
 261   2.0000      -0.563157       -15.3243
 262   2.0000      -0.563103       -15.3228
 263   2.0000      -0.563095       -15.3226
 264   2.0000      -0.555548       -15.1172
 265   2.0000      -0.553949       -15.0737
 266   2.0000      -0.548002       -14.9119
 267   2.0000      -0.547968       -14.9110
 268   2.0000      -0.547844       -14.9076
 269   2.0000      -0.547653       -14.9024
 270   2.0000      -0.535974       -14.5846
 271   2.0000      -0.535452       -14.5704
 272   2.0000      -0.531182       -14.4542
 273   2.0000      -0.531158       -14.4535
 274   2.0000      -0.531123       -14.4526
 275   2.0000      -0.530677       -14.4405
 276   2.0000      -0.510321       -13.8866
 277   2.0000      -0.510072       -13.8798
 278   2.0000      -0.510070       -13.8797
 279   2.0000      -0.509782       -13.8719
 280   2.0000      -0.493777       -13.4363
 281   2.0000      -0.492911       -13.4128
 282   2.0000      -0.492894       -13.4123
 283   2.0000      -0.492153       -13.3922
 284   0.0000      -0.398994       -10.8572
 285   0.0000      -0.398858       -10.8535
 286   0.0000      -0.390144       -10.6164
 287   0.0000      -0.390121       -10.6157
 288   0.0000      -0.387377       -10.5411

MULLIKEN ATOMIC CHARGES
-----------------------
   0 Pd:   -0.005196
   1 Pd:   -0.004640
   2 C :    0.038475
   3 C :    0.012467
   4 C :    0.062149
   5 C :   -0.186153
   6 C :   -0.024981
   7 C :   -0.129794
   8 N :   -0.053151
   9 C :   -0.189441
  10 H :    0.260686
  11 H :    0.255813
  12 H :    0.209669
  13 H :    0.181455
  14 C :   -0.166624
  15 C :   -0.120372
  16 C :   -0.166350
  17 C :   -0.143839
  18 C :   -0.047810
  19 C :   -0.126214
  20 H :    0.245225
  21 H :    0.230218
  22 H :    0.249008
  23 H :    0.223338
  24 C :    0.036286
  25 C :   -0.172135
  26 C :   -0.043199
  27 C :   -0.132561
  28 N :   -0.070183
  29 C :   -0.138155
  30 H :    0.268335
  31 H :    0.253810
  32 H :    0.195373
  33 H :    0.190872
  34 C :    0.037828
  35 C :    0.012633
  36 C :    0.062540
  37 C :   -0.186413
  38 C :   -0.024987
  39 C :   -0.129609
  40 N :   -0.052553
  41 C :   -0.189629
  42 H :    0.260639
  43 H :    0.255805
  44 H :    0.209507
  45 H :    0.181387
  46 C :   -0.166034
  47 C :   -0.120546
  48 C :   -0.166229
  49 C :   -0.143768
  50 C :   -0.047707
  51 C :   -0.126369
  52 H :    0.245195
  53 H :    0.230266
  54 H :    0.249037
  55 H :    0.223248
  56 C :    0.036309
  57 C :   -0.172326
  58 C :   -0.043091
  59 C :   -0.132493
  60 N :   -0.069960
  61 C :   -0.138552
  62 H :    0.268383
  63 H :    0.253791
  64 H :    0.195292
  65 H :    0.191216
  66 C :    0.038178
  67 C :    0.012292
  68 C :    0.062219
  69 C :   -0.186330
  70 C :   -0.024793
  71 C :   -0.130199
  72 N :   -0.052274
  73 C :   -0.189705
  74 H :    0.260713
  75 H :    0.255787
  76 H :    0.209679
  77 H :    0.181489
  78 C :   -0.166345
  79 C :   -0.120410
  80 C :   -0.166246
  81 C :   -0.143830
  82 C :   -0.047729
  83 C :   -0.126056
  84 H :    0.245197
  85 H :    0.230229
  86 H :    0.249042
  87 H :    0.223133
  88 C :    0.036840
  89 C :   -0.172453
  90 C :   -0.043144
  91 C :   -0.132465
  92 N :   -0.069885
  93 C :   -0.138524
  94 H :    0.268362
  95 H :    0.253769
  96 H :    0.195253
  97 H :    0.190863
  98 C :    0.037874
  99 C :    0.012188
 100 C :    0.062550
 101 C :   -0.186448
 102 C :   -0.025139
 103 C :   -0.129692
 104 N :   -0.052454
 105 C :   -0.190084
 106 H :    0.260665
 107 H :    0.255781
 108 H :    0.209706
 109 H :    0.181795
 110 C :   -0.166031
 111 C :   -0.120451
 112 C :   -0.166157
 113 C :   -0.143830
 114 C :   -0.047576
 115 C :   -0.126207
 116 H :    0.245178
 117 H :    0.230265
 118 H :    0.249028
 119 H :    0.223022
 120 C :    0.036725
 121 C :   -0.172378
 122 C :   -0.043356
 123 C :   -0.132400
 124 N :   -0.070332
 125 C :   -0.138557
 126 H :    0.268361
 127 H :    0.253796
 128 H :    0.195375
 129 H :    0.190941
Sum of atomic charges:    4.0000000

LOEWDIN ATOMIC CHARGES
----------------------
   0 Pd:   -0.061493
   1 Pd:   -0.061485
   2 C :    0.025772
   3 C :   -0.052184
   4 C :   -0.041958
   5 C :   -0.061275
   6 C :   -0.113745
   7 C :   -0.033075
   8 N :   -0.076458
   9 C :   -0.023949
  10 H :    0.207397
  11 H :    0.206615
  12 H :    0.190881
  13 H :    0.186264
  14 C :   -0.063329
  15 C :   -0.091705
  16 C :   -0.113484
  17 C :   -0.111726
  18 C :   -0.059128
  19 C :   -0.121343
  20 H :    0.194936
  21 H :    0.194891
  22 H :    0.187879
  23 H :    0.173214
  24 C :   -0.027615
  25 C :   -0.073299
  26 C :   -0.114211
  27 C :   -0.033268
  28 N :   -0.077058
  29 C :   -0.028629
  30 H :    0.203000
  31 H :    0.205272
  32 H :    0.189789
  33 H :    0.182279
  34 C :    0.025753
  35 C :   -0.052177
  36 C :   -0.041943
  37 C :   -0.061288
  38 C :   -0.113758
  39 C :   -0.033051
  40 N :   -0.076445
  41 C :   -0.023959
  42 H :    0.207375
  43 H :    0.206608
  44 H :    0.190852
  45 H :    0.186237
  46 C :   -0.063308
  47 C :   -0.091678
  48 C :   -0.113471
  49 C :   -0.111684
  50 C :   -0.059147
  51 C :   -0.121329
  52 H :    0.194942
  53 H :    0.194903
  54 H :    0.187892
  55 H :    0.173172
  56 C :   -0.027612
  57 C :   -0.073298
  58 C :   -0.114222
  59 C :   -0.033288
  60 N :   -0.077056
  61 C :   -0.028674
  62 H :    0.202992
  63 H :    0.205265
  64 H :    0.189815
  65 H :    0.182323
  66 C :    0.025767
  67 C :   -0.052187
  68 C :   -0.041918
  69 C :   -0.061303
  70 C :   -0.113719
  71 C :   -0.033106
  72 N :   -0.076416
  73 C :   -0.023990
  74 H :    0.207387
  75 H :    0.206615
  76 H :    0.190886
  77 H :    0.186260
  78 C :   -0.063342
  79 C :   -0.091708
  80 C :   -0.113466
  81 C :   -0.111735
  82 C :   -0.059144
  83 C :   -0.121314
  84 H :    0.194931
  85 H :    0.194896
  86 H :    0.187886
  87 H :    0.173201
  88 C :   -0.027589
  89 C :   -0.073302
  90 C :   -0.114226
  91 C :   -0.033253
  92 N :   -0.077046
  93 C :   -0.028666
  94 H :    0.202993
  95 H :    0.205270
  96 H :    0.189777
  97 H :    0.182290
  98 C :    0.025765
  99 C :   -0.052194
 100 C :   -0.041905
 101 C :   -0.061314
 102 C :   -0.113711
 103 C :   -0.033089
 104 N :   -0.076416
 105 C :   -0.024026
 106 H :    0.207376
 107 H :    0.206610
 108 H :    0.190864
 109 H :    0.186261
 110 C :   -0.063325
 111 C :   -0.091671
 112 C :   -0.113468
 113 C :   -0.111682
 114 C :   -0.059154
 115 C :   -0.121307
 116 H :    0.194942
 117 H :    0.194907
 118 H :    0.187888
 119 H :    0.173170
 120 C :   -0.027615
 121 C :   -0.073286
 122 C :   -0.114231
 123 C :   -0.033277
 124 N :   -0.077065
 125 C :   -0.028656
 126 H :    0.202995
 127 H :    0.205267
 128 H :    0.189792
 129 H :    0.182312

  Mayer bond orders larger than 0.100000
B(  0-Pd, 28-N ) :   0.5242 B(  0-Pd, 40-N ) :   0.5233 B(  0-Pd, 92-N ) :   0.5242
B(  0-Pd,104-N ) :   0.5234 B(  1-Pd,  8-N ) :   0.5232 B(  1-Pd, 60-N ) :   0.5240
B(  1-Pd, 72-N ) :   0.5231 B(  1-Pd,124-N ) :   0.5241 B(  2-C ,  3-C ) :   1.8556
B(  2-C ,  4-C ) :  -0.3050 B(  2-C , 14-C ) :   1.4930 B(  2-C , 19-C ) :  -0.1010
B(  3-C ,  4-C ) :   1.4243 B(  3-C , 14-C ) :  -0.3943 B(  4-C ,  5-C ) :   1.3620
B(  4-C ,  9-C ) :   1.3024 B(  5-C ,  6-C ) :   1.4850 B(  5-C , 10-H ) :   0.9060
B(  6-C ,  7-C ) :   1.4254 B(  6-C , 11-H ) :   0.8680 B(  7-C ,  8-N ) :   1.3696
B(  7-C , 12-H ) :   0.9146 B(  8-N ,  9-C ) :   1.3557 B(  9-C , 13-H ) :   0.9577
B( 14-C , 15-C ) :   1.3681 B( 14-C , 19-C ) :   1.4136 B( 15-C , 16-C ) :   1.5448
B( 15-C , 20-H ) :   0.8787 B( 16-C , 17-C ) :   1.5896 B( 16-C , 21-H ) :   0.8678
B( 17-C , 18-C ) :   1.3634 B( 17-C , 22-H ) :   0.8414 B( 18-C , 19-C ) :   1.3442
B( 18-C , 24-C ) :   0.9219 B( 19-C , 23-H ) :   0.8672 B( 24-C , 25-C ) :   1.4307
B( 24-C , 29-C ) :   1.3929 B( 25-C , 26-C ) :   1.5160 B( 25-C , 30-H ) :   0.8673
B( 26-C , 27-C ) :   1.4480 B( 26-C , 31-H ) :   0.8625 B( 27-C , 28-N ) :   1.3403
B( 27-C , 32-H ) :   0.9223 B( 28-N , 29-C ) :   1.3862 B( 29-C , 33-H ) :   0.9070
B( 34-C , 35-C ) :   1.8557 B( 34-C , 36-C ) :  -0.3050 B( 34-C , 46-C ) :   1.4929
B( 34-C , 51-C ) :  -0.1009 B( 35-C , 36-C ) :   1.4243 B( 35-C , 46-C ) :  -0.3943
B( 36-C , 37-C ) :   1.3619 B( 36-C , 41-C ) :   1.3019 B( 37-C , 38-C ) :   1.4851
B( 37-C , 42-H ) :   0.9060 B( 38-C , 39-C ) :   1.4254 B( 38-C , 43-H ) :   0.8680
B( 39-C , 40-N ) :   1.3693 B( 39-C , 44-H ) :   0.9147 B( 40-N , 41-C ) :   1.3558
B( 41-C , 45-H ) :   0.9578 B( 46-C , 47-C ) :   1.3678 B( 46-C , 51-C ) :   1.4137
B( 47-C , 48-C ) :   1.5451 B( 47-C , 52-H ) :   0.8787 B( 48-C , 49-C ) :   1.5893
B( 48-C , 53-H ) :   0.8677 B( 49-C , 50-C ) :   1.3635 B( 49-C , 54-H ) :   0.8413
B( 50-C , 51-C ) :   1.3439 B( 50-C , 56-C ) :   0.9221 B( 51-C , 55-H ) :   0.8673
B( 56-C , 57-C ) :   1.4308 B( 56-C , 61-C ) :   1.3927 B( 57-C , 58-C ) :   1.5159
B( 57-C , 62-H ) :   0.8672 B( 58-C , 59-C ) :   1.4478 B( 58-C , 63-H ) :   0.8626
B( 59-C , 60-N ) :   1.3403 B( 59-C , 64-H ) :   0.9224 B( 60-N , 61-C ) :   1.3861
B( 61-C , 65-H ) :   0.9071 B( 66-C , 67-C ) :   1.8556 B( 66-C , 68-C ) :  -0.3051
B( 66-C , 78-C ) :   1.4928 B( 66-C , 83-C ) :  -0.1009 B( 67-C , 68-C ) :   1.4241
B( 67-C , 78-C ) :  -0.3942 B( 68-C , 69-C ) :   1.3622 B( 68-C , 73-C ) :   1.3028
B( 69-C , 70-C ) :   1.4849 B( 69-C , 74-H ) :   0.9059 B( 70-C , 71-C ) :   1.4254
B( 70-C , 75-H ) :   0.8681 B( 71-C , 72-N ) :   1.3693 B( 71-C , 76-H ) :   0.9147
B( 72-N , 73-C ) :   1.3558 B( 73-C , 77-H ) :   0.9575 B( 78-C , 79-C ) :   1.3681
B( 78-C , 83-C ) :   1.4138 B( 79-C , 80-C ) :   1.5449 B( 79-C , 84-H ) :   0.8787
B( 80-C , 81-C ) :   1.5894 B( 80-C , 85-H ) :   0.8677 B( 81-C , 82-C ) :   1.3635
B( 81-C , 86-H ) :   0.8413 B( 82-C , 83-C ) :   1.3442 B( 82-C , 88-C ) :   0.9219
B( 83-C , 87-H ) :   0.8673 B( 88-C , 89-C ) :   1.4307 B( 88-C , 93-C ) :   1.3921
B( 89-C , 90-C ) :   1.5162 B( 89-C , 94-H ) :   0.8672 B( 90-C , 91-C ) :   1.4480
B( 90-C , 95-H ) :   0.8625 B( 91-C , 92-N ) :   1.3404 B( 91-C , 96-H ) :   0.9223
B( 92-N , 93-C ) :   1.3862 B( 93-C , 97-H ) :   0.9073 B( 98-C , 99-C ) :   1.8557
B( 98-C ,100-C ) :  -0.3050 B( 98-C ,110-C ) :   1.4931 B( 98-C ,115-C ) :  -0.1009
B( 99-C ,100-C ) :   1.4240 B( 99-C ,110-C ) :  -0.3942 B(100-C ,101-C ) :   1.3622
B(100-C ,105-C ) :   1.3023 B(101-C ,102-C ) :   1.4851 B(101-C ,106-H ) :   0.9060
B(102-C ,103-C ) :   1.4257 B(102-C ,107-H ) :   0.8680 B(103-C ,104-N ) :   1.3693
B(103-C ,108-H ) :   0.9145 B(104-N ,105-C ) :   1.3559 B(105-C ,109-H ) :   0.9575
B(110-C ,111-C ) :   1.3679 B(110-C ,115-C ) :   1.4137 B(111-C ,112-C ) :   1.5449
B(111-C ,116-H ) :   0.8787 B(112-C ,113-C ) :   1.5895 B(112-C ,117-H ) :   0.8677
B(113-C ,114-C ) :   1.3635 B(113-C ,118-H ) :   0.8413 B(114-C ,115-C ) :   1.3440
B(114-C ,120-C ) :   0.9222 B(115-C ,119-H ) :   0.8674 B(120-C ,121-C ) :   1.4306
B(120-C ,125-C ) :   1.3924 B(121-C ,122-C ) :   1.5162 B(121-C ,126-H ) :   0.8672
B(122-C ,123-C ) :   1.4482 B(122-C ,127-H ) :   0.8625 B(123-C ,124-N ) :   1.3404
B(123-C ,128-H ) :   0.9221 B(124-N ,125-C ) :   1.3862 B(125-C ,129-H ) :   0.9072

Dispersion correction           -0.484757176
FINAL SINGLE POINT ENERGY     -3464.234702501335

DIPOLE MOMENT
-------------
                                X             Y             Z
Electronic contribution:     -0.02400       0.01505      -0.03977
Nuclear contribution   :      0.02457      -0.01559       0.03932
                        -----------------------------------------
Total Dipole Moment    :      0.00057      -0.00055      -0.00046
                        -----------------------------------------
Magnitude (a.u.)       :      0.00091
Magnitude (Debye)      :      0.00232

Rotational constants in cm-1:     0.000820     0.000528     0.000528
Rotational constants in MHz :    24.597067    15.838725    15.818310

                             ****ORCA TERMINATED NORMALLY****
TOTAL RUN TIME: 0 days 0 hours 5 minutes 53 seconds 734 msec
