                         Program Version 4.2.1 -  RELEASE  -
|  1> ! DFT SP B97-3c TightSCF printbasis  Grid6 NOFINALGRID SlowConv
|  2>
|  3> %base "_s_4b1_b_B97-3c"
|  4> %maxcore 3000
|  5> %scf
|  6>    MaxIter 2000
|  7> end
|  8> %pal
|  9>    nprocs 32
| 10> end
| 11>
| 12> * xyzfile 4 1 s_4b1_b.xyz
| 13>
| 14>                          ****END OF INPUT****

CARTESIAN COORDINATES (ANGSTROEM)
---------------------------------
  Pd    -0.919000    7.094900    0.569600
  Pd    -0.215200   -4.248900   -0.282200
  C      4.204000   -0.292700   -1.060100
  C      4.482000   -1.459300   -1.218900
  C      4.849400   -2.807000   -1.408200
  C      6.156700   -3.135600   -1.713300
  C      6.537900   -4.468500   -1.906400
  C      5.628100   -5.489700   -1.791600
  C      4.287300   -5.204400   -1.474000
  C      3.302100   -6.207600   -1.326300
  C      2.020800   -5.862700   -1.003700
  N      1.653300   -4.570300   -0.823400
  C      2.540400   -3.605300   -0.958300
  C      3.883700   -3.851000   -1.281800
  H      6.893100   -2.352300   -1.808200
  H      7.566600   -4.688000   -2.147900
  H      5.928000   -6.515300   -1.939300
  H      3.575700   -7.241300   -1.466300
  H      1.234800   -6.606500   -0.875300
  H      2.197000   -2.583700   -0.807800
  C      3.846500    1.057200   -0.854200
  C      4.636000    1.880100   -0.045600
  C      4.271800    3.193500    0.169700
  C      3.109900    3.712600   -0.405100
  C      2.330600    2.890400   -1.221300
  C      2.694300    1.579700   -1.448900
  H      5.529500    1.482300    0.410400
  H      4.879800    3.813100    0.810700
  H      1.458100    3.292500   -1.710100
  H      2.104600    0.958300   -2.103400
  C      2.719700    5.109400   -0.165700
  C      3.666300    6.139100   -0.155600
  C      3.256700    7.443000    0.062600
  C      1.911200    7.700700    0.266600
  N      1.007300    6.720300    0.263000
  C      1.387800    5.457400    0.056000
  H      4.706800    5.918500   -0.336600
  H      3.969200    8.251800    0.069300
  H      1.545100    8.708800    0.438500
  H      0.597300    4.706200    0.086800
  C     -0.215800    2.699700    5.019300
  C     -0.322200    3.876500    5.277200
  C     -0.377800    5.217400    5.706400
  C     -0.325700    5.489200    7.061800
  C     -0.312300    6.805100    7.535200
  C     -0.339200    7.865500    6.664500
  C     -0.406300    7.634800    5.278800
  C     -0.430400    8.685000    4.333700
  C     -0.524000    8.398400    3.004400
  N     -0.617400    7.123000    2.543400
  C     -0.569600    6.115600    3.391300
  C     -0.446500    6.300000    4.779900
  H     -0.281500    4.670500    7.763600
  H     -0.268400    6.979600    8.599300
  H     -0.310400    8.880500    7.028300
  H     -0.375100    9.706200    4.675400
  H     -0.528800    9.189200    2.252700
  H     -0.635100    5.115700    2.973900
  C     -0.075500    1.337900    4.679000
  C     -0.885200    0.370400    5.280000
  C     -0.752400   -0.957400    4.928000
  C      0.185800   -1.346100    3.969900
  C      1.015700   -0.379600    3.396600
  C      0.889400    0.948200    3.745400
  H     -1.621100    0.667300    6.010900
  H     -1.402100   -1.693600    5.375200
  H      1.783300   -0.674900    2.699100
  H      1.537200    1.690800    3.308300
  C      0.234100   -2.742400    3.513200
  C      0.095400   -3.837000    4.373600
  C      0.065100   -5.116900    3.846700
  C      0.125600   -5.288500    2.471400
  N      0.257700   -4.247000    1.651500
  C      0.341200   -3.011100    2.152100
  H      0.025400   -3.682300    5.439100
  H     -0.025600   -5.975400    4.492100
  H      0.069500   -6.267800    2.008900
  H      0.482400   -2.202100    1.430800
  C     -5.263500    2.972700    1.581600
  C     -5.531900    4.152000    1.597800
  C     -5.956800    5.494300    1.639000
  C     -7.284800    5.771100    1.908900
  C     -7.752700    7.088200    1.963700
  C     -6.905100    8.145300    1.747800
  C     -5.547200    7.910900    1.463600
  C     -4.628200    8.956700    1.226900
  C     -3.323600    8.665700    0.954100
  N     -2.865300    7.392000    0.895800
  C     -3.692900    6.385800    1.109800
  C     -5.053500    6.574600    1.404200
  H     -7.969600    4.955600    2.084800
  H     -8.795000    7.266100    2.179700
  H     -7.265700    9.161000    1.790800
  H     -4.967400    9.979500    1.264300
  H     -2.597300    9.451400    0.767500
  H     -3.276900    5.381600    1.046800
  C     -4.931500    1.604100    1.508200
  C     -3.706400    1.138800    1.994600
  C     -3.367200   -0.189700    1.852000
  C     -4.242500   -1.083900    1.230000
  C     -5.485900   -0.626100    0.791200
  C     -5.827800    0.703800    0.923800
  H     -3.030700    1.822500    2.482200
  H     -2.427800   -0.542900    2.249800
  H     -6.171700   -1.306500    0.310700
  H     -6.781300    1.057800    0.563800
  C     -3.834700   -2.474600    0.989900
  C     -4.695600   -3.565200    1.145000
  C     -4.233100   -4.841900    0.871300
  C     -2.926400   -5.014700    0.444400
  N     -2.106300   -3.972900    0.291400
  C     -2.540000   -2.740300    0.554500
  H     -5.706100   -3.412300    1.490700
  H     -4.878300   -5.697500    0.989200
  H     -2.513900   -5.993700    0.214900
  H     -1.830200   -1.931200    0.395700
  C     -2.062600    3.312800   -4.373300
  C     -2.043000    4.519600   -4.456300
  C     -1.993900    5.904400   -4.705300
  C     -2.203500    6.357900   -5.996300
  C     -2.119100    7.717600   -6.309300
  C     -1.805000    8.641700   -5.344300
  C     -1.582700    8.225500   -4.019600
  C     -1.234200    9.128400   -2.989900
  C     -1.036900    8.667400   -1.722600
  N     -1.186800    7.356100   -1.395700
  C     -1.498200    6.482100   -2.331400
  C     -1.694400    6.846500   -3.675600
  H     -2.433600    5.646000   -6.774200
  H     -2.293600    8.034600   -7.326000
  H     -1.722400    9.689100   -5.587900
  H     -1.123100   10.176000   -3.220000
  H     -0.744500    9.341200   -0.914700
  H     -1.606800    5.447200   -2.023900
  C     -2.020600    1.912400   -4.218600
  C     -2.309300    1.331600   -2.980200
  C     -2.188000   -0.030600   -2.814600
  C     -1.785400   -0.845200   -3.876500
  C     -1.548700   -0.269300   -5.124500
  C     -1.659900    1.096100   -5.295300
  H     -2.624900    1.956500   -2.160700
  H     -2.432800   -0.475100   -1.862300
  H     -1.242800   -0.887900   -5.954000
  H     -1.454400    1.540600   -6.256900
  C     -1.593800   -2.283900   -3.645400
  C     -2.046700   -3.274700   -4.522100
  C     -1.865700   -4.607200   -4.191400
  C     -1.257100   -4.935500   -2.988500
  N     -0.805800   -3.992300   -2.163700
  C     -0.948400   -2.703800   -2.485900
  H     -2.550700   -2.999800   -5.435700
  H     -2.209100   -5.388600   -4.850000
  H     -1.120500   -5.964700   -2.675200
  H     -0.509900   -1.976300   -1.798500

 Total Charge           Charge          ....    4
 Multiplicity           Mult            ....    1
 Number of Electrons    NEL             ....  672
 Basis Dimension        Dim             .... 2058

ORBITAL ENERGIES
----------------

  NO   OCC          E(Eh)            E(eV)
   0   2.0000     -14.348432      -390.4407
   1   2.0000     -14.347426      -390.4133
   2   2.0000     -14.347362      -390.4116
   3   2.0000     -14.344802      -390.3419
   4   2.0000     -14.338294      -390.1648
   5   2.0000     -14.335745      -390.0954
   6   2.0000     -14.334986      -390.0748
   7   2.0000     -14.333913      -390.0456
   8   2.0000     -10.243836      -278.7489
   9   2.0000     -10.243489      -278.7395
  10   2.0000     -10.241284      -278.6795
  11   2.0000     -10.240682      -278.6631
  12   2.0000     -10.239902      -278.6419
  13   2.0000     -10.238735      -278.6101
  14   2.0000     -10.237751      -278.5834
  15   2.0000     -10.235709      -278.5278
  16   2.0000     -10.235620      -278.5254
  17   2.0000     -10.235403      -278.5195
  18   2.0000     -10.234835      -278.5040
  19   2.0000     -10.233704      -278.4733
  20   2.0000     -10.223085      -278.1843
  21   2.0000     -10.222667      -278.1729
  22   2.0000     -10.222574      -278.1704
  23   2.0000     -10.220377      -278.1106
  24   2.0000     -10.217539      -278.0334
  25   2.0000     -10.216926      -278.0167
  26   2.0000     -10.214497      -277.9506
  27   2.0000     -10.213424      -277.9214
  28   2.0000     -10.209378      -277.8113
  29   2.0000     -10.208218      -277.7797
  30   2.0000     -10.206647      -277.7370
  31   2.0000     -10.204203      -277.6705
  32   2.0000     -10.204082      -277.6672
  33   2.0000     -10.202563      -277.6258
  34   2.0000     -10.202010      -277.6108
  35   2.0000     -10.201684      -277.6019
  36   2.0000     -10.201118      -277.5865
  37   2.0000     -10.201104      -277.5862
  38   2.0000     -10.200842      -277.5790
  39   2.0000     -10.200626      -277.5732
  40   2.0000     -10.200497      -277.5696
  41   2.0000     -10.200339      -277.5653
  42   2.0000     -10.200177      -277.5609
  43   2.0000     -10.199070      -277.5308
  44   2.0000     -10.197445      -277.4866
  45   2.0000     -10.196977      -277.4739
  46   2.0000     -10.196706      -277.4665
  47   2.0000     -10.196460      -277.4598
  48   2.0000     -10.196033      -277.4482
  49   2.0000     -10.195966      -277.4463
  50   2.0000     -10.194599      -277.4091
  51   2.0000     -10.194392      -277.4035
  52   2.0000     -10.193815      -277.3878
  53   2.0000     -10.192548      -277.3533
  54   2.0000     -10.190552      -277.2990
  55   2.0000     -10.190431      -277.2957
  56   2.0000     -10.190264      -277.2912
  57   2.0000     -10.190228      -277.2902
  58   2.0000     -10.189842      -277.2797
  59   2.0000     -10.188527      -277.2439
  60   2.0000     -10.179873      -277.0084
  61   2.0000     -10.179623      -277.0016
  62   2.0000     -10.178761      -276.9782
  63   2.0000     -10.178235      -276.9639
  64   2.0000     -10.177768      -276.9511
  65   2.0000     -10.177477      -276.9432
  66   2.0000     -10.177392      -276.9409
  67   2.0000     -10.176751      -276.9235
  68   2.0000     -10.176106      -276.9059
  69   2.0000     -10.175540      -276.8905
  70   2.0000     -10.175097      -276.8785
  71   2.0000     -10.174407      -276.8597
  72   2.0000     -10.173534      -276.8359
  73   2.0000     -10.173248      -276.8281
  74   2.0000     -10.173238      -276.8279
  75   2.0000     -10.173143      -276.8253
  76   2.0000     -10.173126      -276.8248
  77   2.0000     -10.172973      -276.8207
  78   2.0000     -10.171744      -276.7872
  79   2.0000     -10.171367      -276.7770
  80   2.0000     -10.169837      -276.7353
  81   2.0000     -10.169665      -276.7307
  82   2.0000     -10.169198      -276.7180
  83   2.0000     -10.168705      -276.7045
  84   2.0000     -10.168493      -276.6988
  85   2.0000     -10.168461      -276.6979
  86   2.0000     -10.168315      -276.6939
  87   2.0000     -10.168220      -276.6913
  88   2.0000     -10.168024      -276.6860
  89   2.0000     -10.167887      -276.6823
  90   2.0000     -10.167815      -276.6803
  91   2.0000     -10.167651      -276.6758
  92   2.0000     -10.167539      -276.6728
  93   2.0000     -10.166382      -276.6413
  94   2.0000     -10.166154      -276.6351
  95   2.0000     -10.165551      -276.6187
  96   2.0000      -3.656897       -99.5092
  97   2.0000      -3.648671       -99.2854
  98   2.0000      -2.387811       -64.9756
  99   2.0000      -2.387091       -64.9560
 100   2.0000      -2.379464       -64.7485
 101   2.0000      -2.378685       -64.7273
 102   2.0000      -2.345246       -63.8174
 103   2.0000      -2.336979       -63.5924
 104   2.0000      -1.213107       -33.0103
 105   2.0000      -1.205767       -32.8106
 106   2.0000      -1.205461       -32.8023
 107   2.0000      -1.204683       -32.7811
 108   2.0000      -1.195352       -32.5272
 109   2.0000      -1.195333       -32.5267
 110   2.0000      -1.191539       -32.4234
 111   2.0000      -1.190288       -32.3894
 112   2.0000      -1.086455       -29.5639
 113   2.0000      -1.085532       -29.5388
 114   2.0000      -1.083658       -29.4878
 115   2.0000      -1.083025       -29.4706
 116   2.0000      -1.081440       -29.4275
 117   2.0000      -1.080201       -29.3938
 118   2.0000      -1.080029       -29.3891
 119   2.0000      -1.079697       -29.3801
 120   2.0000      -1.052059       -28.6280
 121   2.0000      -1.050812       -28.5940
 122   2.0000      -1.048888       -28.5417
 123   2.0000      -1.047712       -28.5097
 124   2.0000      -1.026068       -27.9207
 125   2.0000      -1.024672       -27.8827
 126   2.0000      -1.023897       -27.8617
 127   2.0000      -1.023472       -27.8501
 128   2.0000      -1.022167       -27.8146
 129   2.0000      -1.020930       -27.7809
 130   2.0000      -1.019895       -27.7528
 131   2.0000      -1.018550       -27.7162
 132   2.0000      -0.993742       -27.0411
 133   2.0000      -0.993237       -27.0273
 134   2.0000      -0.992266       -27.0009
 135   2.0000      -0.992083       -26.9959
 136   2.0000      -0.991892       -26.9907
 137   2.0000      -0.991171       -26.9711
 138   2.0000      -0.990930       -26.9646
 139   2.0000      -0.990240       -26.9458
 140   2.0000      -0.975684       -26.5497
 141   2.0000      -0.974386       -26.5144
 142   2.0000      -0.973887       -26.5008
 143   2.0000      -0.973031       -26.4775
 144   2.0000      -0.968876       -26.3644
 145   2.0000      -0.967748       -26.3338
 146   2.0000      -0.966123       -26.2895
 147   2.0000      -0.965732       -26.2789
 148   2.0000      -0.935807       -25.4646
 149   2.0000      -0.934768       -25.4363
 150   2.0000      -0.934017       -25.4159
 151   2.0000      -0.933463       -25.4008
 152   2.0000      -0.899082       -24.4653
 153   2.0000      -0.896991       -24.4084
 154   2.0000      -0.895226       -24.3603
 155   2.0000      -0.894843       -24.3499
 156   2.0000      -0.890551       -24.2331
 157   2.0000      -0.889219       -24.1969
 158   2.0000      -0.888482       -24.1768
 159   2.0000      -0.887387       -24.1470
 160   2.0000      -0.886205       -24.1149
 161   2.0000      -0.885666       -24.1002
 162   2.0000      -0.883405       -24.0387
 163   2.0000      -0.882234       -24.0068
 164   2.0000      -0.867910       -23.6170
 165   2.0000      -0.866205       -23.5706
 166   2.0000      -0.865730       -23.5577
 167   2.0000      -0.865115       -23.5410
 168   2.0000      -0.851898       -23.1813
 169   2.0000      -0.850443       -23.1417
 170   2.0000      -0.849989       -23.1294
 171   2.0000      -0.849695       -23.1214
 172   2.0000      -0.836646       -22.7663
 173   2.0000      -0.835813       -22.7436
 174   2.0000      -0.834409       -22.7054
 175   2.0000      -0.833785       -22.6885
 176   2.0000      -0.833119       -22.6703
 177   2.0000      -0.831225       -22.6188
 178   2.0000      -0.829802       -22.5801
 179   2.0000      -0.829441       -22.5702
 180   2.0000      -0.801737       -21.8164
 181   2.0000      -0.794047       -21.6071
 182   2.0000      -0.793420       -21.5901
 183   2.0000      -0.788772       -21.4636
 184   2.0000      -0.785908       -21.3856
 185   2.0000      -0.783902       -21.3310
 186   2.0000      -0.782679       -21.2978
 187   2.0000      -0.782543       -21.2941
 188   2.0000      -0.768272       -20.9058
 189   2.0000      -0.765581       -20.8325
 190   2.0000      -0.765267       -20.8240
 191   2.0000      -0.764071       -20.7914
 192   2.0000      -0.763639       -20.7797
 193   2.0000      -0.762623       -20.7520
 194   2.0000      -0.761783       -20.7292
 195   2.0000      -0.761596       -20.7241
 196   2.0000      -0.756635       -20.5891
 197   2.0000      -0.756035       -20.5728
 198   2.0000      -0.754736       -20.5374
 199   2.0000      -0.752988       -20.4898
 200   2.0000      -0.752615       -20.4797
 201   2.0000      -0.751484       -20.4489
 202   2.0000      -0.750561       -20.4238
 203   2.0000      -0.744747       -20.2656
 204   2.0000      -0.734905       -19.9978
 205   2.0000      -0.731471       -19.9043
 206   2.0000      -0.730083       -19.8666
 207   2.0000      -0.728900       -19.8344
 208   2.0000      -0.721360       -19.6292
 209   2.0000      -0.718255       -19.5447
 210   2.0000      -0.716490       -19.4967
 211   2.0000      -0.713048       -19.4030
 212   2.0000      -0.712543       -19.3893
 213   2.0000      -0.711075       -19.3493
 214   2.0000      -0.708769       -19.2866
 215   2.0000      -0.706110       -19.2142
 216   2.0000      -0.702838       -19.1252
 217   2.0000      -0.701670       -19.0934
 218   2.0000      -0.699884       -19.0448
 219   2.0000      -0.698632       -19.0107
 220   2.0000      -0.698356       -19.0032
 221   2.0000      -0.697325       -18.9752
 222   2.0000      -0.696471       -18.9519
 223   2.0000      -0.696217       -18.9450
 224   2.0000      -0.695875       -18.9357
 225   2.0000      -0.695380       -18.9222
 226   2.0000      -0.694875       -18.9085
 227   2.0000      -0.693576       -18.8732
 228   2.0000      -0.692486       -18.8435
 229   2.0000      -0.688715       -18.7409
 230   2.0000      -0.686756       -18.6876
 231   2.0000      -0.683992       -18.6124
 232   2.0000      -0.682624       -18.5752
 233   2.0000      -0.681468       -18.5437
 234   2.0000      -0.676703       -18.4140
 235   2.0000      -0.675891       -18.3919
 236   2.0000      -0.674561       -18.3557
 237   2.0000      -0.674256       -18.3475
 238   2.0000      -0.672914       -18.3109
 239   2.0000      -0.671917       -18.2838
 240   2.0000      -0.671240       -18.2654
 241   2.0000      -0.670815       -18.2538
 242   2.0000      -0.669778       -18.2256
 243   2.0000      -0.669367       -18.2144
 244   2.0000      -0.668877       -18.2011
 245   2.0000      -0.667959       -18.1761
 246   2.0000      -0.667544       -18.1648
 247   2.0000      -0.664689       -18.0871
 248   2.0000      -0.661001       -17.9868
 249   2.0000      -0.659845       -17.9553
 250   2.0000      -0.658759       -17.9257
 251   2.0000      -0.658039       -17.9062
 252   2.0000      -0.654785       -17.8176
 253   2.0000      -0.647186       -17.6108
 254   2.0000      -0.644954       -17.5501
 255   2.0000      -0.643652       -17.5147
 256   2.0000      -0.643141       -17.5008
 257   2.0000      -0.642680       -17.4882
 258   2.0000      -0.641054       -17.4440
 259   2.0000      -0.639067       -17.3899
 260   2.0000      -0.632373       -17.2078
 261   2.0000      -0.631861       -17.1938
 262   2.0000      -0.630458       -17.1556
 263   2.0000      -0.629811       -17.1380
 264   2.0000      -0.628152       -17.0929
 265   2.0000      -0.627260       -17.0686
 266   2.0000      -0.625452       -17.0194
 267   2.0000      -0.624621       -16.9968
 268   2.0000      -0.622662       -16.9435
 269   2.0000      -0.619598       -16.8601
 270   2.0000      -0.616702       -16.7813
 271   2.0000      -0.612257       -16.6604
 272   2.0000      -0.608870       -16.5682
 273   2.0000      -0.608168       -16.5491
 274   2.0000      -0.606692       -16.5089
 275   2.0000      -0.605411       -16.4741
 276   2.0000      -0.603019       -16.4090
 277   2.0000      -0.600685       -16.3455
 278   2.0000      -0.599940       -16.3252
 279   2.0000      -0.597896       -16.2696
 280   2.0000      -0.593363       -16.1462
 281   2.0000      -0.593105       -16.1392
 282   2.0000      -0.592213       -16.1149
 283   2.0000      -0.590246       -16.0614
 284   2.0000      -0.589484       -16.0407
 285   2.0000      -0.588673       -16.0186
 286   2.0000      -0.588320       -16.0090
 287   2.0000      -0.587913       -15.9979
 288   2.0000      -0.587843       -15.9960
 289   2.0000      -0.583216       -15.8701
 290   2.0000      -0.583000       -15.8642
 291   2.0000      -0.579200       -15.7608
 292   2.0000      -0.575648       -15.6642
 293   2.0000      -0.574526       -15.6336
 294   2.0000      -0.573690       -15.6109
 295   2.0000      -0.569927       -15.5085
 296   2.0000      -0.569322       -15.4920
 297   2.0000      -0.565750       -15.3948
 298   2.0000      -0.565367       -15.3844
 299   2.0000      -0.564283       -15.3549
 300   2.0000      -0.562946       -15.3185
 301   2.0000      -0.558177       -15.1888
 302   2.0000      -0.556648       -15.1472
 303   2.0000      -0.552924       -15.0458
 304   2.0000      -0.552320       -15.0294
 305   2.0000      -0.550176       -14.9711
 306   2.0000      -0.547462       -14.8972
 307   2.0000      -0.546606       -14.8739
 308   2.0000      -0.543714       -14.7952
 309   2.0000      -0.542886       -14.7727
 310   2.0000      -0.537105       -14.6154
 311   2.0000      -0.534577       -14.5466
 312   2.0000      -0.533231       -14.5099
 313   2.0000      -0.531831       -14.4719
 314   2.0000      -0.524759       -14.2794
 315   2.0000      -0.522722       -14.2240
 316   2.0000      -0.522648       -14.2220
 317   2.0000      -0.521121       -14.1804
 318   2.0000      -0.520226       -14.1561
 319   2.0000      -0.519012       -14.1230
 320   2.0000      -0.518183       -14.1005
 321   2.0000      -0.517033       -14.0692
 322   2.0000      -0.514019       -13.9872
 323   2.0000      -0.513179       -13.9643
 324   2.0000      -0.509985       -13.8774
 325   2.0000      -0.509618       -13.8674
 326   2.0000      -0.509074       -13.8526
 327   2.0000      -0.508538       -13.8380
 328   2.0000      -0.498053       -13.5527
 329   2.0000      -0.494912       -13.4672
 330   2.0000      -0.492117       -13.3912
 331   2.0000      -0.491217       -13.3667
 332   2.0000      -0.468979       -12.7616
 333   2.0000      -0.466683       -12.6991
 334   2.0000      -0.465787       -12.6747
 335   2.0000      -0.463996       -12.6260
 336   0.0000      -0.388697       -10.5770
 337   0.0000      -0.379397       -10.3239
 338   0.0000      -0.378807       -10.3078
 339   0.0000      -0.376378       -10.2418
 340   0.0000      -0.375640       -10.2217

MULLIKEN ATOMIC CHARGES
-----------------------
   0 Pd:   -0.032808
   1 Pd:   -0.034353
   2 C :    0.046111
   3 C :    0.096596
   4 C :   -0.245123
   5 C :   -0.067707
   6 C :   -0.179744
   7 C :   -0.203294
   8 C :   -0.058019
   9 C :   -0.113227
  10 C :   -0.190210
  11 N :   -0.034805
  12 C :   -0.134906
  13 C :    0.402524
  14 H :    0.254325
  15 H :    0.231413
  16 H :    0.249334
  17 H :    0.254976
  18 H :    0.186284
  19 H :    0.147442
  20 C :   -0.243950
  21 C :   -0.146469
  22 C :   -0.131219
  23 C :   -0.069238
  24 C :   -0.152357
  25 C :   -0.167180
  26 H :    0.241094
  27 H :    0.243218
  28 H :    0.224168
  29 H :    0.210605
  30 C :    0.057431
  31 C :   -0.176486
  32 C :   -0.058911
  33 C :   -0.107508
  34 N :   -0.048985
  35 C :   -0.175995
  36 H :    0.261555
  37 H :    0.247987
  38 H :    0.190629
  39 H :    0.200337
  40 C :    0.027572
  41 C :    0.070804
  42 C :   -0.243394
  43 C :   -0.069633
  44 C :   -0.192026
  45 C :   -0.206439
  46 C :   -0.060813
  47 C :   -0.093955
  48 C :   -0.169610
  49 N :   -0.077280
  50 C :   -0.138247
  51 C :    0.413119
  52 H :    0.251284
  53 H :    0.230227
  54 H :    0.247474
  55 H :    0.254632
  56 H :    0.168608
  57 H :    0.179522
  58 C :   -0.251375
  59 C :   -0.137252
  60 C :   -0.144483
  61 C :   -0.063125
  62 C :   -0.124515
  63 C :   -0.146086
  64 H :    0.238893
  65 H :    0.236547
  66 H :    0.231786
  67 H :    0.214261
  68 C :    0.035809
  69 C :   -0.130172
  70 C :   -0.087819
  71 C :   -0.099870
  72 N :   -0.075173
  73 C :   -0.208463
  74 H :    0.257445
  75 H :    0.250668
  76 H :    0.206119
  77 H :    0.199749
  78 C :    0.019912
  79 C :    0.073956
  80 C :   -0.231381
  81 C :   -0.077205
  82 C :   -0.187718
  83 C :   -0.210345
  84 C :   -0.054886
  85 C :   -0.140998
  86 C :   -0.146980
  87 N :   -0.055694
  88 C :   -0.150588
  89 C :    0.436829
  90 H :    0.250743
  91 H :    0.229828
  92 H :    0.247457
  93 H :    0.253239
  94 H :    0.168974
  95 H :    0.167030
  96 C :   -0.187542
  97 C :   -0.219272
  98 C :   -0.093476
  99 C :   -0.085431
 100 C :   -0.118362
 101 C :   -0.156105
 102 H :    0.206744
 103 H :    0.237270
 104 H :    0.243318
 105 H :    0.240405
 106 C :    0.015196
 107 C :   -0.182571
 108 C :   -0.046812
 109 C :   -0.116146
 110 N :   -0.083058
 111 C :   -0.134950
 112 H :    0.261399
 113 H :    0.249297
 114 H :    0.208735
 115 H :    0.193192
 116 C :    0.031024
 117 C :    0.030015
 118 C :   -0.174734
 119 C :   -0.081279
 120 C :   -0.188493
 121 C :   -0.205961
 122 C :   -0.059918
 123 C :   -0.092878
 124 C :   -0.193639
 125 N :   -0.070245
 126 C :   -0.105339
 127 C :    0.358984
 128 H :    0.249665
 129 H :    0.230082
 130 H :    0.247350
 131 H :    0.253426
 132 H :    0.176277
 133 H :    0.173837
 134 C :   -0.182548
 135 C :   -0.196117
 136 C :   -0.113497
 137 C :   -0.065906
 138 C :   -0.105380
 139 C :   -0.147159
 140 H :    0.200179
 141 H :    0.192729
 142 H :    0.244484
 143 H :    0.239496
 144 C :    0.030517
 145 C :   -0.158477
 146 C :   -0.065000
 147 C :   -0.110669
 148 N :   -0.081227
 149 C :   -0.184645
 150 H :    0.258370
 151 H :    0.249107
 152 H :    0.207054
 153 H :    0.218187
Sum of atomic charges:    4.0000000

LOEWDIN ATOMIC CHARGES
----------------------
   0 Pd:   -0.069067
   1 Pd:   -0.064133
   2 C :   -0.016512
   3 C :   -0.025128
   4 C :   -0.040890
   5 C :   -0.086495
   6 C :   -0.092867
   7 C :   -0.109531
   8 C :   -0.013956
   9 C :   -0.100587
  10 C :   -0.056461
  11 N :   -0.084168
  12 C :   -0.005577
  13 C :   -0.027023
  14 H :    0.197764
  15 H :    0.197564
  16 H :    0.195511
  17 H :    0.203451
  18 H :    0.187404
  19 H :    0.187295
  20 C :   -0.057576
  21 C :   -0.108686
  22 C :   -0.126115
  23 C :   -0.060156
  24 C :   -0.140390
  25 C :   -0.127935
  26 H :    0.193121
  27 H :    0.186427
  28 H :    0.174932
  29 H :    0.178499
  30 C :   -0.034966
  31 C :   -0.077005
  32 C :   -0.117129
  33 C :   -0.028032
  34 N :   -0.073091
  35 C :   -0.028265
  36 H :    0.200391
  37 H :    0.202829
  38 H :    0.187513
  39 H :    0.187119
  40 C :   -0.015384
  41 C :   -0.026237
  42 C :   -0.040906
  43 C :   -0.087439
  44 C :   -0.094462
  45 C :   -0.111008
  46 C :   -0.015031
  47 C :   -0.104170
  48 C :   -0.058973
  49 N :   -0.083416
  50 C :   -0.002851
  51 C :   -0.029297
  52 H :    0.197198
  53 H :    0.197093
  54 H :    0.194662
  55 H :    0.201655
  56 H :    0.184821
  57 H :    0.188640
  58 C :   -0.058921
  59 C :   -0.110281
  60 C :   -0.129234
  61 C :   -0.064432
  62 C :   -0.141064
  63 C :   -0.122534
  64 H :    0.192960
  65 H :    0.185741
  66 H :    0.178317
  67 H :    0.181804
  68 C :   -0.035626
  69 C :   -0.075448
  70 C :   -0.115834
  71 C :   -0.026035
  72 N :   -0.073718
  73 C :   -0.032489
  74 H :    0.201270
  75 H :    0.204149
  76 H :    0.191464
  77 H :    0.186201
  78 C :   -0.015390
  79 C :   -0.024524
  80 C :   -0.041090
  81 C :   -0.088266
  82 C :   -0.095380
  83 C :   -0.110954
  84 C :   -0.014658
  85 C :   -0.104764
  86 C :   -0.056129
  87 N :   -0.082928
  88 C :   -0.002585
  89 C :   -0.028538
  90 H :    0.196456
  91 H :    0.196746
  92 H :    0.194555
  93 H :    0.201579
  94 H :    0.181831
  95 H :    0.189968
  96 C :   -0.054509
  97 C :   -0.127936
  98 C :   -0.144704
  99 C :   -0.063542
 100 C :   -0.122996
 101 C :   -0.105523
 102 H :    0.178819
 103 H :    0.176697
 104 H :    0.186618
 105 H :    0.193544
 106 C :   -0.034578
 107 C :   -0.076378
 108 C :   -0.117053
 109 C :   -0.029745
 110 N :   -0.076415
 111 C :   -0.035021
 112 H :    0.200930
 113 H :    0.203796
 114 H :    0.191502
 115 H :    0.182510
 116 C :   -0.011664
 117 C :   -0.027549
 118 C :   -0.039778
 119 C :   -0.087492
 120 C :   -0.094456
 121 C :   -0.111278
 122 C :   -0.014967
 123 C :   -0.104302
 124 C :   -0.061406
 125 N :   -0.083748
 126 C :   -0.002211
 127 C :   -0.029118
 128 H :    0.196743
 129 H :    0.197026
 130 H :    0.194542
 131 H :    0.201504
 132 H :    0.184229
 133 H :    0.187739
 134 C :   -0.054660
 135 C :   -0.128570
 136 C :   -0.145339
 137 C :   -0.060561
 138 C :   -0.119988
 139 C :   -0.103960
 140 H :    0.176560
 141 H :    0.171469
 142 H :    0.188023
 143 H :    0.193833
 144 C :   -0.033904
 145 C :   -0.073320
 146 C :   -0.116100
 147 C :   -0.026658
 148 N :   -0.073298
 149 C :   -0.032076
 150 H :    0.201027
 151 H :    0.204160
 152 H :    0.190785
 153 H :    0.187554

  Mayer bond orders larger than 0.100000
B(  0-Pd, 34-N ) :   0.5131 B(  0-Pd, 49-N ) :   0.5320 B(  0-Pd, 87-N ) :   0.5308
B(  0-Pd,125-N ) :   0.5320 B(  1-Pd, 11-N ) :   0.5482 B(  1-Pd, 72-N ) :   0.5520
B(  1-Pd,110-N ) :   0.4848 B(  1-Pd,148-N ) :   0.5486 B(  2-C ,  3-C ) :   1.8401
B(  2-C ,  4-C ) :  -0.2930 B(  2-C , 20-C ) :   1.6379 B(  2-C , 21-C ) :  -0.1059
B(  2-C , 25-C ) :  -0.1023 B(  3-C ,  4-C ) :   1.4796 B(  3-C ,  5-C ) :  -0.1122
B(  3-C ,  8-C ) :   0.1076 B(  3-C , 13-C ) :  -0.2555 B(  3-C , 20-C ) :  -0.4484
B(  4-C ,  5-C ) :   1.5671 B(  4-C , 13-C ) :   1.0602 B(  5-C ,  6-C ) :   1.4102
B(  5-C , 14-H ) :   0.8473 B(  6-C ,  7-C ) :   1.6366 B(  6-C , 15-H ) :   0.8700
B(  7-C ,  8-C ) :   1.3627 B(  7-C , 13-C ) :  -0.1209 B(  7-C , 16-H ) :   0.8556
B(  8-C ,  9-C ) :   1.2931 B(  8-C , 12-C ) :  -0.1350 B(  8-C , 13-C ) :   1.0576
B(  9-C , 10-C ) :   1.5611 B(  9-C , 17-H ) :   0.8746 B( 10-C , 11-N ) :   1.2443
B( 10-C , 18-H ) :   0.9189 B( 11-N , 12-C ) :   1.4274 B( 11-N ,110-N ) :   0.1091
B( 12-C , 13-C ) :   1.4242 B( 12-C , 19-H ) :   0.8806 B( 20-C , 21-C ) :   1.3674
B( 20-C , 23-C ) :   0.1024 B( 20-C , 25-C ) :   1.3338 B( 21-C , 22-C ) :   1.5984
B( 21-C , 26-H ) :   0.8786 B( 22-C , 23-C ) :   1.3690 B( 22-C , 27-H ) :   0.8518
B( 23-C , 24-C ) :   1.3414 B( 23-C , 30-C ) :   0.9277 B( 24-C , 25-C ) :   1.5841
B( 24-C , 28-H ) :   0.8610 B( 25-C , 29-H ) :   0.8945 B( 30-C , 31-C ) :   1.4455
B( 30-C , 35-C ) :   1.3470 B( 31-C , 32-C ) :   1.5197 B( 31-C , 36-H ) :   0.8737
B( 32-C , 33-C ) :   1.4555 B( 32-C , 37-H ) :   0.8642 B( 33-C , 34-N ) :   1.3653
B( 33-C , 38-H ) :   0.9163 B( 34-N , 35-C ) :   1.3836 B( 34-N , 87-N ) :   0.1000
B( 35-C , 39-H ) :   0.9245 B( 40-C , 41-C ) :   1.8744 B( 40-C , 42-C ) :  -0.2828
B( 40-C , 51-C ) :   0.1085 B( 40-C , 58-C ) :   1.6568 B( 40-C , 59-C ) :  -0.1087
B( 41-C , 42-C ) :   1.4777 B( 41-C , 46-C ) :   0.1001 B( 41-C , 51-C ) :  -0.2533
B( 41-C , 58-C ) :  -0.4129 B( 42-C , 43-C ) :   1.5748 B( 42-C , 50-C ) :  -0.1052
B( 42-C , 51-C ) :   1.0157 B( 43-C , 44-C ) :   1.4135 B( 43-C , 52-H ) :   0.8526
B( 44-C , 45-C ) :   1.6266 B( 44-C , 53-H ) :   0.8713 B( 45-C , 46-C ) :   1.3728
B( 45-C , 51-C ) :  -0.1283 B( 45-C , 54-H ) :   0.8593 B( 46-C , 47-C ) :   1.2616
B( 46-C , 50-C ) :  -0.1078 B( 46-C , 51-C ) :   1.0416 B( 47-C , 48-C ) :   1.5816
B( 47-C , 55-H ) :   0.8686 B( 48-C , 49-N ) :   1.2155 B( 48-C , 56-H ) :   0.9180
B( 49-N , 50-C ) :   1.4810 B( 50-C , 51-C ) :   1.3785 B( 50-C , 57-H ) :   0.8914
B( 58-C , 59-C ) :   1.3692 B( 58-C , 61-C ) :   0.1125 B( 58-C , 63-C ) :   1.3443
B( 59-C , 60-C ) :   1.5927 B( 59-C , 64-H ) :   0.8833 B( 60-C , 61-C ) :   1.3801
B( 60-C , 65-H ) :   0.8553 B( 61-C , 62-C ) :   1.3420 B( 61-C , 68-C ) :   0.9244
B( 62-C , 63-C ) :   1.5720 B( 62-C , 66-H ) :   0.8590 B( 63-C , 67-H ) :   0.8918
B( 68-C , 69-C ) :   1.4326 B( 68-C , 73-C ) :   1.3622 B( 69-C , 70-C ) :   1.4981
B( 69-C , 74-H ) :   0.8864 B( 70-C , 71-C ) :   1.4397 B( 70-C , 75-H ) :   0.8641
B( 71-C , 72-N ) :   1.4026 B( 71-C , 76-H ) :   0.9132 B( 72-N , 73-C ) :   1.3754
B( 73-C , 77-H ) :   0.9131 B( 78-C , 79-C ) :   1.8615 B( 78-C , 80-C ) :  -0.2826
B( 78-C , 89-C ) :   0.1037 B( 78-C , 96-C ) :   1.6479 B( 78-C , 97-C ) :  -0.1147
B( 78-C ,101-C ) :  -0.1072 B( 79-C , 80-C ) :   1.4795 B( 79-C , 84-C ) :   0.1037
B( 79-C , 89-C ) :  -0.2533 B( 79-C , 96-C ) :  -0.4299 B( 80-C , 81-C ) :   1.5563
B( 80-C , 88-C ) :  -0.1076 B( 80-C , 89-C ) :   1.0264 B( 81-C , 82-C ) :   1.4155
B( 81-C , 90-H ) :   0.8521 B( 82-C , 83-C ) :   1.6315 B( 82-C , 91-H ) :   0.8712
B( 83-C , 84-C ) :   1.3663 B( 83-C , 89-C ) :  -0.1279 B( 83-C , 92-H ) :   0.8580
B( 84-C , 85-C ) :   1.2858 B( 84-C , 88-C ) :  -0.1165 B( 84-C , 89-C ) :   1.0474
B( 85-C , 86-C ) :   1.6195 B( 85-C , 93-H ) :   0.8698 B( 86-C , 87-N ) :   1.2509
B( 86-C , 94-H ) :   0.8989 B( 87-N , 88-C ) :   1.4388 B( 88-C , 89-C ) :   1.3538
B( 88-C , 95-H ) :   0.9077 B( 96-C , 97-C ) :   1.3255 B( 96-C , 99-C ) :   0.1186
B( 96-C ,101-C ) :   1.3725 B( 97-C , 98-C ) :   1.5760 B( 97-C ,102-H ) :   0.8996
B( 98-C , 99-C ) :   1.3055 B( 98-C ,103-H ) :   0.8697 B( 98-C ,111-C ) :   0.1042
B( 99-C ,100-C ) :   1.3752 B( 99-C ,106-C ) :   0.9030 B(100-C ,101-C ) :   1.6109
B(100-C ,104-H ) :   0.8504 B(101-C ,105-H ) :   0.8771 B(106-C ,107-C ) :   1.4549
B(106-C ,111-C ) :   1.4197 B(107-C ,108-C ) :   1.4992 B(107-C ,112-H ) :   0.8740
B(108-C ,109-C ) :   1.4338 B(108-C ,113-H ) :   0.8655 B(109-C ,110-N ) :   1.3721
B(109-C ,114-H ) :   0.9196 B(110-N ,111-C ) :   1.3720 B(111-C ,115-H ) :   0.8905
B(116-C ,117-C ) :   1.8913 B(116-C ,118-C ) :  -0.2835 B(116-C ,127-C ) :   0.1084
B(116-C ,134-C ) :   1.6225 B(117-C ,118-C ) :   1.4437 B(117-C ,122-C ) :   0.1024
B(117-C ,127-C ) :  -0.2168 B(117-C ,134-C ) :  -0.4066 B(118-C ,119-C ) :   1.5433
B(118-C ,126-C ) :  -0.1240 B(118-C ,127-C ) :   1.0154 B(119-C ,120-C ) :   1.4224
B(119-C ,128-H ) :   0.8559 B(120-C ,121-C ) :   1.6244 B(120-C ,129-H ) :   0.8713
B(121-C ,122-C ) :   1.3665 B(121-C ,127-C ) :  -0.1300 B(121-C ,130-H ) :   0.8595
B(122-C ,123-C ) :   1.2656 B(122-C ,126-C ) :  -0.1088 B(122-C ,127-C ) :   1.0460
B(123-C ,124-C ) :   1.5842 B(123-C ,131-H ) :   0.8695 B(124-C ,125-N ) :   1.2120
B(124-C ,132-H ) :   0.9153 B(125-N ,126-C ) :   1.4786 B(126-C ,127-C ) :   1.3938
B(126-C ,133-H ) :   0.8931 B(134-C ,135-C ) :   1.3264 B(134-C ,137-C ) :   0.1059
B(134-C ,139-C ) :   1.3472 B(135-C ,136-C ) :   1.5737 B(135-C ,140-H ) :   0.9033
B(136-C ,137-C ) :   1.3042 B(136-C ,141-H ) :   0.8930 B(136-C ,149-C ) :   0.1139
B(137-C ,138-C ) :   1.3788 B(137-C ,144-C ) :   0.9124 B(138-C ,139-C ) :   1.5874
B(138-C ,142-H ) :   0.8556 B(139-C ,143-H ) :   0.8814 B(144-C ,145-C ) :   1.4632
B(144-C ,149-C ) :   1.3744 B(145-C ,146-C ) :   1.5089 B(145-C ,150-H ) :   0.8801
B(146-C ,147-C ) :   1.4371 B(146-C ,151-H ) :   0.8682 B(147-C ,148-N ) :   1.3977
B(147-C ,152-H ) :   0.9116 B(148-N ,149-C ) :   1.3505 B(149-C ,153-H ) :   0.9124

Dispersion correction           -0.591975156
FINAL SINGLE POINT ENERGY     -4078.561909575270

DIPOLE MOMENT
-------------
                                X             Y             Z
Electronic contribution:     20.98049     -48.62359     -12.33010
Nuclear contribution   :    -21.08106      47.81217      12.19127
                        -----------------------------------------
Total Dipole Moment    :     -0.10057      -0.81142      -0.13883
                        -----------------------------------------
Magnitude (a.u.)       :      0.82934
Magnitude (Debye)      :      2.10800

Rotational constants in cm-1:     0.000739     0.000356     0.000346
Rotational constants in MHz :    22.159322    10.680709    10.362337

                             ****ORCA TERMINATED NORMALLY****
TOTAL RUN TIME: 0 days 0 hours 8 minutes 32 seconds 493 msec
