                         Program Version 4.2.1 -  RELEASE  -
|  1> ! DFT SP RKS PBE0 def2-SVP D3BJ Grid6 NOFINALGRID SlowConv TightSCF printbasis
|  2>
|  3> %base "_s_4b3_b_PBE0"
|  4> %maxcore 3000
|  5> %scf
|  6>    MaxIter 2000
|  7> end
|  8> %pal
|  9>    nprocs 32
| 10> end
| 11>
| 12> * xyzfile 4 1 s_4b3_b.xyz
| 13>
| 14>                          ****END OF INPUT****

CARTESIAN COORDINATES (ANGSTROEM)
---------------------------------
  Pd    -0.781200    6.460500    0.771100
  Pd     2.971300   -6.917600   -0.294200
  C      6.599600   -2.427600    1.250800
  C      7.099200   -3.528200    1.191900
  C      7.713100   -4.793100    1.134800
  C      9.059700   -4.929500    1.419900
  C      9.682100   -6.181500    1.373600
  C      8.977000   -7.312400    1.043400
  C      7.605900   -7.222600    0.741100
  C      6.820600   -8.344700    0.389800
  C      5.495200   -8.185700    0.103100
  N      4.896000   -6.969900    0.141800
  C      5.593100   -5.900300    0.467200
  C      6.958900   -5.953500    0.783200
  H      9.636900   -4.056900    1.684900
  H     10.734300   -6.251000    1.603700
  H      9.462100   -8.275300    1.011000
  H      7.279500   -9.319700    0.351000
  H      4.857000   -9.025500   -0.170900
  H      5.070200   -4.946100    0.482500
  C      6.006100   -1.151400    1.302500
  C      4.612900   -1.021600    1.347400
  C      4.032300    0.226200    1.378700
  C      4.833500    1.374000    1.366000
  C      6.226900    1.246200    1.334400
  C      6.806900   -0.003300    1.302900
  H      4.000400   -1.909300    1.363300
  H      2.959000    0.330500    1.414900
  H      6.845200    2.131000    1.330700
  H      7.881300   -0.104100    1.274300
  C      4.237800    2.649500    1.381200
  C      3.701100    3.733200    1.385100
  C      3.108000    5.009800    1.397400
  C      3.869300    6.160300    1.651200
  C      3.243000    7.392800    1.656300
  C      1.880200    7.462200    1.406500
  N      1.159300    6.366500    1.161100
  C      1.740100    5.166600    1.155200
  H      4.927900    6.074000    1.840700
  H      3.801400    8.294100    1.850900
  H      1.351300    8.410800    1.401900
  H      1.095900    4.310300    0.951400
  C     -1.218100    1.759000    4.973700
  C     -1.584200    2.891200    5.193600
  C     -1.980300    4.174200    5.617600
  C     -2.499900    4.322800    6.892100
  C     -2.830800    5.583800    7.396200
  C     -2.633800    6.715400    6.644400
  C     -2.124400    6.609700    5.338200
  C     -1.893000    7.737600    4.518600
  C     -1.430700    7.567900    3.247700
  N     -1.204300    6.336600    2.717900
  C     -1.376300    5.262700    3.461700
  C     -1.814200    5.328200    4.795900
  H     -2.635900    3.449200    7.511100
  H     -3.230900    5.661100    8.395500
  H     -2.866100    7.690800    7.041800
  H     -2.086500    8.724100    4.908600
  H     -1.221900    8.421200    2.600100
  H     -1.174900    4.301200    2.999200
  C     -0.762100    0.446100    4.740500
  C      0.479200    0.227500    4.132400
  C      0.937400   -1.057100    3.941500
  C      0.162100   -2.149100    4.349900
  C     -1.074700   -1.930600    4.966100
  C     -1.531800   -0.645000    5.159700
  H      1.079100    1.072900    3.833800
  H      1.900900   -1.230600    3.488000
  H     -1.669100   -2.772900    5.285900
  H     -2.485100   -0.472700    5.635700
  C      0.616100   -3.458100    4.096700
  C      0.999300   -4.574800    3.834000
  C      1.420900   -5.839700    3.380500
  C      1.121100   -7.038100    4.043400
  C      1.518100   -8.234500    3.473300
  C      2.171200   -8.227400    2.247800
  N      2.459500   -7.085400    1.622500
  C      2.122200   -5.919900    2.175400
  H      0.584900   -7.018600    4.979400
  H      1.307800   -9.171800    3.962600
  H      2.472500   -9.143900    1.752200
  H      2.410100   -5.013300    1.639700
  C     -4.341700    1.751000   -0.505800
  C     -4.819900    2.861900   -0.462500
  C     -5.470300    4.108600   -0.434300
  C     -6.829800    4.167900   -0.688200
  C     -7.517300    5.385100   -0.667200
  C     -6.862200    6.559900   -0.393700
  C     -5.480100    6.548900   -0.132100
  C     -4.748900    7.722800    0.154300
  C     -3.408800    7.645900    0.397600
  N     -2.737000    6.469600    0.373400
  C     -3.384800    5.349900    0.110500
  C     -4.763700    5.316400   -0.150700
  H     -7.366800    3.256900   -0.903900
  H     -8.577400    5.392200   -0.869300
  H     -7.393500    7.498400   -0.376700
  H     -5.258400    8.672700    0.178100
  H     -2.823800    8.532900    0.621700
  H     -2.801900    4.430400    0.100100
  C     -3.799200    0.453800   -0.572200
  C     -4.585400   -0.594200   -1.068400
  C     -4.070700   -1.869200   -1.151100
  C     -2.757500   -2.121400   -0.739100
  C     -1.974100   -1.075500   -0.234900
  C     -2.488800    0.198500   -0.151900
  H     -5.596900   -0.394500   -1.388300
  H     -4.675900   -2.675900   -1.536200
  H     -0.966200   -1.281200    0.087000
  H     -1.890100    1.005300    0.239600
  C     -2.206400   -3.412800   -0.831400
  C     -1.703500   -4.510000   -0.908600
  C     -1.037600   -5.747400   -0.973900
  C     -1.679800   -6.948800   -1.303100
  C     -0.938500   -8.117000   -1.337200
  C      0.416700   -8.075600   -1.045500
  N      1.025600   -6.927300   -0.734000
  C      0.331400   -5.792900   -0.697500
  H     -2.735800   -6.954200   -1.524000
  H     -1.405200   -9.056200   -1.586800
  H      1.038800   -8.967100   -1.057600
  H      0.872400   -4.884600   -0.442200
  C      0.885800    3.056700   -4.335400
  C      0.589900    4.230100   -4.363600
  C      0.341900    5.602100   -4.551600
  C      0.438400    6.120700   -5.832700
  C      0.274300    7.486400   -6.077000
  C      0.028600    8.359200   -5.046100
  C     -0.088300    7.876000   -3.731200
  C     -0.326500    8.728300   -2.629300
  C     -0.453900    8.199800   -1.379700
  N     -0.387100    6.861700   -1.147800
  C     -0.140500    6.037500   -2.146200
  C      0.042900    6.480900   -3.467600
  H      0.656400    5.455800   -6.654300
  H      0.357000    7.853100   -7.088600
  H     -0.076500    9.416800   -5.229900
  H     -0.403600    9.791800   -2.789700
  H     -0.615500    8.837600   -0.508600
  H     -0.089400    4.978500   -1.913800
  C      1.264200    1.701100   -4.302200
  C      1.563100    1.070100   -3.089300
  C      1.965400   -0.245600   -3.078500
  C      2.075000   -0.962200   -4.277400
  C      1.775200   -0.333300   -5.490300
  C      1.374700    0.985300   -5.501400
  H      1.485900    1.626500   -2.169400
  H      2.204400   -0.737500   -2.149800
  H      1.860200   -0.883300   -6.415300
  H      1.145200    1.474400   -6.436000
  C      2.467400   -2.312700   -4.223900
  C      2.787100   -3.474200   -4.114200
  C      3.075100   -4.829000   -3.864800
  C      3.215600   -5.792000   -4.874100
  C      3.423600   -7.111600   -4.514300
  C      3.459700   -7.459000   -3.170300
  N      3.336100   -6.539100   -2.212600
  C      3.172200   -5.256800   -2.537900
  H      3.153900   -5.501400   -5.911300
  H      3.539400   -7.873900   -5.267700
  H      3.590900   -8.485900   -2.846500
  H      3.111600   -4.537200   -1.719200

 Total Charge           Charge          ....    4
 Multiplicity           Mult            ....    1
 Number of Electrons    NEL             ....  720
 Basis Dimension        Dim             .... 1798

ORBITAL ENERGIES
----------------

  NO   OCC          E(Eh)            E(eV)
   0   2.0000     -14.749613      -401.3574
   1   2.0000     -14.748647      -401.3311
   2   2.0000     -14.747687      -401.3050
   3   2.0000     -14.746918      -401.2840
   4   2.0000     -14.737638      -401.0315
   5   2.0000     -14.734714      -400.9520
   6   2.0000     -14.734126      -400.9360
   7   2.0000     -14.733156      -400.9095
   8   2.0000     -10.582867      -287.9745
   9   2.0000     -10.582776      -287.9720
  10   2.0000     -10.581036      -287.9246
  11   2.0000     -10.580626      -287.9135
  12   2.0000     -10.577307      -287.8231
  13   2.0000     -10.575999      -287.7876
  14   2.0000     -10.574663      -287.7512
  15   2.0000     -10.574146      -287.7371
  16   2.0000     -10.573361      -287.7158
  17   2.0000     -10.572915      -287.7036
  18   2.0000     -10.572252      -287.6856
  19   2.0000     -10.570957      -287.6504
  20   2.0000     -10.561982      -287.4061
  21   2.0000     -10.561569      -287.3949
  22   2.0000     -10.560680      -287.3707
  23   2.0000     -10.559453      -287.3373
  24   2.0000     -10.558481      -287.3109
  25   2.0000     -10.558331      -287.3068
  26   2.0000     -10.558007      -287.2980
  27   2.0000     -10.555941      -287.2418
  28   2.0000     -10.544963      -286.9430
  29   2.0000     -10.544156      -286.9211
  30   2.0000     -10.543030      -286.8904
  31   2.0000     -10.542098      -286.8651
  32   2.0000     -10.536860      -286.7225
  33   2.0000     -10.535583      -286.6878
  34   2.0000     -10.534256      -286.6517
  35   2.0000     -10.533852      -286.6407
  36   2.0000     -10.532484      -286.6035
  37   2.0000     -10.532481      -286.6034
  38   2.0000     -10.532132      -286.5939
  39   2.0000     -10.532132      -286.5939
  40   2.0000     -10.531925      -286.5882
  41   2.0000     -10.531584      -286.5790
  42   2.0000     -10.531579      -286.5788
  43   2.0000     -10.530922      -286.5610
  44   2.0000     -10.529993      -286.5357
  45   2.0000     -10.529675      -286.5270
  46   2.0000     -10.529056      -286.5102
  47   2.0000     -10.528684      -286.5001
  48   2.0000     -10.525072      -286.4018
  49   2.0000     -10.524868      -286.3962
  50   2.0000     -10.523480      -286.3584
  51   2.0000     -10.523262      -286.3525
  52   2.0000     -10.522775      -286.3393
  53   2.0000     -10.522305      -286.3265
  54   2.0000     -10.521760      -286.3117
  55   2.0000     -10.521619      -286.3078
  56   2.0000     -10.521470      -286.3038
  57   2.0000     -10.521339      -286.3002
  58   2.0000     -10.519790      -286.2580
  59   2.0000     -10.519755      -286.2571
  60   2.0000     -10.514471      -286.1133
  61   2.0000     -10.513604      -286.0897
  62   2.0000     -10.513312      -286.0818
  63   2.0000     -10.511093      -286.0214
  64   2.0000     -10.510397      -286.0024
  65   2.0000     -10.509014      -285.9648
  66   2.0000     -10.507717      -285.9295
  67   2.0000     -10.506216      -285.8887
  68   2.0000     -10.505734      -285.8755
  69   2.0000     -10.505664      -285.8736
  70   2.0000     -10.505598      -285.8719
  71   2.0000     -10.505297      -285.8637
  72   2.0000     -10.505135      -285.8593
  73   2.0000     -10.504951      -285.8543
  74   2.0000     -10.504623      -285.8453
  75   2.0000     -10.504087      -285.8307
  76   2.0000     -10.503686      -285.8198
  77   2.0000     -10.503553      -285.8162
  78   2.0000     -10.503073      -285.8032
  79   2.0000     -10.501888      -285.7709
  80   2.0000     -10.501869      -285.7704
  81   2.0000     -10.501536      -285.7613
  82   2.0000     -10.501162      -285.7511
  83   2.0000     -10.500884      -285.7436
  84   2.0000     -10.500844      -285.7425
  85   2.0000     -10.500830      -285.7421
  86   2.0000     -10.500532      -285.7340
  87   2.0000     -10.500513      -285.7335
  88   2.0000     -10.500193      -285.7248
  89   2.0000     -10.500092      -285.7220
  90   2.0000     -10.499673      -285.7106
  91   2.0000     -10.499430      -285.7040
  92   2.0000     -10.499000      -285.6923
  93   2.0000     -10.498962      -285.6913
  94   2.0000     -10.498757      -285.6857
  95   2.0000     -10.497890      -285.6621
  96   2.0000     -10.497819      -285.6602
  97   2.0000     -10.497475      -285.6508
  98   2.0000     -10.496948      -285.6365
  99   2.0000     -10.496678      -285.6291
 100   2.0000     -10.495916      -285.6084
 101   2.0000     -10.495859      -285.6068
 102   2.0000     -10.494993      -285.5833
 103   2.0000     -10.494629      -285.5734
 104   2.0000      -3.845211      -104.6335
 105   2.0000      -3.836960      -104.4090
 106   2.0000      -2.522759       -68.6478
 107   2.0000      -2.522377       -68.6374
 108   2.0000      -2.514530       -68.4238
 109   2.0000      -2.513735       -68.4022
 110   2.0000      -2.485911       -67.6451
 111   2.0000      -2.477672       -67.4209
 112   2.0000      -1.302732       -35.4491
 113   2.0000      -1.295951       -35.2646
 114   2.0000      -1.295338       -35.2479
 115   2.0000      -1.294339       -35.2207
 116   2.0000      -1.283621       -34.9291
 117   2.0000      -1.283526       -34.9265
 118   2.0000      -1.279116       -34.8065
 119   2.0000      -1.277891       -34.7732
 120   2.0000      -1.163972       -31.6733
 121   2.0000      -1.163870       -31.6705
 122   2.0000      -1.162845       -31.6426
 123   2.0000      -1.162485       -31.6328
 124   2.0000      -1.158825       -31.5332
 125   2.0000      -1.155686       -31.4478
 126   2.0000      -1.155474       -31.4420
 127   2.0000      -1.153573       -31.3903
 128   2.0000      -1.139987       -31.0206
 129   2.0000      -1.138211       -30.9723
 130   2.0000      -1.137748       -30.9597
 131   2.0000      -1.136197       -30.9175
 132   2.0000      -1.102388       -29.9975
 133   2.0000      -1.101690       -29.9785
 134   2.0000      -1.101156       -29.9640
 135   2.0000      -1.100646       -29.9501
 136   2.0000      -1.099943       -29.9310
 137   2.0000      -1.098598       -29.8944
 138   2.0000      -1.097843       -29.8738
 139   2.0000      -1.097055       -29.8524
 140   2.0000      -1.084781       -29.5184
 141   2.0000      -1.083001       -29.4700
 142   2.0000      -1.082522       -29.4569
 143   2.0000      -1.080994       -29.4153
 144   2.0000      -1.068473       -29.0746
 145   2.0000      -1.067963       -29.0607
 146   2.0000      -1.066632       -29.0245
 147   2.0000      -1.065946       -29.0059
 148   2.0000      -1.054681       -28.6993
 149   2.0000      -1.054323       -28.6896
 150   2.0000      -1.053542       -28.6683
 151   2.0000      -1.052391       -28.6370
 152   2.0000      -1.035585       -28.1797
 153   2.0000      -1.031832       -28.0776
 154   2.0000      -1.031607       -28.0715
 155   2.0000      -1.030913       -28.0526
 156   2.0000      -1.030152       -28.0319
 157   2.0000      -1.029697       -28.0195
 158   2.0000      -1.029281       -28.0082
 159   2.0000      -1.027724       -27.9658
 160   2.0000      -1.000904       -27.2360
 161   2.0000      -0.999905       -27.2088
 162   2.0000      -0.999139       -27.1880
 163   2.0000      -0.997849       -27.1528
 164   2.0000      -0.967828       -26.3359
 165   2.0000      -0.966364       -26.2961
 166   2.0000      -0.965843       -26.2819
 167   2.0000      -0.963789       -26.2260
 168   2.0000      -0.956314       -26.0226
 169   2.0000      -0.955169       -25.9915
 170   2.0000      -0.953928       -25.9577
 171   2.0000      -0.951651       -25.8958
 172   2.0000      -0.950400       -25.8617
 173   2.0000      -0.948067       -25.7982
 174   2.0000      -0.946969       -25.7683
 175   2.0000      -0.945592       -25.7309
 176   2.0000      -0.934767       -25.4363
 177   2.0000      -0.933443       -25.4003
 178   2.0000      -0.932299       -25.3692
 179   2.0000      -0.931736       -25.3538
 180   2.0000      -0.922218       -25.0948
 181   2.0000      -0.920822       -25.0569
 182   2.0000      -0.919912       -25.0321
 183   2.0000      -0.919030       -25.0081
 184   2.0000      -0.900717       -24.5098
 185   2.0000      -0.899607       -24.4796
 186   2.0000      -0.898637       -24.4532
 187   2.0000      -0.897989       -24.4355
 188   2.0000      -0.894372       -24.3371
 189   2.0000      -0.890740       -24.2383
 190   2.0000      -0.890623       -24.2351
 191   2.0000      -0.888745       -24.1840
 192   2.0000      -0.874868       -23.8064
 193   2.0000      -0.867531       -23.6067
 194   2.0000      -0.866349       -23.5746
 195   2.0000      -0.860155       -23.4060
 196   2.0000      -0.845688       -23.0123
 197   2.0000      -0.843208       -22.9449
 198   2.0000      -0.840520       -22.8717
 199   2.0000      -0.839684       -22.8490
 200   2.0000      -0.827417       -22.5152
 201   2.0000      -0.826395       -22.4874
 202   2.0000      -0.825314       -22.4579
 203   2.0000      -0.824085       -22.4245
 204   2.0000      -0.823499       -22.4086
 205   2.0000      -0.822683       -22.3864
 206   2.0000      -0.822175       -22.3725
 207   2.0000      -0.820569       -22.3288
 208   2.0000      -0.818216       -22.2648
 209   2.0000      -0.817135       -22.2354
 210   2.0000      -0.816900       -22.2290
 211   2.0000      -0.814983       -22.1768
 212   2.0000      -0.811529       -22.0828
 213   2.0000      -0.808500       -22.0004
 214   2.0000      -0.807558       -21.9748
 215   2.0000      -0.805854       -21.9284
 216   2.0000      -0.804583       -21.8938
 217   2.0000      -0.804423       -21.8895
 218   2.0000      -0.802534       -21.8381
 219   2.0000      -0.799355       -21.7516
 220   2.0000      -0.787121       -21.4187
 221   2.0000      -0.786063       -21.3899
 222   2.0000      -0.784593       -21.3499
 223   2.0000      -0.783456       -21.3189
 224   2.0000      -0.778949       -21.1963
 225   2.0000      -0.769280       -20.9332
 226   2.0000      -0.767876       -20.8950
 227   2.0000      -0.767563       -20.8865
 228   2.0000      -0.766361       -20.8538
 229   2.0000      -0.764461       -20.8020
 230   2.0000      -0.762565       -20.7505
 231   2.0000      -0.757433       -20.6108
 232   2.0000      -0.754505       -20.5311
 233   2.0000      -0.753981       -20.5169
 234   2.0000      -0.753087       -20.4925
 235   2.0000      -0.751149       -20.4398
 236   2.0000      -0.750027       -20.4093
 237   2.0000      -0.749588       -20.3973
 238   2.0000      -0.749352       -20.3909
 239   2.0000      -0.748508       -20.3679
 240   2.0000      -0.747818       -20.3492
 241   2.0000      -0.747617       -20.3437
 242   2.0000      -0.746348       -20.3092
 243   2.0000      -0.745354       -20.2821
 244   2.0000      -0.744110       -20.2483
 245   2.0000      -0.741210       -20.1694
 246   2.0000      -0.740992       -20.1634
 247   2.0000      -0.739901       -20.1337
 248   2.0000      -0.737765       -20.0756
 249   2.0000      -0.734005       -19.9733
 250   2.0000      -0.726721       -19.7751
 251   2.0000      -0.726169       -19.7601
 252   2.0000      -0.724176       -19.7058
 253   2.0000      -0.723067       -19.6757
 254   2.0000      -0.721195       -19.6247
 255   2.0000      -0.720643       -19.6097
 256   2.0000      -0.720389       -19.6028
 257   2.0000      -0.719019       -19.5655
 258   2.0000      -0.718929       -19.5631
 259   2.0000      -0.716432       -19.4951
 260   2.0000      -0.716014       -19.4837
 261   2.0000      -0.712136       -19.3782
 262   2.0000      -0.711699       -19.3663
 263   2.0000      -0.710119       -19.3233
 264   2.0000      -0.705420       -19.1955
 265   2.0000      -0.702752       -19.1228
 266   2.0000      -0.700931       -19.0733
 267   2.0000      -0.699599       -19.0371
 268   2.0000      -0.698784       -19.0149
 269   2.0000      -0.695083       -18.9142
 270   2.0000      -0.690787       -18.7973
 271   2.0000      -0.690386       -18.7864
 272   2.0000      -0.688775       -18.7425
 273   2.0000      -0.687600       -18.7105
 274   2.0000      -0.687501       -18.7079
 275   2.0000      -0.685069       -18.6417
 276   2.0000      -0.679023       -18.4772
 277   2.0000      -0.678094       -18.4519
 278   2.0000      -0.677328       -18.4310
 279   2.0000      -0.677009       -18.4223
 280   2.0000      -0.675912       -18.3925
 281   2.0000      -0.674380       -18.3508
 282   2.0000      -0.673773       -18.3343
 283   2.0000      -0.671509       -18.2727
 284   2.0000      -0.670662       -18.2496
 285   2.0000      -0.667049       -18.1513
 286   2.0000      -0.661802       -18.0085
 287   2.0000      -0.658347       -17.9145
 288   2.0000      -0.656221       -17.8567
 289   2.0000      -0.653759       -17.7897
 290   2.0000      -0.653337       -17.7782
 291   2.0000      -0.652896       -17.7662
 292   2.0000      -0.652386       -17.7523
 293   2.0000      -0.650958       -17.7135
 294   2.0000      -0.648985       -17.6598
 295   2.0000      -0.645317       -17.5600
 296   2.0000      -0.641432       -17.4542
 297   2.0000      -0.638119       -17.3641
 298   2.0000      -0.636264       -17.3136
 299   2.0000      -0.634601       -17.2684
 300   2.0000      -0.632175       -17.2023
 301   2.0000      -0.631617       -17.1872
 302   2.0000      -0.631406       -17.1814
 303   2.0000      -0.631128       -17.1739
 304   2.0000      -0.630637       -17.1605
 305   2.0000      -0.630213       -17.1490
 306   2.0000      -0.628604       -17.1052
 307   2.0000      -0.627645       -17.0791
 308   2.0000      -0.626056       -17.0358
 309   2.0000      -0.625677       -17.0255
 310   2.0000      -0.620014       -16.8714
 311   2.0000      -0.617547       -16.8043
 312   2.0000      -0.616591       -16.7783
 313   2.0000      -0.614924       -16.7329
 314   2.0000      -0.613781       -16.7018
 315   2.0000      -0.611926       -16.6514
 316   2.0000      -0.610355       -16.6086
 317   2.0000      -0.609851       -16.5949
 318   2.0000      -0.608287       -16.5523
 319   2.0000      -0.604972       -16.4621
 320   2.0000      -0.604330       -16.4447
 321   2.0000      -0.599926       -16.3248
 322   2.0000      -0.596200       -16.2234
 323   2.0000      -0.593693       -16.1552
 324   2.0000      -0.591562       -16.0972
 325   2.0000      -0.587527       -15.9874
 326   2.0000      -0.585089       -15.9211
 327   2.0000      -0.584186       -15.8965
 328   2.0000      -0.583084       -15.8665
 329   2.0000      -0.580073       -15.7846
 330   2.0000      -0.567380       -15.4392
 331   2.0000      -0.561909       -15.2903
 332   2.0000      -0.560403       -15.2493
 333   2.0000      -0.558162       -15.1884
 334   2.0000      -0.557558       -15.1719
 335   2.0000      -0.555849       -15.1254
 336   2.0000      -0.555000       -15.1023
 337   2.0000      -0.553298       -15.0560
 338   2.0000      -0.552552       -15.0357
 339   2.0000      -0.552054       -15.0222
 340   2.0000      -0.550535       -14.9808
 341   2.0000      -0.549656       -14.9569
 342   2.0000      -0.549493       -14.9525
 343   2.0000      -0.547928       -14.9099
 344   2.0000      -0.546685       -14.8760
 345   2.0000      -0.546568       -14.8729
 346   2.0000      -0.544922       -14.8281
 347   2.0000      -0.543363       -14.7856
 348   2.0000      -0.536397       -14.5961
 349   2.0000      -0.532679       -14.4949
 350   2.0000      -0.532612       -14.4931
 351   2.0000      -0.530174       -14.4268
 352   2.0000      -0.517908       -14.0930
 353   2.0000      -0.516520       -14.0552
 354   2.0000      -0.514479       -13.9997
 355   2.0000      -0.511146       -13.9090
 356   2.0000      -0.482650       -13.1336
 357   2.0000      -0.480761       -13.0822
 358   2.0000      -0.478591       -13.0231
 359   2.0000      -0.476941       -12.9782
 360   0.0000      -0.351318        -9.5598
 361   0.0000      -0.348476        -9.4825
 362   0.0000      -0.348007        -9.4697
 363   0.0000      -0.343730        -9.3534
 364   0.0000      -0.341560        -9.2943

MULLIKEN ATOMIC CHARGES
-----------------------
   0 Pd:    0.405167
   1 Pd:    0.393537
   2 C :    0.009761
   3 C :   -0.053983
   4 C :   -0.005297
   5 C :    0.028865
   6 C :    0.032431
   7 C :    0.022437
   8 C :    0.029468
   9 C :    0.003303
  10 C :    0.120209
  11 N :   -0.305710
  12 C :    0.170667
  13 C :   -0.013240
  14 H :    0.055506
  15 H :    0.078009
  16 H :    0.055649
  17 H :    0.064482
  18 H :    0.081251
  19 H :    0.042003
  20 C :   -0.045146
  21 C :    0.011610
  22 C :    0.016673
  23 C :   -0.061740
  24 C :    0.038851
  25 C :    0.035172
  26 H :   -0.002504
  27 H :    0.005551
  28 H :    0.049040
  29 H :    0.052791
  30 C :    0.029179
  31 C :   -0.020035
  32 C :   -0.103169
  33 C :    0.111994
  34 C :   -0.024189
  35 C :    0.142226
  36 N :   -0.298164
  37 C :    0.162299
  38 H :    0.075626
  39 H :    0.085296
  40 H :    0.082521
  41 H :    0.063490
  42 C :    0.029241
  43 C :   -0.072150
  44 C :   -0.013189
  45 C :    0.028418
  46 C :    0.031676
  47 C :    0.019986
  48 C :    0.026682
  49 C :    0.002746
  50 C :    0.120110
  51 N :   -0.314149
  52 C :    0.161502
  53 C :   -0.006656
  54 H :    0.054310
  55 H :    0.076287
  56 H :    0.053458
  57 H :    0.060646
  58 H :    0.071550
  59 H :    0.049147
  60 C :   -0.063802
  61 C :    0.017236
  62 C :    0.014209
  63 C :   -0.065452
  64 C :    0.036869
  65 C :    0.032456
  66 H :    0.017340
  67 H :    0.014184
  68 H :    0.046618
  69 H :    0.048237
  70 C :    0.043194
  71 C :   -0.022932
  72 C :   -0.104195
  73 C :    0.119359
  74 C :   -0.027341
  75 C :    0.136947
  76 N :   -0.301501
  77 C :    0.154306
  78 H :    0.078647
  79 H :    0.088188
  80 H :    0.088904
  81 H :    0.058543
  82 C :    0.018201
  83 C :   -0.065334
  84 C :   -0.007552
  85 C :    0.024051
  86 C :    0.032155
  87 C :    0.019892
  88 C :    0.027887
  89 C :   -0.004369
  90 C :    0.134609
  91 N :   -0.309194
  92 C :    0.159520
  93 C :   -0.003119
  94 H :    0.052253
  95 H :    0.075548
  96 H :    0.053188
  97 H :    0.060288
  98 H :    0.057417
  99 H :    0.059499
 100 C :   -0.048795
 101 C :    0.030033
 102 C :    0.039425
 103 C :   -0.068011
 104 C :    0.030037
 105 C :    0.021319
 106 H :    0.049542
 107 H :    0.048496
 108 H :    0.004849
 109 H :    0.001316
 110 C :    0.037093
 111 C :   -0.014027
 112 C :   -0.107069
 113 C :    0.114204
 114 C :   -0.022508
 115 C :    0.126479
 116 N :   -0.304697
 117 C :    0.166980
 118 H :    0.076817
 119 H :    0.085927
 120 H :    0.096730
 121 H :    0.045077
 122 C :    0.030155
 123 C :   -0.076806
 124 C :   -0.008126
 125 C :    0.025071
 126 C :    0.032773
 127 C :    0.018909
 128 C :    0.026933
 129 C :    0.002941
 130 C :    0.117962
 131 N :   -0.314650
 132 C :    0.162760
 133 C :   -0.007439
 134 H :    0.052565
 135 H :    0.075742
 136 H :    0.053180
 137 H :    0.060216
 138 H :    0.070510
 139 H :    0.051305
 140 C :   -0.051124
 141 C :    0.025974
 142 C :    0.025884
 143 C :   -0.064514
 144 C :    0.040904
 145 C :    0.030337
 146 H :    0.001749
 147 H :    0.002139
 148 H :    0.049460
 149 H :    0.049172
 150 C :    0.044409
 151 C :   -0.024404
 152 C :   -0.101717
 153 C :    0.118449
 154 C :   -0.027564
 155 C :    0.135026
 156 N :   -0.300760
 157 C :    0.152823
 158 H :    0.077814
 159 H :    0.087558
 160 H :    0.087174
 161 H :    0.061532
Sum of atomic charges:    4.0000000

LOEWDIN ATOMIC CHARGES
----------------------
   0 Pd:   -0.348343
   1 Pd:   -0.345447
   2 C :   -0.008793
   3 C :   -0.024283
   4 C :   -0.027339
   5 C :    0.039398
   6 C :    0.034140
   7 C :    0.013861
   8 C :    0.010362
   9 C :    0.020351
  10 C :    0.040812
  11 N :    0.064376
  12 C :    0.092538
  13 C :   -0.017592
  14 H :    0.058493
  15 H :    0.062335
  16 H :    0.055850
  17 H :    0.063546
  18 H :    0.056674
  19 H :    0.048418
  20 C :   -0.034576
  21 C :   -0.010934
  22 C :   -0.005298
  23 C :   -0.049464
  24 C :    0.024651
  25 C :    0.022607
  26 H :    0.029595
  27 H :    0.033052
  28 H :    0.053599
  29 H :    0.055369
  30 C :    0.023539
  31 C :   -0.050304
  32 C :   -0.035591
  33 C :    0.069301
  34 C :    0.005597
  35 C :    0.073225
  36 N :    0.076762
  37 C :    0.079381
  38 H :    0.065002
  39 H :    0.067391
  40 H :    0.056736
  41 H :    0.055939
  42 C :   -0.004173
  43 C :   -0.032994
  44 C :   -0.026141
  45 C :    0.037433
  46 C :    0.032596
  47 C :    0.011003
  48 C :    0.009256
  49 C :    0.017336
  50 C :    0.038024
  51 N :    0.059123
  52 C :    0.093819
  53 C :   -0.020636
  54 H :    0.057952
  55 H :    0.061545
  56 H :    0.054730
  57 H :    0.061961
  58 H :    0.054377
  59 H :    0.049450
  60 C :   -0.039309
  61 C :   -0.003220
  62 C :   -0.001158
  63 C :   -0.050742
  64 C :    0.020623
  65 C :    0.017730
  66 H :    0.038481
  67 H :    0.037047
  68 H :    0.052306
  69 H :    0.052979
  70 C :    0.028597
  71 C :   -0.051070
  72 C :   -0.032620
  73 C :    0.070307
  74 C :    0.006483
  75 C :    0.072775
  76 N :    0.071468
  77 C :    0.078648
  78 H :    0.066566
  79 H :    0.068281
  80 H :    0.058317
  81 H :    0.053787
  82 C :   -0.005970
  83 C :   -0.029100
  84 C :   -0.026930
  85 C :    0.036355
  86 C :    0.031460
  87 C :    0.011217
  88 C :    0.009623
  89 C :    0.016048
  90 C :    0.040955
  91 N :    0.060969
  92 C :    0.094685
  93 C :   -0.019839
  94 H :    0.056944
  95 H :    0.061238
  96 H :    0.054665
  97 H :    0.061709
  98 H :    0.049049
  99 H :    0.052553
 100 C :   -0.035423
 101 C :    0.019690
 102 C :    0.022987
 103 C :   -0.050629
 104 C :    0.003385
 105 C :   -0.005258
 106 H :    0.053602
 107 H :    0.053275
 108 H :    0.034717
 109 H :    0.033184
 110 C :    0.030521
 111 C :   -0.052239
 112 C :   -0.032637
 113 C :    0.068359
 114 C :    0.004948
 115 C :    0.067147
 116 N :    0.068476
 117 C :    0.077218
 118 H :    0.065808
 119 H :    0.067756
 120 H :    0.059554
 121 H :    0.050078
 122 C :   -0.001514
 123 C :   -0.033439
 124 C :   -0.025243
 125 C :    0.037096
 126 C :    0.032210
 127 C :    0.010580
 128 C :    0.009208
 129 C :    0.016978
 130 C :    0.036642
 131 N :    0.058212
 132 C :    0.094960
 133 C :   -0.020781
 134 H :    0.057103
 135 H :    0.061411
 136 H :    0.054561
 137 H :    0.061765
 138 H :    0.053900
 139 H :    0.049752
 140 C :   -0.036144
 141 C :   -0.003495
 142 C :    0.002265
 143 C :   -0.049367
 144 C :    0.023264
 145 C :    0.020029
 146 H :    0.033679
 147 H :    0.033429
 148 H :    0.053779
 149 H :    0.053337
 150 C :    0.030496
 151 C :   -0.051283
 152 C :   -0.032021
 153 C :    0.069344
 154 C :    0.006043
 155 C :    0.070327
 156 N :    0.072023
 157 C :    0.078265
 158 H :    0.066228
 159 H :    0.068003
 160 H :    0.057679
 161 H :    0.054698

  Mayer bond orders larger than 0.100000
B(  0-Pd, 36-N ) :   0.5332 B(  0-Pd, 51-N ) :   0.5425 B(  0-Pd, 91-N ) :   0.5509
B(  0-Pd,131-N ) :   0.5401 B(  1-Pd, 11-N ) :   0.5732 B(  1-Pd, 76-N ) :   0.5384
B(  1-Pd,116-N ) :   0.5279 B(  1-Pd,156-N ) :   0.5414 B(  2-C ,  3-C ) :   2.5835
B(  2-C , 20-C ) :   1.0189 B(  3-C ,  4-C ) :   1.0036 B(  4-C ,  5-C ) :   1.4502
B(  4-C , 13-C ) :   1.2119 B(  5-C ,  6-C ) :   1.2664 B(  5-C , 14-H ) :   0.9927
B(  6-C ,  7-C ) :   1.4550 B(  6-C , 15-H ) :   0.9804 B(  7-C ,  8-C ) :   1.2674
B(  7-C , 16-H ) :   0.9945 B(  8-C ,  9-C ) :   1.2494 B(  8-C , 13-C ) :   1.2200
B(  9-C , 10-C ) :   1.5518 B(  9-C , 17-H ) :   0.9736 B( 10-C , 11-N ) :   1.1921
B( 10-C , 18-H ) :   0.9471 B( 11-N , 12-C ) :   1.3998 B( 12-C , 13-C ) :   1.3395
B( 12-C , 19-H ) :   0.9358 B( 20-C , 21-C ) :   1.3235 B( 20-C , 25-C ) :   1.3219
B( 21-C , 22-C ) :   1.3975 B( 21-C , 26-H ) :   0.9905 B( 22-C , 23-C ) :   1.3205
B( 22-C , 27-H ) :   0.9900 B( 23-C , 24-C ) :   1.3157 B( 23-C , 30-C ) :   1.0259
B( 24-C , 25-C ) :   1.4011 B( 24-C , 28-H ) :   0.9947 B( 25-C , 29-H ) :   0.9943
B( 30-C , 31-C ) :   2.5911 B( 31-C , 32-C ) :   1.0193 B( 32-C , 33-C ) :   1.3404
B( 32-C , 37-C ) :   1.3628 B( 33-C , 34-C ) :   1.4083 B( 33-C , 38-H ) :   0.9865
B( 34-C , 35-C ) :   1.4174 B( 34-C , 39-H ) :   0.9722 B( 35-C , 36-N ) :   1.3248
B( 35-C , 40-H ) :   0.9528 B( 36-N , 37-C ) :   1.3314 B( 37-C , 41-H ) :   0.9646
B( 42-C , 43-C ) :   2.5930 B( 42-C , 60-C ) :   1.0128 B( 43-C , 44-C ) :   1.0059
B( 44-C , 45-C ) :   1.4590 B( 44-C , 53-C ) :   1.2099 B( 45-C , 46-C ) :   1.2695
B( 45-C , 54-H ) :   0.9921 B( 46-C , 47-C ) :   1.4510 B( 46-C , 55-H ) :   0.9812
B( 47-C , 48-C ) :   1.2714 B( 47-C , 56-H ) :   0.9950 B( 48-C , 49-C ) :   1.2470
B( 48-C , 53-C ) :   1.2179 B( 49-C , 50-C ) :   1.5616 B( 49-C , 57-H ) :   0.9731
B( 50-C , 51-N ) :   1.1803 B( 50-C , 58-H ) :   0.9418 B( 51-N , 52-C ) :   1.4291
B( 52-C , 53-C ) :   1.3236 B( 52-C , 59-H ) :   0.9433 B( 60-C , 61-C ) :   1.3249
B( 60-C , 65-C ) :   1.3243 B( 61-C , 62-C ) :   1.3995 B( 61-C , 66-H ) :   0.9934
B( 62-C , 63-C ) :   1.3198 B( 62-C , 67-H ) :   0.9916 B( 63-C , 64-C ) :   1.3195
B( 63-C , 70-C ) :   1.0238 B( 64-C , 65-C ) :   1.3993 B( 64-C , 68-H ) :   0.9950
B( 65-C , 69-H ) :   0.9941 B( 70-C , 71-C ) :   2.5893 B( 71-C , 72-C ) :   1.0223
B( 72-C , 73-C ) :   1.3324 B( 72-C , 77-C ) :   1.3834 B( 73-C , 74-C ) :   1.4040
B( 73-C , 78-H ) :   0.9866 B( 74-C , 75-C ) :   1.4132 B( 74-C , 79-H ) :   0.9717
B( 75-C , 76-N ) :   1.3310 B( 75-C , 80-H ) :   0.9567 B( 76-N , 77-C ) :   1.3172
B( 77-C , 81-H ) :   0.9579 B( 82-C , 83-C ) :   2.5836 B( 82-C ,100-C ) :   1.0204
B( 83-C , 84-C ) :   1.0081 B( 84-C , 85-C ) :   1.4528 B( 84-C , 93-C ) :   1.2070
B( 85-C , 86-C ) :   1.2683 B( 85-C , 94-H ) :   0.9925 B( 86-C , 87-C ) :   1.4530
B( 86-C , 95-H ) :   0.9813 B( 87-C , 88-C ) :   1.2672 B( 87-C , 96-H ) :   0.9948
B( 88-C , 89-C ) :   1.2512 B( 88-C , 93-C ) :   1.2177 B( 89-C , 90-C ) :   1.5558
B( 89-C , 97-H ) :   0.9743 B( 90-C , 91-N ) :   1.2017 B( 90-C , 98-H ) :   0.9477
B( 91-N , 92-C ) :   1.4045 B( 92-C , 93-C ) :   1.3339 B( 92-C , 99-H ) :   0.9369
B(100-C ,101-C ) :   1.3203 B(100-C ,105-C ) :   1.3193 B(101-C ,102-C ) :   1.4043
B(101-C ,106-H ) :   0.9940 B(102-C ,103-C ) :   1.3115 B(102-C ,107-H ) :   0.9953
B(103-C ,104-C ) :   1.3206 B(103-C ,110-C ) :   1.0305 B(104-C ,105-C ) :   1.4062
B(104-C ,108-H ) :   0.9908 B(105-C ,109-H ) :   0.9929 B(110-C ,111-C ) :   2.5800
B(111-C ,112-C ) :   1.0224 B(112-C ,113-C ) :   1.3335 B(112-C ,117-C ) :   1.3789
B(113-C ,114-C ) :   1.4012 B(113-C ,118-H ) :   0.9875 B(114-C ,115-C ) :   1.4197
B(114-C ,119-H ) :   0.9723 B(115-C ,116-N ) :   1.3149 B(115-C ,120-H ) :   0.9502
B(116-N ,117-C ) :   1.3338 B(117-C ,121-H ) :   0.9584 B(122-C ,123-C ) :   2.5882
B(122-C ,140-C ) :   1.0212 B(123-C ,124-C ) :   1.0154 B(124-C ,125-C ) :   1.4521
B(124-C ,133-C ) :   1.2058 B(125-C ,126-C ) :   1.2733 B(125-C ,134-H ) :   0.9920
B(126-C ,127-C ) :   1.4474 B(126-C ,135-H ) :   0.9816 B(127-C ,128-C ) :   1.2723
B(127-C ,136-H ) :   0.9951 B(128-C ,129-C ) :   1.2471 B(128-C ,133-C ) :   1.2174
B(129-C ,130-C ) :   1.5627 B(129-C ,137-H ) :   0.9729 B(130-C ,131-N ) :   1.1786
B(130-C ,138-H ) :   0.9414 B(131-N ,132-C ) :   1.4316 B(132-C ,133-C ) :   1.3250
B(132-C ,139-H ) :   0.9428 B(140-C ,141-C ) :   1.3200 B(140-C ,145-C ) :   1.3199
B(141-C ,142-C ) :   1.4075 B(141-C ,146-H ) :   0.9926 B(142-C ,143-C ) :   1.3214
B(142-C ,147-H ) :   0.9900 B(143-C ,144-C ) :   1.3115 B(143-C ,150-C ) :   1.0327
B(144-C ,145-C ) :   1.4033 B(144-C ,148-H ) :   0.9954 B(145-C ,149-H ) :   0.9936
B(150-C ,151-C ) :   2.5834 B(151-C ,152-C ) :   1.0284 B(152-C ,153-C ) :   1.3287
B(152-C ,157-C ) :   1.3794 B(153-C ,154-C ) :   1.4058 B(153-C ,158-H ) :   0.9869
B(154-C ,155-C ) :   1.4128 B(154-C ,159-H ) :   0.9717 B(155-C ,156-N ) :   1.3288
B(155-C ,160-H ) :   0.9569 B(156-N ,157-C ) :   1.3188 B(157-C ,161-H ) :   0.9562

Dispersion correction           -0.256917061
FINAL SINGLE POINT ENERGY     -4376.855361401676

DIPOLE MOMENT
-------------
                                X             Y             Z
Electronic contribution:     39.75125     -63.48801      -4.01193
Nuclear contribution   :    -39.63200      62.19122       3.58745
                        -----------------------------------------
Total Dipole Moment    :      0.11925      -1.29679      -0.42448
                        -----------------------------------------
Magnitude (a.u.)       :      1.36970
Magnitude (Debye)      :      3.48150

Rotational constants in cm-1:     0.000679     0.000252     0.000247
Rotational constants in MHz :    20.357554     7.543599     7.406589

                             ****ORCA TERMINATED NORMALLY****
TOTAL RUN TIME: 0 days 0 hours 15 minutes 59 seconds 85 msec
