                         Program Version 4.2.1 -  RELEASE  -
|  1> ! DFT SP RKS PBE0 def2-SVP D3BJ Grid6 NOFINALGRID SlowConv TightSCF printbasis
|  2>
|  3> %base "_s_4b3_d_PBE0"
|  4> %maxcore 3000
|  5> %scf
|  6>    MaxIter 2000
|  7> end
|  8> %pal
|  9>    nprocs 32
| 10> end
| 11>
| 12> * xyzfile 4 1 s_4b3_d.xyz
| 13>
| 14>                          ****END OF INPUT****

CARTESIAN COORDINATES (ANGSTROEM)
---------------------------------
  Pd    -0.566900    6.939200    0.026900
  Pd     0.514700   -6.950100   -0.029300
  C      5.075300   -2.615100   -0.171000
  C      5.314200   -3.801300   -0.152500
  C      5.704200   -5.153200   -0.139700
  C      7.052600   -5.467600   -0.139100
  C      7.485100   -6.796700   -0.138700
  C      6.582900   -7.831800   -0.137400
  C      5.203300   -7.560200   -0.130900
  C      4.226000   -8.581800   -0.122600
  C      2.901500   -8.255100   -0.106800
  N      2.481900   -6.963700   -0.096800
  C      3.359600   -5.983300   -0.108900
  C      4.745800   -6.210200   -0.129800
  H      7.780200   -4.670500   -0.144000
  H      8.544300   -7.003600   -0.141200
  H      6.918200   -8.856900   -0.139600
  H      4.540800   -9.613300   -0.127000
  H      2.125600   -9.026300   -0.100800
  H      2.973600   -4.969200   -0.098100
  C      4.791600   -1.235600   -0.182500
  C      5.747600   -0.326600    0.286900
  C      5.476900    1.024500    0.291300
  C      4.243200    1.493400   -0.172900
  C      3.293300    0.585800   -0.657300
  C      3.564800   -0.763800   -0.662600
  H      6.696700   -0.692000    0.649100
  H      6.212400    1.724600    0.657600
  H      2.351700    0.955000   -1.031600
  H      2.841200   -1.466300   -1.043800
  C      3.937200    2.867500   -0.144700
  C      3.639000    4.039100   -0.113300
  C      3.219500    5.382500   -0.073500
  C      4.119600    6.457800   -0.038600
  C      3.621700    7.747200   -0.002900
  C      2.248000    7.950000    0.001800
  N      1.397900    6.926100   -0.027100
  C      1.852400    5.673700   -0.065100
  H      5.182400    6.271900   -0.042100
  H      4.288500    8.593800    0.022000
  H      1.817000    8.944000    0.029100
  H      1.112800    4.866600   -0.087400
  C     -0.155900    2.948500    4.871300
  C     -0.251300    4.144200    5.032700
  C     -0.357900    5.514900    5.328800
  C     -0.377900    5.922100    6.652300
  C     -0.480000    7.273900    6.991600
  C     -0.564800    8.240500    6.019900
  C     -0.550600    7.874000    4.662600
  C     -0.637600    8.821600    3.616800
  C     -0.622200    8.403600    2.318400
  N     -0.524400    7.089700    1.989300
  C     -0.439800    6.176400    2.932900
  C     -0.446500    6.499500    4.299600
  H     -0.311800    5.180300    7.433500
  H     -0.491500    7.553700    8.033900
  H     -0.643300    9.283400    6.283500
  H     -0.716600    9.869400    3.859300
  H     -0.688600    9.116000    1.490700
  H     -0.363900    5.141000    2.617800
  C     -0.046700    1.556600    4.691300
  C     -0.109800    0.709700    5.805300
  C     -0.005100   -0.655000    5.647600
  C      0.164400   -1.200100    4.370300
  C      0.230600   -0.353100    3.256600
  C      0.126800    1.010100    3.414500
  H     -0.241700    1.134100    6.789200
  H     -0.054400   -1.306800    6.506700
  H      0.367400   -0.783200    2.278000
  H      0.183400    1.665800    2.560600
  C      0.267700   -2.590700    4.180200
  C      0.357300   -3.778700    3.971300
  C      0.458000   -5.144100    3.646000
  C      0.541200   -6.155000    4.615000
  C      0.637700   -7.471400    4.203100
  C      0.647500   -7.764600    2.845900
  N      0.567100   -6.801600    1.930200
  C      0.475800   -5.524900    2.300800
  H      0.529900   -5.899800    5.663200
  H      0.704300   -8.269900    4.924200
  H      0.720700   -8.782300    2.480900
  H      0.414400   -4.769700    1.510200
  C     -4.649000   -3.377200    0.249100
  C     -4.705600   -4.586000    0.269100
  C     -4.881600   -5.981300    0.292600
  C     -6.161100   -6.501000    0.394400
  C     -6.381800   -7.881000    0.411100
  C     -5.333500   -8.763900    0.327300
  C     -4.016400   -8.282000    0.227000
  C     -2.895800   -9.139900    0.141400
  C     -1.641000   -8.611900    0.053700
  N     -1.426400   -7.271000    0.047200
  C     -2.442900   -6.438600    0.121000
  C     -3.774100   -6.877500    0.210700
  H     -7.001100   -5.826300    0.458300
  H     -7.393100   -8.249500    0.489700
  H     -5.505800   -9.828600    0.338100
  H     -3.046800  -10.207700    0.148100
  H     -0.757400   -9.253100   -0.015300
  H     -2.218500   -5.377000    0.113400
  C     -4.579300   -1.971300    0.226700
  C     -5.705400   -1.214300    0.573100
  C     -5.648100    0.162400    0.556900
  C     -4.462000    0.810000    0.194300
  C     -3.338300    0.052900   -0.159800
  C     -3.396200   -1.322000   -0.143900
  H     -6.618500   -1.716800    0.854700
  H     -6.515900    0.745300    0.826300
  H     -2.431600    0.559000   -0.449800
  H     -2.536800   -1.910100   -0.422700
  C     -4.377600    2.215000    0.188100
  C     -4.267600    3.419400    0.182600
  C     -4.062900    4.812100    0.175200
  C     -5.116800    5.735400    0.242800
  C     -4.825400    7.087000    0.229400
  C     -3.502000    7.500600    0.152700
  N     -2.505300    6.620400    0.091300
  C     -2.759600    5.312100    0.099900
  H     -6.136200    5.387000    0.303000
  H     -5.614000    7.820200    0.278700
  H     -3.230300    8.549600    0.139900
  H     -1.905400    4.629000    0.048600
  C     -0.432300    3.018900   -4.856600
  C     -0.524300    4.215500   -5.012300
  C     -0.632900    5.589600   -5.291700
  C     -0.704500    6.012200   -6.608300
  C     -0.812700    7.368900   -6.926700
  C     -0.851300    8.324200   -5.941000
  C     -0.781600    7.941700   -4.589700
  C     -0.816600    8.876600   -3.529500
  C     -0.745000    8.442500   -2.238000
  N     -0.639700    7.124500   -1.929800
  C     -0.604300    6.222700   -2.887300
  C     -0.671100    6.562400   -4.248300
  H     -0.676000    5.279800   -7.400400
  H     -0.866100    7.661400   -7.964200
  H     -0.934800    9.370500   -6.189000
  H     -0.900000    9.927800   -3.755400
  H     -0.769900    9.144600   -1.399600
  H     -0.520300    5.182800   -2.589200
  C     -0.324000    1.627300   -4.675200
  C     -0.305500    0.780700   -5.790600
  C     -0.199000   -0.583100   -5.625400
  C     -0.107900   -1.128700   -4.340200
  C     -0.126200   -0.282000   -3.224700
  C     -0.233600    1.079800   -3.390400
  H     -0.375400    1.204300   -6.781000
  H     -0.185100   -1.234800   -6.485800
  H     -0.055300   -0.708600   -2.236500
  H     -0.249300    1.736500   -2.535100
  C      0.003300   -2.519200   -4.152900
  C      0.104000   -3.708300   -3.956300
  C      0.224300   -5.078700   -3.658600
  C      0.262200   -6.069800   -4.650700
  C      0.383600   -7.393600   -4.270700
  C      0.464900   -7.713400   -2.921700
  N      0.428300   -6.769200   -1.984100
  C      0.312000   -5.485800   -2.324200
  H      0.197000   -5.793800   -5.691700
  H      0.415700   -8.177400   -5.010100
  H      0.561100   -8.738000   -2.581900
  H      0.287200   -4.748900   -1.514700

 Total Charge           Charge          ....    4
 Multiplicity           Mult            ....    1
 Number of Electrons    NEL             ....  720
 Basis Dimension        Dim             .... 1798

ORBITAL ENERGIES
----------------

  NO   OCC          E(Eh)            E(eV)
   0   2.0000     -14.746774      -401.2801
   1   2.0000     -14.746337      -401.2682
   2   2.0000     -14.746210      -401.2648
   3   2.0000     -14.745666      -401.2500
   4   2.0000     -14.736285      -400.9947
   5   2.0000     -14.735765      -400.9805
   6   2.0000     -14.735729      -400.9796
   7   2.0000     -14.735654      -400.9775
   8   2.0000     -10.581267      -287.9309
   9   2.0000     -10.580512      -287.9104
  10   2.0000     -10.580278      -287.9040
  11   2.0000     -10.579520      -287.8834
  12   2.0000     -10.574302      -287.7414
  13   2.0000     -10.574151      -287.7373
  14   2.0000     -10.573831      -287.7286
  15   2.0000     -10.573808      -287.7279
  16   2.0000     -10.573691      -287.7248
  17   2.0000     -10.573647      -287.7236
  18   2.0000     -10.573369      -287.7160
  19   2.0000     -10.572737      -287.6988
  20   2.0000     -10.560415      -287.3635
  21   2.0000     -10.560235      -287.3586
  22   2.0000     -10.560147      -287.3562
  23   2.0000     -10.560056      -287.3537
  24   2.0000     -10.559833      -287.3477
  25   2.0000     -10.559197      -287.3303
  26   2.0000     -10.558967      -287.3241
  27   2.0000     -10.558197      -287.3031
  28   2.0000     -10.542547      -286.8773
  29   2.0000     -10.541723      -286.8549
  30   2.0000     -10.541516      -286.8492
  31   2.0000     -10.540859      -286.8314
  32   2.0000     -10.533951      -286.6434
  33   2.0000     -10.533771      -286.6385
  34   2.0000     -10.533406      -286.6285
  35   2.0000     -10.533369      -286.6275
  36   2.0000     -10.533218      -286.6234
  37   2.0000     -10.533069      -286.6194
  38   2.0000     -10.533051      -286.6189
  39   2.0000     -10.532860      -286.6137
  40   2.0000     -10.532658      -286.6082
  41   2.0000     -10.532642      -286.6078
  42   2.0000     -10.532619      -286.6071
  43   2.0000     -10.532397      -286.6011
  44   2.0000     -10.531097      -286.5657
  45   2.0000     -10.530592      -286.5520
  46   2.0000     -10.530510      -286.5497
  47   2.0000     -10.530259      -286.5429
  48   2.0000     -10.525067      -286.4016
  49   2.0000     -10.524807      -286.3946
  50   2.0000     -10.524712      -286.3920
  51   2.0000     -10.524670      -286.3908
  52   2.0000     -10.524439      -286.3845
  53   2.0000     -10.524392      -286.3833
  54   2.0000     -10.521249      -286.2977
  55   2.0000     -10.521161      -286.2953
  56   2.0000     -10.521022      -286.2916
  57   2.0000     -10.520918      -286.2887
  58   2.0000     -10.520336      -286.2729
  59   2.0000     -10.520145      -286.2677
  60   2.0000     -10.514036      -286.1015
  61   2.0000     -10.511893      -286.0431
  62   2.0000     -10.511622      -286.0358
  63   2.0000     -10.510681      -286.0102
  64   2.0000     -10.510388      -286.0022
  65   2.0000     -10.508437      -285.9491
  66   2.0000     -10.507214      -285.9158
  67   2.0000     -10.506784      -285.9041
  68   2.0000     -10.505784      -285.8769
  69   2.0000     -10.505773      -285.8766
  70   2.0000     -10.505645      -285.8731
  71   2.0000     -10.505521      -285.8698
  72   2.0000     -10.505308      -285.8640
  73   2.0000     -10.504646      -285.8459
  74   2.0000     -10.504394      -285.8391
  75   2.0000     -10.504289      -285.8362
  76   2.0000     -10.503923      -285.8263
  77   2.0000     -10.503507      -285.8150
  78   2.0000     -10.503385      -285.8116
  79   2.0000     -10.502921      -285.7990
  80   2.0000     -10.502569      -285.7894
  81   2.0000     -10.501992      -285.7737
  82   2.0000     -10.501969      -285.7731
  83   2.0000     -10.501900      -285.7712
  84   2.0000     -10.501656      -285.7646
  85   2.0000     -10.501312      -285.7552
  86   2.0000     -10.501269      -285.7541
  87   2.0000     -10.501256      -285.7537
  88   2.0000     -10.501031      -285.7476
  89   2.0000     -10.500735      -285.7395
  90   2.0000     -10.499145      -285.6963
  91   2.0000     -10.498949      -285.6909
  92   2.0000     -10.498758      -285.6857
  93   2.0000     -10.498716      -285.6846
  94   2.0000     -10.498244      -285.6717
  95   2.0000     -10.498151      -285.6692
  96   2.0000     -10.497916      -285.6628
  97   2.0000     -10.497279      -285.6455
  98   2.0000     -10.496187      -285.6158
  99   2.0000     -10.496128      -285.6142
 100   2.0000     -10.495806      -285.6054
 101   2.0000     -10.495615      -285.6002
 102   2.0000     -10.495487      -285.5967
 103   2.0000     -10.495369      -285.5935
 104   2.0000      -3.841631      -104.5361
 105   2.0000      -3.841414      -104.5302
 106   2.0000      -2.519757       -68.5661
 107   2.0000      -2.519580       -68.5613
 108   2.0000      -2.519307       -68.5538
 109   2.0000      -2.519039       -68.5465
 110   2.0000      -2.482520       -67.5528
 111   2.0000      -2.482299       -67.5468
 112   2.0000      -1.299493       -35.3610
 113   2.0000      -1.299492       -35.3610
 114   2.0000      -1.294275       -35.2190
 115   2.0000      -1.294204       -35.2171
 116   2.0000      -1.285200       -34.9721
 117   2.0000      -1.284764       -34.9602
 118   2.0000      -1.282683       -34.9036
 119   2.0000      -1.282278       -34.8926
 120   2.0000      -1.165332       -31.7103
 121   2.0000      -1.164629       -31.6912
 122   2.0000      -1.164234       -31.6804
 123   2.0000      -1.163849       -31.6699
 124   2.0000      -1.158530       -31.5252
 125   2.0000      -1.154975       -31.4285
 126   2.0000      -1.154926       -31.4271
 127   2.0000      -1.154053       -31.4034
 128   2.0000      -1.137754       -30.9599
 129   2.0000      -1.137125       -30.9427
 130   2.0000      -1.135396       -30.8957
 131   2.0000      -1.135138       -30.8887
 132   2.0000      -1.103179       -30.0190
 133   2.0000      -1.102356       -29.9966
 134   2.0000      -1.102095       -29.9895
 135   2.0000      -1.101863       -29.9832
 136   2.0000      -1.098599       -29.8944
 137   2.0000      -1.097649       -29.8686
 138   2.0000      -1.097415       -29.8622
 139   2.0000      -1.096797       -29.8454
 140   2.0000      -1.084789       -29.5186
 141   2.0000      -1.082244       -29.4494
 142   2.0000      -1.082194       -29.4480
 143   2.0000      -1.081449       -29.4277
 144   2.0000      -1.070132       -29.1198
 145   2.0000      -1.069583       -29.1048
 146   2.0000      -1.068502       -29.0754
 147   2.0000      -1.068051       -29.0631
 148   2.0000      -1.055848       -28.7311
 149   2.0000      -1.054767       -28.7017
 150   2.0000      -1.054564       -28.6962
 151   2.0000      -1.054106       -28.6837
 152   2.0000      -1.035287       -28.1716
 153   2.0000      -1.031347       -28.0644
 154   2.0000      -1.031198       -28.0603
 155   2.0000      -1.030867       -28.0513
 156   2.0000      -1.030371       -28.0378
 157   2.0000      -1.028873       -27.9971
 158   2.0000      -1.028815       -27.9955
 159   2.0000      -1.027913       -27.9709
 160   2.0000      -1.001101       -27.2413
 161   2.0000      -0.999266       -27.1914
 162   2.0000      -0.999191       -27.1894
 163   2.0000      -0.998482       -27.1701
 164   2.0000      -0.966907       -26.3109
 165   2.0000      -0.965572       -26.2746
 166   2.0000      -0.965254       -26.2659
 167   2.0000      -0.964696       -26.2507
 168   2.0000      -0.958272       -26.0759
 169   2.0000      -0.957211       -26.0470
 170   2.0000      -0.956511       -26.0280
 171   2.0000      -0.956095       -26.0167
 172   2.0000      -0.947827       -25.7917
 173   2.0000      -0.947629       -25.7863
 174   2.0000      -0.944393       -25.6982
 175   2.0000      -0.944282       -25.6952
 176   2.0000      -0.935581       -25.4584
 177   2.0000      -0.933987       -25.4151
 178   2.0000      -0.933288       -25.3961
 179   2.0000      -0.933061       -25.3899
 180   2.0000      -0.922659       -25.1068
 181   2.0000      -0.921173       -25.0664
 182   2.0000      -0.920481       -25.0476
 183   2.0000      -0.920406       -25.0455
 184   2.0000      -0.901523       -24.5317
 185   2.0000      -0.900056       -24.4918
 186   2.0000      -0.899156       -24.4673
 187   2.0000      -0.899089       -24.4655
 188   2.0000      -0.894067       -24.3288
 189   2.0000      -0.890354       -24.2278
 190   2.0000      -0.890169       -24.2227
 191   2.0000      -0.889382       -24.2013
 192   2.0000      -0.873905       -23.7802
 193   2.0000      -0.872272       -23.7357
 194   2.0000      -0.859854       -23.3978
 195   2.0000      -0.859698       -23.3936
 196   2.0000      -0.847870       -23.0717
 197   2.0000      -0.846634       -23.0381
 198   2.0000      -0.841526       -22.8991
 199   2.0000      -0.840919       -22.8826
 200   2.0000      -0.828521       -22.5452
 201   2.0000      -0.827968       -22.5302
 202   2.0000      -0.826493       -22.4900
 203   2.0000      -0.825053       -22.4508
 204   2.0000      -0.824617       -22.4390
 205   2.0000      -0.823361       -22.4048
 206   2.0000      -0.823248       -22.4017
 207   2.0000      -0.822524       -22.3820
 208   2.0000      -0.817493       -22.2451
 209   2.0000      -0.816391       -22.2151
 210   2.0000      -0.816030       -22.2053
 211   2.0000      -0.815137       -22.1810
 212   2.0000      -0.813696       -22.1418
 213   2.0000      -0.813085       -22.1252
 214   2.0000      -0.805763       -21.9259
 215   2.0000      -0.804052       -21.8794
 216   2.0000      -0.803861       -21.8742
 217   2.0000      -0.802533       -21.8380
 218   2.0000      -0.801088       -21.7987
 219   2.0000      -0.800646       -21.7867
 220   2.0000      -0.787534       -21.4299
 221   2.0000      -0.785152       -21.3651
 222   2.0000      -0.784180       -21.3386
 223   2.0000      -0.783687       -21.3252
 224   2.0000      -0.775921       -21.1139
 225   2.0000      -0.775695       -21.1077
 226   2.0000      -0.769476       -20.9385
 227   2.0000      -0.767644       -20.8887
 228   2.0000      -0.766838       -20.8667
 229   2.0000      -0.765673       -20.8350
 230   2.0000      -0.764619       -20.8063
 231   2.0000      -0.764113       -20.7926
 232   2.0000      -0.753836       -20.5129
 233   2.0000      -0.752709       -20.4823
 234   2.0000      -0.752076       -20.4650
 235   2.0000      -0.749867       -20.4049
 236   2.0000      -0.749607       -20.3978
 237   2.0000      -0.749303       -20.3896
 238   2.0000      -0.748209       -20.3598
 239   2.0000      -0.748188       -20.3592
 240   2.0000      -0.748080       -20.3563
 241   2.0000      -0.747597       -20.3432
 242   2.0000      -0.747240       -20.3334
 243   2.0000      -0.747118       -20.3301
 244   2.0000      -0.743104       -20.2209
 245   2.0000      -0.742636       -20.2082
 246   2.0000      -0.742163       -20.1953
 247   2.0000      -0.742044       -20.1921
 248   2.0000      -0.738693       -20.1009
 249   2.0000      -0.738350       -20.0915
 250   2.0000      -0.728845       -19.8329
 251   2.0000      -0.728441       -19.8219
 252   2.0000      -0.722484       -19.6598
 253   2.0000      -0.721882       -19.6434
 254   2.0000      -0.721653       -19.6372
 255   2.0000      -0.721274       -19.6269
 256   2.0000      -0.720933       -19.6176
 257   2.0000      -0.720681       -19.6107
 258   2.0000      -0.718262       -19.5449
 259   2.0000      -0.718175       -19.5425
 260   2.0000      -0.715897       -19.4805
 261   2.0000      -0.711939       -19.3728
 262   2.0000      -0.711564       -19.3626
 263   2.0000      -0.710905       -19.3447
 264   2.0000      -0.706827       -19.2337
 265   2.0000      -0.706294       -19.2192
 266   2.0000      -0.705263       -19.1912
 267   2.0000      -0.700532       -19.0624
 268   2.0000      -0.699825       -19.0432
 269   2.0000      -0.699333       -19.0298
 270   2.0000      -0.688496       -18.7349
 271   2.0000      -0.688114       -18.7245
 272   2.0000      -0.687159       -18.6986
 273   2.0000      -0.686870       -18.6907
 274   2.0000      -0.686632       -18.6842
 275   2.0000      -0.686203       -18.6725
 276   2.0000      -0.679585       -18.4925
 277   2.0000      -0.679454       -18.4889
 278   2.0000      -0.679142       -18.4804
 279   2.0000      -0.676312       -18.4034
 280   2.0000      -0.674492       -18.3539
 281   2.0000      -0.674412       -18.3517
 282   2.0000      -0.674000       -18.3405
 283   2.0000      -0.671988       -18.2857
 284   2.0000      -0.670470       -18.2444
 285   2.0000      -0.666414       -18.1340
 286   2.0000      -0.663243       -18.0478
 287   2.0000      -0.662823       -18.0363
 288   2.0000      -0.656490       -17.8640
 289   2.0000      -0.655880       -17.8474
 290   2.0000      -0.655566       -17.8389
 291   2.0000      -0.652334       -17.7509
 292   2.0000      -0.652062       -17.7435
 293   2.0000      -0.651463       -17.7272
 294   2.0000      -0.646044       -17.5797
 295   2.0000      -0.639303       -17.3963
 296   2.0000      -0.638668       -17.3790
 297   2.0000      -0.638321       -17.3696
 298   2.0000      -0.638158       -17.3652
 299   2.0000      -0.637721       -17.3533
 300   2.0000      -0.633020       -17.2253
 301   2.0000      -0.632436       -17.2094
 302   2.0000      -0.632088       -17.2000
 303   2.0000      -0.631391       -17.1810
 304   2.0000      -0.631105       -17.1732
 305   2.0000      -0.630009       -17.1434
 306   2.0000      -0.628466       -17.1014
 307   2.0000      -0.627556       -17.0767
 308   2.0000      -0.627168       -17.0661
 309   2.0000      -0.625904       -17.0317
 310   2.0000      -0.625643       -17.0246
 311   2.0000      -0.616287       -16.7700
 312   2.0000      -0.616013       -16.7626
 313   2.0000      -0.615401       -16.7459
 314   2.0000      -0.611487       -16.6394
 315   2.0000      -0.609563       -16.5871
 316   2.0000      -0.609520       -16.5859
 317   2.0000      -0.608457       -16.5570
 318   2.0000      -0.608130       -16.5481
 319   2.0000      -0.607767       -16.5382
 320   2.0000      -0.607624       -16.5343
 321   2.0000      -0.601145       -16.3580
 322   2.0000      -0.593563       -16.1517
 323   2.0000      -0.593167       -16.1409
 324   2.0000      -0.590236       -16.0611
 325   2.0000      -0.585091       -15.9211
 326   2.0000      -0.583068       -15.8661
 327   2.0000      -0.582491       -15.8504
 328   2.0000      -0.580312       -15.7911
 329   2.0000      -0.579626       -15.7724
 330   2.0000      -0.562243       -15.2994
 331   2.0000      -0.561631       -15.2828
 332   2.0000      -0.558862       -15.2074
 333   2.0000      -0.557815       -15.1789
 334   2.0000      -0.556103       -15.1323
 335   2.0000      -0.554967       -15.1014
 336   2.0000      -0.554472       -15.0879
 337   2.0000      -0.553560       -15.0631
 338   2.0000      -0.553105       -15.0508
 339   2.0000      -0.552301       -15.0289
 340   2.0000      -0.550896       -14.9906
 341   2.0000      -0.550251       -14.9731
 342   2.0000      -0.548505       -14.9256
 343   2.0000      -0.547567       -14.9001
 344   2.0000      -0.547244       -14.8913
 345   2.0000      -0.546379       -14.8677
 346   2.0000      -0.546200       -14.8628
 347   2.0000      -0.544841       -14.8259
 348   2.0000      -0.536184       -14.5903
 349   2.0000      -0.532126       -14.4799
 350   2.0000      -0.531960       -14.4754
 351   2.0000      -0.530550       -14.4370
 352   2.0000      -0.519049       -14.1240
 353   2.0000      -0.517206       -14.0739
 354   2.0000      -0.515930       -14.0392
 355   2.0000      -0.514133       -13.9903
 356   2.0000      -0.480519       -13.0756
 357   2.0000      -0.479633       -13.0515
 358   2.0000      -0.478834       -13.0297
 359   2.0000      -0.477602       -12.9962
 360   0.0000      -0.350228        -9.5302
 361   0.0000      -0.348659        -9.4875
 362   0.0000      -0.348053        -9.4710
 363   0.0000      -0.344887        -9.3848
 364   0.0000      -0.335174        -9.1205

MULLIKEN ATOMIC CHARGES
-----------------------
   0 Pd:    0.402860
   1 Pd:    0.403289
   2 C :    0.021454
   3 C :   -0.066912
   4 C :   -0.008023
   5 C :    0.027699
   6 C :    0.032852
   7 C :    0.019926
   8 C :    0.027196
   9 C :    0.004484
  10 C :    0.118244
  11 N :   -0.317692
  12 C :    0.165525
  13 C :   -0.011841
  14 H :    0.054368
  15 H :    0.076908
  16 H :    0.054104
  17 H :    0.061701
  18 H :    0.079771
  19 H :    0.045152
  20 C :   -0.052190
  21 C :    0.032351
  22 C :    0.038934
  23 C :   -0.063994
  24 C :    0.024742
  25 C :    0.018922
  26 H :    0.050052
  27 H :    0.048700
  28 H :    0.000389
  29 H :    0.004152
  30 C :    0.033236
  31 C :   -0.017058
  32 C :   -0.102770
  33 C :    0.117482
  34 C :   -0.027889
  35 C :    0.142066
  36 N :   -0.306473
  37 C :    0.158810
  38 H :    0.076673
  39 H :    0.086681
  40 H :    0.082423
  41 H :    0.065140
  42 C :    0.021983
  43 C :   -0.068298
  44 C :   -0.006432
  45 C :    0.026459
  46 C :    0.033006
  47 C :    0.019390
  48 C :    0.027385
  49 C :    0.004557
  50 C :    0.116907
  51 N :   -0.319210
  52 C :    0.166185
  53 C :   -0.012420
  54 H :    0.053653
  55 H :    0.076730
  56 H :    0.053982
  57 H :    0.061576
  58 H :    0.079799
  59 H :    0.045887
  60 C :   -0.049261
  61 C :    0.030923
  62 C :    0.040201
  63 C :   -0.065805
  64 C :    0.030574
  65 C :    0.023801
  66 H :    0.049743
  67 H :    0.049043
  68 H :    0.001126
  69 H :   -0.000495
  70 C :    0.035940
  71 C :   -0.017851
  72 C :   -0.101087
  73 C :    0.116389
  74 C :   -0.027734
  75 C :    0.141037
  76 N :   -0.306302
  77 C :    0.155381
  78 H :    0.075968
  79 H :    0.086065
  80 H :    0.082606
  81 H :    0.067714
  82 C :    0.021074
  83 C :   -0.067151
  84 C :   -0.006880
  85 C :    0.027006
  86 C :    0.032970
  87 C :    0.019708
  88 C :    0.027282
  89 C :    0.004433
  90 C :    0.117500
  91 N :   -0.318626
  92 C :    0.166127
  93 C :   -0.012198
  94 H :    0.054020
  95 H :    0.076837
  96 H :    0.054120
  97 H :    0.061690
  98 H :    0.079607
  99 H :    0.044905
 100 C :   -0.049109
 101 C :    0.031862
 102 C :    0.039490
 103 C :   -0.063375
 104 C :    0.029405
 105 C :    0.022309
 106 H :    0.050190
 107 H :    0.049079
 108 H :   -0.002185
 109 H :   -0.000721
 110 C :    0.034203
 111 C :   -0.018044
 112 C :   -0.101326
 113 C :    0.116637
 114 C :   -0.027662
 115 C :    0.141434
 116 N :   -0.306601
 117 C :    0.157091
 118 H :    0.076315
 119 H :    0.086401
 120 H :    0.082976
 121 H :    0.065757
 122 C :    0.017190
 123 C :   -0.063194
 124 C :   -0.006615
 125 C :    0.027632
 126 C :    0.032851
 127 C :    0.020712
 128 C :    0.027483
 129 C :    0.004660
 130 C :    0.119084
 131 N :   -0.317569
 132 C :    0.167932
 133 C :   -0.012781
 134 H :    0.054115
 135 H :    0.077277
 136 H :    0.054591
 137 H :    0.062056
 138 H :    0.080570
 139 H :    0.041589
 140 C :   -0.045331
 141 C :    0.033480
 142 C :    0.041105
 143 C :   -0.060447
 144 C :    0.015111
 145 C :    0.017496
 146 H :    0.051780
 147 H :    0.050576
 148 H :    0.002306
 149 H :    0.001253
 150 C :    0.029030
 151 C :   -0.015048
 152 C :   -0.101043
 153 C :    0.117282
 154 C :   -0.027982
 155 C :    0.142799
 156 N :   -0.306182
 157 C :    0.158285
 158 H :    0.076363
 159 H :    0.087076
 160 H :    0.082715
 161 H :    0.064676
Sum of atomic charges:    4.0000000

LOEWDIN ATOMIC CHARGES
----------------------
   0 Pd:   -0.373371
   1 Pd:   -0.373096
   2 C :   -0.003203
   3 C :   -0.031394
   4 C :   -0.025855
   5 C :    0.038257
   6 C :    0.033327
   7 C :    0.011628
   8 C :    0.008973
   9 C :    0.019044
  10 C :    0.036524
  11 N :    0.060128
  12 C :    0.093297
  13 C :   -0.019522
  14 H :    0.058001
  15 H :    0.061900
  16 H :    0.055008
  17 H :    0.062271
  18 H :    0.058899
  19 H :    0.048160
  20 C :   -0.036857
  21 C :    0.020411
  22 C :    0.022959
  23 C :   -0.049609
  24 C :   -0.000685
  25 C :   -0.005539
  26 H :    0.053890
  27 H :    0.053410
  28 H :    0.033252
  29 H :    0.033292
  30 C :    0.027076
  31 C :   -0.050922
  32 C :   -0.033120
  33 C :    0.069045
  34 C :    0.006597
  35 C :    0.073303
  36 N :    0.076479
  37 C :    0.078539
  38 H :    0.065786
  39 H :    0.067758
  40 H :    0.056337
  41 H :    0.058320
  42 C :   -0.002338
  43 C :   -0.031895
  44 C :   -0.025473
  45 C :    0.037714
  46 C :    0.033178
  47 C :    0.011182
  48 C :    0.008902
  49 C :    0.018770
  50 C :    0.035924
  51 N :    0.059513
  52 C :    0.093715
  53 C :   -0.019657
  54 H :    0.057668
  55 H :    0.061840
  56 H :    0.054939
  57 H :    0.062198
  58 H :    0.058875
  59 H :    0.048320
  60 C :   -0.036437
  61 C :    0.020526
  62 C :    0.023213
  63 C :   -0.048952
  64 C :    0.002652
  65 C :   -0.004424
  66 H :    0.053680
  67 H :    0.053588
  68 H :    0.033403
  69 H :    0.032272
  70 C :    0.028237
  71 C :   -0.050604
  72 C :   -0.032845
  73 C :    0.068211
  74 C :    0.006139
  75 C :    0.072224
  76 N :    0.076301
  77 C :    0.078493
  78 H :    0.065466
  79 H :    0.067524
  80 H :    0.056158
  81 H :    0.058914
  82 C :   -0.002855
  83 C :   -0.031067
  84 C :   -0.025736
  85 C :    0.038098
  86 C :    0.033238
  87 C :    0.011497
  88 C :    0.008939
  89 C :    0.018879
  90 C :    0.036275
  91 N :    0.059730
  92 C :    0.093429
  93 C :   -0.019518
  94 H :    0.057833
  95 H :    0.061881
  96 H :    0.055009
  97 H :    0.062259
  98 H :    0.058820
  99 H :    0.048110
 100 C :   -0.036047
 101 C :    0.020855
 102 C :    0.023579
 103 C :   -0.048878
 104 C :    0.000801
 105 C :   -0.005004
 106 H :    0.053957
 107 H :    0.053623
 108 H :    0.032023
 109 H :    0.031557
 110 C :    0.027481
 111 C :   -0.050620
 112 C :   -0.033004
 113 C :    0.068603
 114 C :    0.006463
 115 C :    0.072853
 116 N :    0.076479
 117 C :    0.078262
 118 H :    0.065618
 119 H :    0.067658
 120 H :    0.056364
 121 H :    0.058444
 122 C :   -0.005439
 123 C :   -0.027509
 124 C :   -0.026479
 125 C :    0.038894
 126 C :    0.033338
 127 C :    0.012691
 128 C :    0.009132
 129 C :    0.019377
 130 C :    0.037407
 131 N :    0.060805
 132 C :    0.093074
 133 C :   -0.018959
 134 H :    0.057869
 135 H :    0.062080
 136 H :    0.055259
 137 H :    0.062428
 138 H :    0.058999
 139 H :    0.047348
 140 C :   -0.034417
 141 C :    0.022990
 142 C :    0.025499
 143 C :   -0.048430
 144 C :   -0.004307
 145 C :   -0.008758
 146 H :    0.054843
 147 H :    0.054463
 148 H :    0.030606
 149 H :    0.029898
 150 C :    0.024078
 151 C :   -0.048620
 152 C :   -0.033967
 153 C :    0.068980
 154 C :    0.006950
 155 C :    0.074019
 156 N :    0.077060
 157 C :    0.078600
 158 H :    0.065646
 159 H :    0.067947
 160 H :    0.056613
 161 H :    0.058296

  Mayer bond orders larger than 0.100000
B(  0-Pd, 36-N ) :   0.5345 B(  0-Pd, 51-N ) :   0.5463 B(  0-Pd,116-N ) :   0.5347
B(  0-Pd,131-N ) :   0.5476 B(  1-Pd, 11-N ) :   0.5474 B(  1-Pd, 76-N ) :   0.5351
B(  1-Pd, 91-N ) :   0.5465 B(  1-Pd,156-N ) :   0.5337 B(  2-C ,  3-C ) :   2.5881
B(  2-C , 20-C ) :   1.0172 B(  3-C ,  4-C ) :   1.0066 B(  4-C ,  5-C ) :   1.4517
B(  4-C , 13-C ) :   1.2097 B(  5-C ,  6-C ) :   1.2708 B(  5-C , 14-H ) :   0.9924
B(  6-C ,  7-C ) :   1.4495 B(  6-C , 15-H ) :   0.9811 B(  7-C ,  8-C ) :   1.2715
B(  7-C , 16-H ) :   0.9950 B(  8-C ,  9-C ) :   1.2472 B(  8-C , 13-C ) :   1.2182
B(  9-C , 10-C ) :   1.5600 B(  9-C , 17-H ) :   0.9727 B( 10-C , 11-N ) :   1.1699
B( 10-C , 18-H ) :   0.9399 B( 11-N , 12-C ) :   1.4299 B( 12-C , 13-C ) :   1.3289
B( 12-C , 19-H ) :   0.9391 B( 20-C , 21-C ) :   1.3221 B( 20-C , 25-C ) :   1.3228
B( 21-C , 22-C ) :   1.4015 B( 21-C , 26-H ) :   0.9939 B( 22-C , 23-C ) :   1.3158
B( 22-C , 27-H ) :   0.9951 B( 23-C , 24-C ) :   1.3223 B( 23-C , 30-C ) :   1.0247
B( 24-C , 25-C ) :   1.4025 B( 24-C , 28-H ) :   0.9907 B( 25-C , 29-H ) :   0.9923
B( 30-C , 31-C ) :   2.5872 B( 31-C , 32-C ) :   1.0184 B( 32-C , 33-C ) :   1.3336
B( 32-C , 37-C ) :   1.3798 B( 33-C , 34-C ) :   1.4093 B( 33-C , 38-H ) :   0.9864
B( 34-C , 35-C ) :   1.4110 B( 34-C , 39-H ) :   0.9719 B( 35-C , 36-N ) :   1.3410
B( 35-C , 40-H ) :   0.9551 B( 36-N , 37-C ) :   1.3076 B( 37-C , 41-H ) :   0.9544
B( 42-C , 43-C ) :   2.5843 B( 42-C , 60-C ) :   1.0208 B( 43-C , 44-C ) :   1.0103
B( 44-C , 45-C ) :   1.4488 B( 44-C , 53-C ) :   1.2082 B( 45-C , 46-C ) :   1.2723
B( 45-C , 54-H ) :   0.9924 B( 46-C , 47-C ) :   1.4481 B( 46-C , 55-H ) :   0.9811
B( 47-C , 48-C ) :   1.2719 B( 47-C , 56-H ) :   0.9951 B( 48-C , 49-C ) :   1.2466
B( 48-C , 53-C ) :   1.2180 B( 49-C , 50-C ) :   1.5601 B( 49-C , 57-H ) :   0.9728
B( 50-C , 51-N ) :   1.1691 B( 50-C , 58-H ) :   0.9400 B( 51-N , 52-C ) :   1.4299
B( 52-C , 53-C ) :   1.3296 B( 52-C , 59-H ) :   0.9387 B( 60-C , 61-C ) :   1.3200
B( 60-C , 65-C ) :   1.3203 B( 61-C , 62-C ) :   1.4037 B( 61-C , 66-H ) :   0.9937
B( 62-C , 63-C ) :   1.3123 B( 62-C , 67-H ) :   0.9952 B( 63-C , 64-C ) :   1.3224
B( 63-C , 70-C ) :   1.0298 B( 64-C , 65-C ) :   1.4065 B( 64-C , 68-H ) :   0.9900
B( 65-C , 69-H ) :   0.9921 B( 70-C , 71-C ) :   2.5835 B( 71-C , 72-C ) :   1.0223
B( 72-C , 73-C ) :   1.3313 B( 72-C , 77-C ) :   1.3780 B( 73-C , 74-C ) :   1.4097
B( 73-C , 78-H ) :   0.9866 B( 74-C , 75-C ) :   1.4108 B( 74-C , 79-H ) :   0.9721
B( 75-C , 76-N ) :   1.3399 B( 75-C , 80-H ) :   0.9546 B( 76-N , 77-C ) :   1.3083
B( 77-C , 81-H ) :   0.9542 B( 82-C , 83-C ) :   2.5853 B( 82-C ,100-C ) :   1.0199
B( 83-C , 84-C ) :   1.0090 B( 84-C , 85-C ) :   1.4495 B( 84-C , 93-C ) :   1.2088
B( 85-C , 86-C ) :   1.2716 B( 85-C , 94-H ) :   0.9924 B( 86-C , 87-C ) :   1.4488
B( 86-C , 95-H ) :   0.9811 B( 87-C , 88-C ) :   1.2715 B( 87-C , 96-H ) :   0.9950
B( 88-C , 89-C ) :   1.2469 B( 88-C , 93-C ) :   1.2183 B( 89-C , 90-C ) :   1.5599
B( 89-C , 97-H ) :   0.9728 B( 90-C , 91-N ) :   1.1701 B( 90-C , 98-H ) :   0.9403
B( 91-N , 92-C ) :   1.4294 B( 92-C , 93-C ) :   1.3295 B( 92-C , 99-H ) :   0.9390
B(100-C ,101-C ) :   1.3204 B(100-C ,105-C ) :   1.3229 B(101-C ,102-C ) :   1.4025
B(101-C ,106-H ) :   0.9938 B(102-C ,103-C ) :   1.3141 B(102-C ,107-H ) :   0.9951
B(103-C ,104-C ) :   1.3229 B(103-C ,110-C ) :   1.0272 B(104-C ,105-C ) :   1.4047
B(104-C ,108-H ) :   0.9899 B(105-C ,109-H ) :   0.9914 B(110-C ,111-C ) :   2.5856
B(111-C ,112-C ) :   1.0205 B(112-C ,113-C ) :   1.3323 B(112-C ,117-C ) :   1.3786
B(113-C ,114-C ) :   1.4098 B(113-C ,118-H ) :   0.9865 B(114-C ,115-C ) :   1.4104
B(114-C ,119-H ) :   0.9720 B(115-C ,116-N ) :   1.3407 B(115-C ,120-H ) :   0.9547
B(116-N ,117-C ) :   1.3078 B(117-C ,121-H ) :   0.9544 B(122-C ,123-C ) :   2.5847
B(122-C ,140-C ) :   1.0208 B(123-C ,124-C ) :   1.0093 B(124-C ,125-C ) :   1.4484
B(124-C ,133-C ) :   1.2089 B(125-C ,126-C ) :   1.2713 B(125-C ,134-H ) :   0.9925
B(126-C ,127-C ) :   1.4497 B(126-C ,135-H ) :   0.9810 B(127-C ,128-C ) :   1.2706
B(127-C ,136-H ) :   0.9950 B(128-C ,129-C ) :   1.2471 B(128-C ,133-C ) :   1.2194
B(129-C ,130-C ) :   1.5595 B(129-C ,137-H ) :   0.9727 B(130-C ,131-N ) :   1.1715
B(130-C ,138-H ) :   0.9397 B(131-N ,132-C ) :   1.4285 B(132-C ,133-C ) :   1.3299
B(132-C ,139-H ) :   0.9394 B(140-C ,141-C ) :   1.3205 B(140-C ,145-C ) :   1.3232
B(141-C ,142-C ) :   1.4012 B(141-C ,146-H ) :   0.9940 B(142-C ,143-C ) :   1.3149
B(142-C ,147-H ) :   0.9951 B(143-C ,144-C ) :   1.3208 B(143-C ,150-C ) :   1.0277
B(144-C ,145-C ) :   1.3983 B(144-C ,148-H ) :   0.9896 B(145-C ,149-H ) :   0.9896
B(150-C ,151-C ) :   2.5845 B(151-C ,152-C ) :   1.0195 B(152-C ,153-C ) :   1.3322
B(152-C ,157-C ) :   1.3770 B(153-C ,154-C ) :   1.4104 B(153-C ,158-H ) :   0.9865
B(154-C ,155-C ) :   1.4101 B(154-C ,159-H ) :   0.9719 B(155-C ,156-N ) :   1.3413
B(155-C ,160-H ) :   0.9554 B(156-N ,157-C ) :   1.3086 B(157-C ,161-H ) :   0.9554

Dispersion correction           -0.256886765
FINAL SINGLE POINT ENERGY     -4376.836684917642

DIPOLE MOMENT
-------------
                                X             Y             Z
Electronic contribution:      1.44438       0.17988      -3.53667
Nuclear contribution   :     -1.52786      -0.15351       3.69437
                        -----------------------------------------
Total Dipole Moment    :     -0.08348       0.02637       0.15770
                        -----------------------------------------
Magnitude (a.u.)       :      0.18037
Magnitude (Debye)      :      0.45847

Rotational constants in cm-1:     0.000652     0.000252     0.000251
Rotational constants in MHz :    19.538594     7.555286     7.520958

                             ****ORCA TERMINATED NORMALLY****
TOTAL RUN TIME: 0 days 0 hours 14 minutes 51 seconds 504 msec
