                         Program Version 4.2.1 -  RELEASE  -
|  1> ! DFT SP RKS PBE0 def2-SVP D3BJ Grid6 NOFINALGRID SlowConv TightSCF printbasis
|  2>
|  3> %base "_s_4b3_c_PBE0"
|  4> %maxcore 3000
|  5> %scf
|  6>    MaxIter 2000
|  7> end
|  8> %pal
|  9>    nprocs 32
| 10> end
| 11>
| 12> * xyzfile 4 1 s_4b3_c.xyz
| 13>
| 14>                          ****END OF INPUT****

CARTESIAN COORDINATES (ANGSTROEM)
---------------------------------
  Pd    -0.821500    8.043600   -1.508000
  Pd     1.129700   -5.601400    0.128300
  C      5.269600   -1.278300    0.898100
  C      5.618600   -2.432600    1.000800
  C      6.105600   -3.749900    1.082000
  C      7.447700   -3.970500    1.337800
  C      7.971600   -5.266400    1.376400
  C      7.172400   -6.359100    1.147600
  C      5.801500   -6.184200    0.885900
  C      4.927500   -7.264400    0.627400
  C      3.605100   -7.026600    0.389400
  N      3.085000   -5.774700    0.409000
  C      3.870300   -4.739300    0.632600
  C      5.247800   -4.870700    0.866500
  H      8.100100   -3.127100    1.504900
  H      9.022900   -5.400400    1.580500
  H      7.582700   -7.356500    1.163600
  H      5.316800   -8.269900    0.618400
  H      2.908000   -7.833400    0.171200
  H      3.407600   -3.754500    0.635400
  C      4.880900    0.063600    0.722800
  C      3.531900    0.405900    0.572800
  C      3.172100    1.714000    0.338800
  C      4.153100    2.710300    0.260500
  C      5.500100    2.374300    0.436800
  C      5.859800    1.063600    0.662200
  H      2.777900   -0.361900    0.639900
  H      2.135800    1.982100    0.208200
  H      6.255500    3.143600    0.384900
  H      6.899000    0.798600    0.786100
  C      3.771200    4.039500   -0.000900
  C      3.410500    5.168500   -0.241200
  C      2.941200    6.472200   -0.486700
  C      3.727200    7.608500   -0.248900
  C      3.180200    8.860000   -0.468000
  C      1.866300    8.962800   -0.900300
  N      1.123500    7.878000   -1.135400
  C      1.637400    6.662900   -0.952800
  H      4.740200    7.498900    0.106100
  H      3.760500    9.751800   -0.294600
  H      1.390500    9.925700   -1.065200
  H      0.993100    5.815100   -1.181200
  C      0.041900   -1.504300    4.519800
  C      0.208200   -2.668100    4.806000
  C      0.332600   -4.003600    5.236700
  C      0.244600   -4.293100    6.586400
  C      0.302100   -5.612500    7.047200
  C      0.437100   -6.660700    6.171400
  C      0.544300   -6.413000    4.791000
  C      0.681800   -7.447000    3.837400
  C      0.806100   -7.138400    2.514400
  N      0.822300   -5.855800    2.073100
  C      0.673600   -4.863600    2.928600
  C      0.511500   -5.072100    4.307800
  H      0.116900   -3.487200    7.292800
  H      0.227100   -5.800700    8.107200
  H      0.463700   -7.678500    6.527600
  H      0.688100   -8.473700    4.166900
  H      0.900400   -7.910900    1.752800
  H      0.688100   -3.852800    2.526500
  C     -0.168800   -0.152300    4.179100
  C     -1.061900    0.184800    3.155700
  C     -1.275900    1.506600    2.832900
  C     -0.599000    2.517600    3.524700
  C      0.283500    2.182000    4.557100
  C      0.496200    0.859300    4.881000
  H     -1.594000   -0.595900    2.635300
  H     -1.973100    1.772800    2.054200
  H      0.799400    2.962600    5.095100
  H      1.177300    0.596500    5.676100
  C     -0.784500    3.863600    3.152500
  C     -0.924700    5.008400    2.789300
  C     -1.021600    6.332400    2.319300
  C     -0.979000    7.438300    3.179100
  C     -1.022900    8.710800    2.637400
  C     -1.078600    8.862900    1.259900
  N     -1.120600    7.806600    0.443500
  C     -1.114700    6.573300    0.945900
  H     -0.909900    7.290200    4.245600
  H     -0.998500    9.580300    3.274100
  H     -1.089400    9.843500    0.791300
  H     -1.179600    5.750800    0.235700
  C     -4.936300    3.709400   -2.355100
  C     -5.281300    4.862600   -2.481700
  C     -5.765300    6.178700   -2.592800
  C     -7.098100    6.396100   -2.895600
  C     -7.620700    7.691300   -2.964500
  C     -6.830000    8.786500   -2.719100
  C     -5.468600    8.614900   -2.409800
  C     -4.604200    9.698100   -2.132000
  C     -3.290200    9.463400   -1.848600
  N     -2.769100    8.212000   -1.840500
  C     -3.546100    7.173900   -2.080000
  C     -4.915400    7.302100   -2.359800
  H     -7.744300    5.550800   -3.076400
  H     -8.664600    7.822700   -3.205200
  H     -7.239800    9.783500   -2.758200
  H     -4.994100   10.703300   -2.144700
  H     -2.601200   10.272700   -1.614500
  H     -3.083100    6.189400   -2.058500
  C     -4.553300    2.369600   -2.153500
  C     -3.208700    2.028600   -1.965400
  C     -2.855700    0.723100   -1.708600
  C     -3.839000   -0.272100   -1.644000
  C     -5.181000    0.062600   -1.856700
  C     -5.534200    1.370700   -2.106000
  H     -2.453100    2.795500   -2.021800
  H     -1.823200    0.456100   -1.549200
  H     -5.938000   -0.705800   -1.815100
  H     -6.569700    1.634700   -2.258700
  C     -3.463900   -1.598800   -1.361200
  C     -3.109200   -2.726000   -1.104100
  C     -2.644200   -4.027800   -0.841700
  C     -3.439700   -5.163800   -1.047100
  C     -2.895700   -6.414300   -0.814800
  C     -1.575200   -6.516700   -0.402600
  N     -0.823200   -5.432000   -0.198500
  C     -1.334100   -4.217500   -0.392900
  H     -4.457600   -5.055100   -1.388000
  H     -3.483300   -7.305800   -0.963000
  H     -1.101700   -7.479200   -0.229000
  H     -0.682200   -3.369300   -0.189200
  C      0.317800    3.960200   -5.896600
  C      0.175100    5.127600   -6.180800
  C      0.079300    6.467200   -6.606100
  C      0.205000    6.764000   -7.951200
  C      0.175800    8.086900   -8.404600
  C      0.031300    9.131200   -7.525700
  C     -0.113700    8.876300   -6.150100
  C     -0.263500    9.905900   -5.193600
  C     -0.424400    9.590700   -3.876100
  N     -0.465300    8.305700   -3.443600
  C     -0.307000    7.317000   -4.301400
  C     -0.109100    7.532100   -5.675000
  H      0.340200    5.960900   -8.659500
  H      0.280100    8.280700   -9.461200
  H      0.026100   10.151400   -7.875800
  H     -0.250000   10.934600   -5.516600
  H     -0.529400   10.359400   -3.112200
  H     -0.342800    6.304100   -3.906200
  C      0.503300    2.604200   -5.557200
  C     -0.168300    1.604300   -6.269400
  C      0.021300    0.277700   -5.946700
  C      0.887000   -0.073400   -4.905300
  C      1.569900    0.925900   -4.202500
  C      1.378900    2.251600   -4.523900
  H     -0.836100    1.879000   -7.071700
  H     -0.499500   -0.493800   -6.493000
  H      2.253800    0.647600   -3.416400
  H      1.915700    3.023200   -3.994900
  C      1.051700   -1.422700   -4.535600
  C      1.177100   -2.569500   -4.173400
  C      1.261100   -3.894700   -3.704600
  C      1.178800   -5.000100   -4.562400
  C      1.214700   -6.273000   -4.021100
  C      1.302100   -6.425700   -2.645400
  N      1.381200   -5.370100   -1.830900
  C      1.383200   -4.136800   -2.333700
  H      1.086300   -4.851100   -5.626900
  H      1.160300   -7.142100   -4.656500
  H      1.308500   -7.406200   -2.176500
  H      1.478900   -3.315400   -1.625700

 Total Charge           Charge          ....    4
 Multiplicity           Mult            ....    1
 Number of Electrons    NEL             ....  720
 Basis Dimension        Dim             .... 1798

ORBITAL ENERGIES
----------------

  NO   OCC          E(Eh)            E(eV)
   0   2.0000     -14.748175      -401.3182
   1   2.0000     -14.748055      -401.3150
   2   2.0000     -14.747214      -401.2921
   3   2.0000     -14.747190      -401.2914
   4   2.0000     -14.735816      -400.9820
   5   2.0000     -14.735798      -400.9815
   6   2.0000     -14.735686      -400.9784
   7   2.0000     -14.735597      -400.9760
   8   2.0000     -10.582172      -287.9555
   9   2.0000     -10.582074      -287.9529
  10   2.0000     -10.581393      -287.9344
  11   2.0000     -10.581382      -287.9340
  12   2.0000     -10.576359      -287.7974
  13   2.0000     -10.576243      -287.7942
  14   2.0000     -10.575856      -287.7837
  15   2.0000     -10.575817      -287.7826
  16   2.0000     -10.572631      -287.6959
  17   2.0000     -10.572596      -287.6949
  18   2.0000     -10.572595      -287.6949
  19   2.0000     -10.572491      -287.6921
  20   2.0000     -10.561702      -287.3985
  21   2.0000     -10.561628      -287.3965
  22   2.0000     -10.560709      -287.3715
  23   2.0000     -10.560705      -287.3714
  24   2.0000     -10.557947      -287.2964
  25   2.0000     -10.557945      -287.2963
  26   2.0000     -10.557777      -287.2917
  27   2.0000     -10.557642      -287.2880
  28   2.0000     -10.544474      -286.9297
  29   2.0000     -10.544397      -286.9276
  30   2.0000     -10.543556      -286.9047
  31   2.0000     -10.543549      -286.9046
  32   2.0000     -10.535962      -286.6981
  33   2.0000     -10.535879      -286.6958
  34   2.0000     -10.535273      -286.6794
  35   2.0000     -10.535271      -286.6793
  36   2.0000     -10.532495      -286.6038
  37   2.0000     -10.532478      -286.6033
  38   2.0000     -10.532072      -286.5923
  39   2.0000     -10.532046      -286.5915
  40   2.0000     -10.531753      -286.5836
  41   2.0000     -10.531646      -286.5807
  42   2.0000     -10.531390      -286.5737
  43   2.0000     -10.531288      -286.5709
  44   2.0000     -10.529846      -286.5317
  45   2.0000     -10.529827      -286.5311
  46   2.0000     -10.529312      -286.5171
  47   2.0000     -10.529196      -286.5140
  48   2.0000     -10.523334      -286.3545
  49   2.0000     -10.523307      -286.3537
  50   2.0000     -10.523232      -286.3517
  51   2.0000     -10.523216      -286.3513
  52   2.0000     -10.523057      -286.3469
  53   2.0000     -10.523039      -286.3465
  54   2.0000     -10.522879      -286.3421
  55   2.0000     -10.522746      -286.3385
  56   2.0000     -10.520465      -286.2764
  57   2.0000     -10.520433      -286.2755
  58   2.0000     -10.520022      -286.2643
  59   2.0000     -10.519940      -286.2621
  60   2.0000     -10.514099      -286.1032
  61   2.0000     -10.514079      -286.1026
  62   2.0000     -10.512051      -286.0475
  63   2.0000     -10.512044      -286.0473
  64   2.0000     -10.507361      -285.9198
  65   2.0000     -10.507332      -285.9190
  66   2.0000     -10.506795      -285.9044
  67   2.0000     -10.506778      -285.9040
  68   2.0000     -10.505934      -285.8810
  69   2.0000     -10.505924      -285.8807
  70   2.0000     -10.505746      -285.8759
  71   2.0000     -10.505725      -285.8753
  72   2.0000     -10.504541      -285.8431
  73   2.0000     -10.504518      -285.8425
  74   2.0000     -10.504508      -285.8422
  75   2.0000     -10.504435      -285.8402
  76   2.0000     -10.502368      -285.7840
  77   2.0000     -10.502284      -285.7817
  78   2.0000     -10.501469      -285.7595
  79   2.0000     -10.501448      -285.7589
  80   2.0000     -10.500840      -285.7424
  81   2.0000     -10.500793      -285.7411
  82   2.0000     -10.500780      -285.7407
  83   2.0000     -10.500779      -285.7407
  84   2.0000     -10.500759      -285.7402
  85   2.0000     -10.500680      -285.7380
  86   2.0000     -10.500424      -285.7311
  87   2.0000     -10.500416      -285.7308
  88   2.0000     -10.500016      -285.7200
  89   2.0000     -10.499987      -285.7192
  90   2.0000     -10.499956      -285.7183
  91   2.0000     -10.499908      -285.7170
  92   2.0000     -10.498338      -285.6743
  93   2.0000     -10.498287      -285.6729
  94   2.0000     -10.498100      -285.6678
  95   2.0000     -10.498085      -285.6674
  96   2.0000     -10.498077      -285.6672
  97   2.0000     -10.497997      -285.6650
  98   2.0000     -10.497212      -285.6436
  99   2.0000     -10.497180      -285.6428
 100   2.0000     -10.496098      -285.6133
 101   2.0000     -10.496048      -285.6120
 102   2.0000     -10.494925      -285.5814
 103   2.0000     -10.494839      -285.5791
 104   2.0000      -3.841416      -104.5302
 105   2.0000      -3.841361      -104.5287
 106   2.0000      -2.519616       -68.5622
 107   2.0000      -2.519561       -68.5607
 108   2.0000      -2.517784       -68.5124
 109   2.0000      -2.517730       -68.5109
 110   2.0000      -2.482059       -67.5403
 111   2.0000      -2.482000       -67.5386
 112   2.0000      -1.300463       -35.3874
 113   2.0000      -1.300414       -35.3861
 114   2.0000      -1.293719       -35.2039
 115   2.0000      -1.293630       -35.2015
 116   2.0000      -1.283720       -34.9318
 117   2.0000      -1.283622       -34.9291
 118   2.0000      -1.280173       -34.8353
 119   2.0000      -1.280096       -34.8332
 120   2.0000      -1.163896       -31.6712
 121   2.0000      -1.163853       -31.6700
 122   2.0000      -1.162919       -31.6446
 123   2.0000      -1.162817       -31.6419
 124   2.0000      -1.157013       -31.4839
 125   2.0000      -1.156973       -31.4828
 126   2.0000      -1.153942       -31.4004
 127   2.0000      -1.153878       -31.3986
 128   2.0000      -1.139246       -31.0005
 129   2.0000      -1.139166       -30.9983
 130   2.0000      -1.137362       -30.9492
 131   2.0000      -1.137330       -30.9483
 132   2.0000      -1.102266       -29.9942
 133   2.0000      -1.101665       -29.9778
 134   2.0000      -1.100745       -29.9528
 135   2.0000      -1.100656       -29.9504
 136   2.0000      -1.100293       -29.9405
 137   2.0000      -1.099506       -29.9191
 138   2.0000      -1.097758       -29.8715
 139   2.0000      -1.097442       -29.8629
 140   2.0000      -1.083892       -29.4942
 141   2.0000      -1.083830       -29.4925
 142   2.0000      -1.081513       -29.4295
 143   2.0000      -1.081360       -29.4253
 144   2.0000      -1.068176       -29.0665
 145   2.0000      -1.068124       -29.0651
 146   2.0000      -1.066624       -29.0243
 147   2.0000      -1.066541       -29.0221
 148   2.0000      -1.054569       -28.6963
 149   2.0000      -1.054511       -28.6947
 150   2.0000      -1.053112       -28.6566
 151   2.0000      -1.052698       -28.6454
 152   2.0000      -1.033345       -28.1188
 153   2.0000      -1.033302       -28.1176
 154   2.0000      -1.030637       -28.0451
 155   2.0000      -1.030577       -28.0434
 156   2.0000      -1.029656       -28.0184
 157   2.0000      -1.029599       -28.0168
 158   2.0000      -1.028692       -27.9921
 159   2.0000      -1.028266       -27.9805
 160   2.0000      -1.000519       -27.2255
 161   2.0000      -1.000410       -27.2225
 162   2.0000      -0.998667       -27.1751
 163   2.0000      -0.998262       -27.1641
 164   2.0000      -0.967486       -26.3266
 165   2.0000      -0.967394       -26.3241
 166   2.0000      -0.964636       -26.2491
 167   2.0000      -0.964535       -26.2463
 168   2.0000      -0.956048       -26.0154
 169   2.0000      -0.955824       -26.0093
 170   2.0000      -0.953030       -25.9333
 171   2.0000      -0.952458       -25.9177
 172   2.0000      -0.949258       -25.8306
 173   2.0000      -0.949081       -25.8258
 174   2.0000      -0.947142       -25.7730
 175   2.0000      -0.947026       -25.7699
 176   2.0000      -0.934776       -25.4366
 177   2.0000      -0.933490       -25.4015
 178   2.0000      -0.932296       -25.3691
 179   2.0000      -0.932160       -25.3654
 180   2.0000      -0.921785       -25.0831
 181   2.0000      -0.921119       -25.0649
 182   2.0000      -0.919805       -25.0292
 183   2.0000      -0.919318       -25.0159
 184   2.0000      -0.900530       -24.5047
 185   2.0000      -0.899615       -24.4798
 186   2.0000      -0.898413       -24.4471
 187   2.0000      -0.897954       -24.4346
 188   2.0000      -0.892171       -24.2772
 189   2.0000      -0.892154       -24.2767
 190   2.0000      -0.888753       -24.1842
 191   2.0000      -0.888681       -24.1822
 192   2.0000      -0.872164       -23.7328
 193   2.0000      -0.870103       -23.6767
 194   2.0000      -0.864823       -23.5330
 195   2.0000      -0.864080       -23.5128
 196   2.0000      -0.844113       -22.9695
 197   2.0000      -0.842667       -22.9301
 198   2.0000      -0.841242       -22.8914
 199   2.0000      -0.840597       -22.8738
 200   2.0000      -0.826803       -22.4985
 201   2.0000      -0.826209       -22.4823
 202   2.0000      -0.824122       -22.4255
 203   2.0000      -0.824082       -22.4244
 204   2.0000      -0.823086       -22.3973
 205   2.0000      -0.822888       -22.3919
 206   2.0000      -0.821599       -22.3568
 207   2.0000      -0.821468       -22.3533
 208   2.0000      -0.818115       -22.2620
 209   2.0000      -0.817558       -22.2469
 210   2.0000      -0.815962       -22.2035
 211   2.0000      -0.815489       -22.1906
 212   2.0000      -0.808521       -22.0010
 213   2.0000      -0.808379       -21.9971
 214   2.0000      -0.807401       -21.9705
 215   2.0000      -0.806837       -21.9551
 216   2.0000      -0.806403       -21.9434
 217   2.0000      -0.805089       -21.9076
 218   2.0000      -0.803604       -21.8672
 219   2.0000      -0.802523       -21.8378
 220   2.0000      -0.786538       -21.4028
 221   2.0000      -0.786346       -21.3976
 222   2.0000      -0.784091       -21.3362
 223   2.0000      -0.783315       -21.3151
 224   2.0000      -0.775970       -21.1152
 225   2.0000      -0.775927       -21.1140
 226   2.0000      -0.767644       -20.8887
 227   2.0000      -0.766756       -20.8645
 228   2.0000      -0.766398       -20.8547
 229   2.0000      -0.765147       -20.8207
 230   2.0000      -0.756519       -20.5859
 231   2.0000      -0.755564       -20.5599
 232   2.0000      -0.755246       -20.5513
 233   2.0000      -0.754512       -20.5313
 234   2.0000      -0.752155       -20.4672
 235   2.0000      -0.751798       -20.4575
 236   2.0000      -0.751033       -20.4367
 237   2.0000      -0.750838       -20.4313
 238   2.0000      -0.748466       -20.3668
 239   2.0000      -0.748341       -20.3634
 240   2.0000      -0.748107       -20.3570
 241   2.0000      -0.748054       -20.3556
 242   2.0000      -0.747080       -20.3291
 243   2.0000      -0.746986       -20.3265
 244   2.0000      -0.744303       -20.2535
 245   2.0000      -0.744228       -20.2515
 246   2.0000      -0.740736       -20.1564
 247   2.0000      -0.740543       -20.1512
 248   2.0000      -0.735524       -20.0146
 249   2.0000      -0.735428       -20.0120
 250   2.0000      -0.725879       -19.7522
 251   2.0000      -0.725818       -19.7505
 252   2.0000      -0.724876       -19.7249
 253   2.0000      -0.724783       -19.7223
 254   2.0000      -0.720690       -19.6110
 255   2.0000      -0.720646       -19.6098
 256   2.0000      -0.720138       -19.5960
 257   2.0000      -0.720074       -19.5942
 258   2.0000      -0.718121       -19.5411
 259   2.0000      -0.718056       -19.5393
 260   2.0000      -0.713546       -19.4166
 261   2.0000      -0.713494       -19.4152
 262   2.0000      -0.709608       -19.3094
 263   2.0000      -0.709518       -19.3070
 264   2.0000      -0.702347       -19.1118
 265   2.0000      -0.702209       -19.1081
 266   2.0000      -0.698254       -19.0005
 267   2.0000      -0.698189       -18.9987
 268   2.0000      -0.696172       -18.9438
 269   2.0000      -0.695837       -18.9347
 270   2.0000      -0.690729       -18.7957
 271   2.0000      -0.690485       -18.7891
 272   2.0000      -0.689609       -18.7652
 273   2.0000      -0.689421       -18.7601
 274   2.0000      -0.687726       -18.7140
 275   2.0000      -0.687520       -18.7084
 276   2.0000      -0.679074       -18.4785
 277   2.0000      -0.678109       -18.4523
 278   2.0000      -0.677816       -18.4443
 279   2.0000      -0.677044       -18.4233
 280   2.0000      -0.676869       -18.4185
 281   2.0000      -0.676335       -18.4040
 282   2.0000      -0.673798       -18.3350
 283   2.0000      -0.670913       -18.2565
 284   2.0000      -0.670080       -18.2338
 285   2.0000      -0.667655       -18.1678
 286   2.0000      -0.659788       -17.9537
 287   2.0000      -0.657906       -17.9025
 288   2.0000      -0.654755       -17.8168
 289   2.0000      -0.654248       -17.8030
 290   2.0000      -0.654177       -17.8011
 291   2.0000      -0.651935       -17.7401
 292   2.0000      -0.650944       -17.7131
 293   2.0000      -0.650714       -17.7068
 294   2.0000      -0.645914       -17.5762
 295   2.0000      -0.645842       -17.5742
 296   2.0000      -0.644443       -17.5362
 297   2.0000      -0.641657       -17.4604
 298   2.0000      -0.637014       -17.3340
 299   2.0000      -0.634136       -17.2557
 300   2.0000      -0.631931       -17.1957
 301   2.0000      -0.631827       -17.1929
 302   2.0000      -0.630912       -17.1680
 303   2.0000      -0.630801       -17.1650
 304   2.0000      -0.630020       -17.1437
 305   2.0000      -0.629491       -17.1293
 306   2.0000      -0.628279       -17.0963
 307   2.0000      -0.626040       -17.0354
 308   2.0000      -0.625266       -17.0144
 309   2.0000      -0.620653       -16.8888
 310   2.0000      -0.619161       -16.8482
 311   2.0000      -0.617932       -16.8148
 312   2.0000      -0.617014       -16.7898
 313   2.0000      -0.616835       -16.7849
 314   2.0000      -0.611986       -16.6530
 315   2.0000      -0.610714       -16.6184
 316   2.0000      -0.609830       -16.5943
 317   2.0000      -0.609740       -16.5919
 318   2.0000      -0.609038       -16.5728
 319   2.0000      -0.608330       -16.5535
 320   2.0000      -0.608027       -16.5452
 321   2.0000      -0.600853       -16.3500
 322   2.0000      -0.596560       -16.2332
 323   2.0000      -0.594791       -16.1851
 324   2.0000      -0.592691       -16.1279
 325   2.0000      -0.588452       -16.0126
 326   2.0000      -0.586840       -15.9687
 327   2.0000      -0.586295       -15.9539
 328   2.0000      -0.583885       -15.8883
 329   2.0000      -0.582868       -15.8606
 330   2.0000      -0.564361       -15.3571
 331   2.0000      -0.563797       -15.3417
 332   2.0000      -0.560469       -15.2511
 333   2.0000      -0.560022       -15.2390
 334   2.0000      -0.558141       -15.1878
 335   2.0000      -0.557981       -15.1834
 336   2.0000      -0.553755       -15.0684
 337   2.0000      -0.553379       -15.0582
 338   2.0000      -0.551598       -15.0097
 339   2.0000      -0.551315       -15.0020
 340   2.0000      -0.550603       -14.9827
 341   2.0000      -0.550511       -14.9802
 342   2.0000      -0.548832       -14.9345
 343   2.0000      -0.548309       -14.9202
 344   2.0000      -0.547728       -14.9044
 345   2.0000      -0.547474       -14.8975
 346   2.0000      -0.541296       -14.7294
 347   2.0000      -0.540977       -14.7207
 348   2.0000      -0.534277       -14.5384
 349   2.0000      -0.534222       -14.5369
 350   2.0000      -0.530774       -14.4431
 351   2.0000      -0.530729       -14.4419
 352   2.0000      -0.517962       -14.0945
 353   2.0000      -0.517183       -14.0733
 354   2.0000      -0.508859       -13.8468
 355   2.0000      -0.508607       -13.8399
 356   2.0000      -0.483085       -13.1454
 357   2.0000      -0.482559       -13.1311
 358   2.0000      -0.479542       -13.0490
 359   2.0000      -0.479497       -13.0478
 360   0.0000      -0.351417        -9.5625
 361   0.0000      -0.348381        -9.4799
 362   0.0000      -0.343942        -9.3591
 363   0.0000      -0.342863        -9.3298
 364   0.0000      -0.340614        -9.2686

MULLIKEN ATOMIC CHARGES
-----------------------
   0 Pd:    0.385986
   1 Pd:    0.385880
   2 C :    0.014599
   3 C :   -0.059520
   4 C :   -0.006538
   5 C :    0.026189
   6 C :    0.032260
   7 C :    0.021153
   8 C :    0.028059
   9 C :    0.000674
  10 C :    0.124550
  11 N :   -0.307738
  12 C :    0.165208
  13 C :   -0.007842
  14 H :    0.053758
  15 H :    0.076821
  16 H :    0.054488
  17 H :    0.062617
  18 H :    0.069405
  19 H :    0.050730
  20 C :   -0.047780
  21 C :    0.014863
  22 C :    0.023855
  23 C :   -0.071054
  24 C :    0.039591
  25 C :    0.031430
  26 H :    0.002050
  27 H :    0.009682
  28 H :    0.049002
  29 H :    0.051016
  30 C :    0.035406
  31 C :   -0.017504
  32 C :   -0.107725
  33 C :    0.113919
  34 C :   -0.023517
  35 C :    0.134195
  36 N :   -0.302427
  37 C :    0.165428
  38 H :    0.076475
  39 H :    0.085610
  40 H :    0.090013
  41 H :    0.055449
  42 C :    0.022715
  43 C :   -0.065256
  44 C :   -0.012546
  45 C :    0.029418
  46 C :    0.031771
  47 C :    0.020767
  48 C :    0.026867
  49 C :    0.001610
  50 C :    0.123263
  51 N :   -0.308603
  52 C :    0.160437
  53 C :   -0.005572
  54 H :    0.055328
  55 H :    0.076785
  56 H :    0.054004
  57 H :    0.062229
  58 H :    0.069024
  59 H :    0.055903
  60 C :   -0.067267
  61 C :    0.015677
  62 C :    0.019829
  63 C :   -0.073316
  64 C :    0.035723
  65 C :    0.032172
  66 H :    0.018855
  67 H :    0.022046
  68 H :    0.044516
  69 H :    0.047516
  70 C :    0.040463
  71 C :   -0.016482
  72 C :   -0.111257
  73 C :    0.115770
  74 C :   -0.023753
  75 C :    0.133995
  76 N :   -0.300100
  77 C :    0.165045
  78 H :    0.077718
  79 H :    0.085627
  80 H :    0.090291
  81 H :    0.056079
  82 C :    0.014755
  83 C :   -0.059621
  84 C :   -0.006585
  85 C :    0.026166
  86 C :    0.032257
  87 C :    0.021137
  88 C :    0.027980
  89 C :    0.000707
  90 C :    0.124855
  91 N :   -0.307660
  92 C :    0.165286
  93 C :   -0.007893
  94 H :    0.053730
  95 H :    0.076838
  96 H :    0.054500
  97 H :    0.062601
  98 H :    0.069241
  99 H :    0.050841
 100 C :   -0.047948
 101 C :    0.015236
 102 C :    0.024105
 103 C :   -0.070703
 104 C :    0.039534
 105 C :    0.031558
 106 H :    0.001858
 107 H :    0.009282
 108 H :    0.049023
 109 H :    0.050968
 110 C :    0.035798
 111 C :   -0.017982
 112 C :   -0.107820
 113 C :    0.113905
 114 C :   -0.023501
 115 C :    0.133841
 116 N :   -0.302554
 117 C :    0.165837
 118 H :    0.076436
 119 H :    0.085584
 120 H :    0.090354
 121 H :    0.055282
 122 C :    0.022568
 123 C :   -0.064878
 124 C :   -0.012714
 125 C :    0.029472
 126 C :    0.031709
 127 C :    0.020775
 128 C :    0.026915
 129 C :    0.001575
 130 C :    0.123069
 131 N :   -0.308587
 132 C :    0.160329
 133 C :   -0.005622
 134 H :    0.055447
 135 H :    0.076860
 136 H :    0.053974
 137 H :    0.062202
 138 H :    0.069043
 139 H :    0.055896
 140 C :   -0.067490
 141 C :    0.032305
 142 C :    0.035895
 143 C :   -0.072560
 144 C :    0.019734
 145 C :    0.015753
 146 H :    0.047554
 147 H :    0.044636
 148 H :    0.021469
 149 H :    0.018936
 150 C :    0.039962
 151 C :   -0.016360
 152 C :   -0.110492
 153 C :    0.115537
 154 C :   -0.023807
 155 C :    0.134052
 156 N :   -0.300097
 157 C :    0.164062
 158 H :    0.077479
 159 H :    0.085545
 160 H :    0.090273
 161 H :    0.056342
Sum of atomic charges:    4.0000000

LOEWDIN ATOMIC CHARGES
----------------------
   0 Pd:   -0.346626
   1 Pd:   -0.346654
   2 C :   -0.007053
   3 C :   -0.027384
   4 C :   -0.026951
   5 C :    0.037649
   6 C :    0.032819
   7 C :    0.012453
   8 C :    0.009938
   9 C :    0.018446
  10 C :    0.040276
  11 N :    0.062429
  12 C :    0.093930
  13 C :   -0.018728
  14 H :    0.057628
  15 H :    0.061801
  16 H :    0.055270
  17 H :    0.062714
  18 H :    0.052859
  19 H :    0.050599
  20 C :   -0.035809
  21 C :   -0.007495
  22 C :    0.000173
  23 C :   -0.051701
  24 C :    0.022783
  25 C :    0.020455
  26 H :    0.033001
  27 H :    0.036481
  28 H :    0.053471
  29 H :    0.054303
  30 C :    0.027171
  31 C :   -0.052016
  32 C :   -0.034441
  33 C :    0.068733
  34 C :    0.004957
  35 C :    0.070318
  36 N :    0.071739
  37 C :    0.078219
  38 H :    0.065520
  39 H :    0.067550
  40 H :    0.058163
  41 H :    0.053267
  42 C :   -0.005058
  43 C :   -0.032582
  44 C :   -0.026501
  45 C :    0.037711
  46 C :    0.033327
  47 C :    0.011258
  48 C :    0.009736
  49 C :    0.018241
  50 C :    0.038710
  51 N :    0.061273
  52 C :    0.093728
  53 C :   -0.019654
  54 H :    0.058443
  55 H :    0.061726
  56 H :    0.055036
  57 H :    0.062554
  58 H :    0.052952
  59 H :    0.051304
  60 C :   -0.040898
  61 C :   -0.002990
  62 C :    0.002587
  63 C :   -0.051989
  64 C :    0.018532
  65 C :    0.016051
  66 H :    0.039746
  67 H :    0.041038
  68 H :    0.051219
  69 H :    0.052608
  70 C :    0.029729
  71 C :   -0.052318
  72 C :   -0.033357
  73 C :    0.069737
  74 C :    0.005099
  75 C :    0.070466
  76 N :    0.071028
  77 C :    0.079679
  78 H :    0.066066
  79 H :    0.067478
  80 H :    0.058209
  81 H :    0.053341
  82 C :   -0.007018
  83 C :   -0.027387
  84 C :   -0.026988
  85 C :    0.037658
  86 C :    0.032791
  87 C :    0.012440
  88 C :    0.009934
  89 C :    0.018469
  90 C :    0.040266
  91 N :    0.062436
  92 C :    0.093971
  93 C :   -0.018714
  94 H :    0.057612
  95 H :    0.061812
  96 H :    0.055274
  97 H :    0.062700
  98 H :    0.052842
  99 H :    0.050626
 100 C :   -0.035732
 101 C :   -0.007383
 102 C :    0.000201
 103 C :   -0.051617
 104 C :    0.022831
 105 C :    0.020491
 106 H :    0.032954
 107 H :    0.036322
 108 H :    0.053490
 109 H :    0.054281
 110 C :    0.027123
 111 C :   -0.051986
 112 C :   -0.034507
 113 C :    0.068644
 114 C :    0.004959
 115 C :    0.070295
 116 N :    0.071664
 117 C :    0.078180
 118 H :    0.065490
 119 H :    0.067530
 120 H :    0.058242
 121 H :    0.053204
 122 C :   -0.005032
 123 C :   -0.032513
 124 C :   -0.026530
 125 C :    0.037707
 126 C :    0.033320
 127 C :    0.011250
 128 C :    0.009703
 129 C :    0.018239
 130 C :    0.038658
 131 N :    0.061258
 132 C :    0.093721
 133 C :   -0.019629
 134 H :    0.058494
 135 H :    0.061761
 136 H :    0.055025
 137 H :    0.062545
 138 H :    0.052908
 139 H :    0.051317
 140 C :   -0.040821
 141 C :    0.016059
 142 C :    0.018774
 143 C :   -0.051902
 144 C :    0.002658
 145 C :   -0.002965
 146 H :    0.052624
 147 H :    0.051281
 148 H :    0.040823
 149 H :    0.039775
 150 C :    0.029722
 151 C :   -0.052308
 152 C :   -0.033361
 153 C :    0.069665
 154 C :    0.005013
 155 C :    0.070305
 156 N :    0.070988
 157 C :    0.079561
 158 H :    0.065959
 159 H :    0.067449
 160 H :    0.058183
 161 H :    0.053395

  Mayer bond orders larger than 0.100000
B(  0-Pd, 36-N ) :   0.5335 B(  0-Pd, 76-N ) :   0.5365 B(  0-Pd, 91-N ) :   0.5628
B(  0-Pd,131-N ) :   0.5607 B(  1-Pd, 11-N ) :   0.5627 B(  1-Pd, 51-N ) :   0.5611
B(  1-Pd,116-N ) :   0.5337 B(  1-Pd,156-N ) :   0.5363 B(  2-C ,  3-C ) :   2.5839
B(  2-C , 20-C ) :   1.0209 B(  3-C ,  4-C ) :   1.0076 B(  4-C ,  5-C ) :   1.4508
B(  4-C , 13-C ) :   1.2094 B(  5-C ,  6-C ) :   1.2684 B(  5-C , 14-H ) :   0.9925
B(  6-C ,  7-C ) :   1.4532 B(  6-C , 15-H ) :   0.9809 B(  7-C ,  8-C ) :   1.2681
B(  7-C , 16-H ) :   0.9946 B(  8-C ,  9-C ) :   1.2498 B(  8-C , 13-C ) :   1.2189
B(  9-C , 10-C ) :   1.5537 B(  9-C , 17-H ) :   0.9740 B( 10-C , 11-N ) :   1.1941
B( 10-C , 18-H ) :   0.9489 B( 11-N , 12-C ) :   1.4042 B( 12-C , 13-C ) :   1.3351
B( 12-C , 19-H ) :   0.9376 B( 20-C , 21-C ) :   1.3181 B( 20-C , 25-C ) :   1.3215
B( 21-C , 22-C ) :   1.4047 B( 21-C , 26-H ) :   0.9937 B( 22-C , 23-C ) :   1.3196
B( 22-C , 27-H ) :   0.9924 B( 23-C , 24-C ) :   1.3128 B( 23-C , 30-C ) :   1.0278
B( 24-C , 25-C ) :   1.4035 B( 24-C , 28-H ) :   0.9952 B( 25-C , 29-H ) :   0.9939
B( 30-C , 31-C ) :   2.5852 B( 31-C , 32-C ) :   1.0198 B( 32-C , 33-C ) :   1.3370
B( 32-C , 37-C ) :   1.3707 B( 33-C , 34-C ) :   1.4038 B( 33-C , 38-H ) :   0.9871
B( 34-C , 35-C ) :   1.4177 B( 34-C , 39-H ) :   0.9722 B( 35-C , 36-N ) :   1.3190
B( 35-C , 40-H ) :   0.9516 B( 36-N , 37-C ) :   1.3318 B( 37-C , 41-H ) :   0.9625
B( 42-C , 43-C ) :   2.5931 B( 42-C , 60-C ) :   1.0093 B( 43-C , 44-C ) :   0.9978
B( 44-C , 45-C ) :   1.4609 B( 44-C , 53-C ) :   1.2119 B( 45-C , 46-C ) :   1.2652
B( 45-C , 54-H ) :   0.9923 B( 46-C , 47-C ) :   1.4548 B( 46-C , 55-H ) :   0.9809
B( 47-C , 48-C ) :   1.2692 B( 47-C , 56-H ) :   0.9948 B( 48-C , 49-C ) :   1.2498
B( 48-C , 53-C ) :   1.2176 B( 49-C , 50-C ) :   1.5552 B( 49-C , 57-H ) :   0.9739
B( 50-C , 51-N ) :   1.1906 B( 50-C , 58-H ) :   0.9477 B( 51-N , 52-C ) :   1.4093
B( 52-C , 53-C ) :   1.3318 B( 52-C , 59-H ) :   0.9373 B( 60-C , 61-C ) :   1.3246
B( 60-C , 65-C ) :   1.3260 B( 61-C , 62-C ) :   1.4011 B( 61-C , 66-H ) :   0.9946
B( 62-C , 63-C ) :   1.3206 B( 62-C , 67-H ) :   0.9939 B( 63-C , 64-C ) :   1.3197
B( 63-C , 70-C ) :   1.0224 B( 64-C , 65-C ) :   1.3995 B( 64-C , 68-H ) :   0.9948
B( 65-C , 69-H ) :   0.9942 B( 70-C , 71-C ) :   2.5921 B( 71-C , 72-C ) :   1.0177
B( 72-C , 73-C ) :   1.3404 B( 72-C , 77-C ) :   1.3738 B( 73-C , 74-C ) :   1.4007
B( 73-C , 78-H ) :   0.9867 B( 74-C , 75-C ) :   1.4198 B( 74-C , 79-H ) :   0.9720
B( 75-C , 76-N ) :   1.3178 B( 75-C , 80-H ) :   0.9517 B( 76-N , 77-C ) :   1.3302
B( 77-C , 81-H ) :   0.9644 B( 82-C , 83-C ) :   2.5836 B( 82-C ,100-C ) :   1.0211
B( 83-C , 84-C ) :   1.0077 B( 84-C , 85-C ) :   1.4509 B( 84-C , 93-C ) :   1.2092
B( 85-C , 86-C ) :   1.2683 B( 85-C , 94-H ) :   0.9925 B( 86-C , 87-C ) :   1.4533
B( 86-C , 95-H ) :   0.9809 B( 87-C , 88-C ) :   1.2680 B( 87-C , 96-H ) :   0.9946
B( 88-C , 89-C ) :   1.2499 B( 88-C , 93-C ) :   1.2190 B( 89-C , 90-C ) :   1.5536
B( 89-C , 97-H ) :   0.9740 B( 90-C , 91-N ) :   1.1943 B( 90-C , 98-H ) :   0.9488
B( 91-N , 92-C ) :   1.4042 B( 92-C , 93-C ) :   1.3351 B( 92-C , 99-H ) :   0.9376
B(100-C ,101-C ) :   1.3180 B(100-C ,105-C ) :   1.3213 B(101-C ,102-C ) :   1.4050
B(101-C ,106-H ) :   0.9937 B(102-C ,103-C ) :   1.3193 B(102-C ,107-H ) :   0.9923
B(103-C ,104-C ) :   1.3127 B(103-C ,110-C ) :   1.0281 B(104-C ,105-C ) :   1.4035
B(104-C ,108-H ) :   0.9952 B(105-C ,109-H ) :   0.9939 B(110-C ,111-C ) :   2.5848
B(111-C ,112-C ) :   1.0204 B(112-C ,113-C ) :   1.3365 B(112-C ,117-C ) :   1.3705
B(113-C ,114-C ) :   1.4039 B(113-C ,118-H ) :   0.9871 B(114-C ,115-C ) :   1.4174
B(114-C ,119-H ) :   0.9723 B(115-C ,116-N ) :   1.3190 B(115-C ,120-H ) :   0.9516
B(116-N ,117-C ) :   1.3320 B(117-C ,121-H ) :   0.9622 B(122-C ,123-C ) :   2.5931
B(122-C ,140-C ) :   1.0092 B(123-C ,124-C ) :   0.9975 B(124-C ,125-C ) :   1.4610
B(124-C ,133-C ) :   1.2121 B(125-C ,126-C ) :   1.2652 B(125-C ,134-H ) :   0.9923
B(126-C ,127-C ) :   1.4548 B(126-C ,135-H ) :   0.9809 B(127-C ,128-C ) :   1.2692
B(127-C ,136-H ) :   0.9948 B(128-C ,129-C ) :   1.2498 B(128-C ,133-C ) :   1.2176
B(129-C ,130-C ) :   1.5551 B(129-C ,137-H ) :   0.9739 B(130-C ,131-N ) :   1.1906
B(130-C ,138-H ) :   0.9479 B(131-N ,132-C ) :   1.4094 B(132-C ,133-C ) :   1.3316
B(132-C ,139-H ) :   0.9374 B(140-C ,141-C ) :   1.3260 B(140-C ,145-C ) :   1.3247
B(141-C ,142-C ) :   1.3994 B(141-C ,146-H ) :   0.9943 B(142-C ,143-C ) :   1.3192
B(142-C ,147-H ) :   0.9948 B(143-C ,144-C ) :   1.3205 B(143-C ,150-C ) :   1.0228
B(144-C ,145-C ) :   1.4013 B(144-C ,148-H ) :   0.9939 B(145-C ,149-H ) :   0.9946
B(150-C ,151-C ) :   2.5917 B(151-C ,152-C ) :   1.0180 B(152-C ,153-C ) :   1.3399
B(152-C ,157-C ) :   1.3733 B(153-C ,154-C ) :   1.4010 B(153-C ,158-H ) :   0.9868
B(154-C ,155-C ) :   1.4195 B(154-C ,159-H ) :   0.9720 B(155-C ,156-N ) :   1.3179
B(155-C ,160-H ) :   0.9517 B(156-N ,157-C ) :   1.3300 B(157-C ,161-H ) :   0.9646

Dispersion correction           -0.256985787
FINAL SINGLE POINT ENERGY     -4376.862067043730

DIPOLE MOMENT
-------------
                                X             Y             Z
Electronic contribution:     -1.12041      -0.08292       1.23783
Nuclear contribution   :      1.12351       0.09828      -1.25394
                        -----------------------------------------
Total Dipole Moment    :      0.00311       0.01536      -0.01612
                        -----------------------------------------
Magnitude (a.u.)       :      0.02248
Magnitude (Debye)      :      0.05714

Rotational constants in cm-1:     0.000705     0.000247     0.000244
Rotational constants in MHz :    21.121070     7.397968     7.315323

                             ****ORCA TERMINATED NORMALLY****
TOTAL RUN TIME: 0 days 0 hours 15 minutes 33 seconds 171 msec
