                         Program Version 4.2.1 -  RELEASE  -
|  1> ! DFT SP B97-3c TightSCF printbasis  Grid6 NOFINALGRID SlowConv
|  2>
|  3> %base "_s_4b3_d_B97-3c"
|  4> %maxcore 3000
|  5> %scf
|  6>    MaxIter 2000
|  7> end
|  8> %pal
|  9>    nprocs 32
| 10> end
| 11>
| 12> * xyzfile 4 1 s_4b3_d.xyz
| 13>
| 14>                          ****END OF INPUT****

CARTESIAN COORDINATES (ANGSTROEM)
---------------------------------
  Pd    -0.566900    6.939200    0.026900
  Pd     0.514700   -6.950100   -0.029300
  C      5.075300   -2.615100   -0.171000
  C      5.314200   -3.801300   -0.152500
  C      5.704200   -5.153200   -0.139700
  C      7.052600   -5.467600   -0.139100
  C      7.485100   -6.796700   -0.138700
  C      6.582900   -7.831800   -0.137400
  C      5.203300   -7.560200   -0.130900
  C      4.226000   -8.581800   -0.122600
  C      2.901500   -8.255100   -0.106800
  N      2.481900   -6.963700   -0.096800
  C      3.359600   -5.983300   -0.108900
  C      4.745800   -6.210200   -0.129800
  H      7.780200   -4.670500   -0.144000
  H      8.544300   -7.003600   -0.141200
  H      6.918200   -8.856900   -0.139600
  H      4.540800   -9.613300   -0.127000
  H      2.125600   -9.026300   -0.100800
  H      2.973600   -4.969200   -0.098100
  C      4.791600   -1.235600   -0.182500
  C      5.747600   -0.326600    0.286900
  C      5.476900    1.024500    0.291300
  C      4.243200    1.493400   -0.172900
  C      3.293300    0.585800   -0.657300
  C      3.564800   -0.763800   -0.662600
  H      6.696700   -0.692000    0.649100
  H      6.212400    1.724600    0.657600
  H      2.351700    0.955000   -1.031600
  H      2.841200   -1.466300   -1.043800
  C      3.937200    2.867500   -0.144700
  C      3.639000    4.039100   -0.113300
  C      3.219500    5.382500   -0.073500
  C      4.119600    6.457800   -0.038600
  C      3.621700    7.747200   -0.002900
  C      2.248000    7.950000    0.001800
  N      1.397900    6.926100   -0.027100
  C      1.852400    5.673700   -0.065100
  H      5.182400    6.271900   -0.042100
  H      4.288500    8.593800    0.022000
  H      1.817000    8.944000    0.029100
  H      1.112800    4.866600   -0.087400
  C     -0.155900    2.948500    4.871300
  C     -0.251300    4.144200    5.032700
  C     -0.357900    5.514900    5.328800
  C     -0.377900    5.922100    6.652300
  C     -0.480000    7.273900    6.991600
  C     -0.564800    8.240500    6.019900
  C     -0.550600    7.874000    4.662600
  C     -0.637600    8.821600    3.616800
  C     -0.622200    8.403600    2.318400
  N     -0.524400    7.089700    1.989300
  C     -0.439800    6.176400    2.932900
  C     -0.446500    6.499500    4.299600
  H     -0.311800    5.180300    7.433500
  H     -0.491500    7.553700    8.033900
  H     -0.643300    9.283400    6.283500
  H     -0.716600    9.869400    3.859300
  H     -0.688600    9.116000    1.490700
  H     -0.363900    5.141000    2.617800
  C     -0.046700    1.556600    4.691300
  C     -0.109800    0.709700    5.805300
  C     -0.005100   -0.655000    5.647600
  C      0.164400   -1.200100    4.370300
  C      0.230600   -0.353100    3.256600
  C      0.126800    1.010100    3.414500
  H     -0.241700    1.134100    6.789200
  H     -0.054400   -1.306800    6.506700
  H      0.367400   -0.783200    2.278000
  H      0.183400    1.665800    2.560600
  C      0.267700   -2.590700    4.180200
  C      0.357300   -3.778700    3.971300
  C      0.458000   -5.144100    3.646000
  C      0.541200   -6.155000    4.615000
  C      0.637700   -7.471400    4.203100
  C      0.647500   -7.764600    2.845900
  N      0.567100   -6.801600    1.930200
  C      0.475800   -5.524900    2.300800
  H      0.529900   -5.899800    5.663200
  H      0.704300   -8.269900    4.924200
  H      0.720700   -8.782300    2.480900
  H      0.414400   -4.769700    1.510200
  C     -4.649000   -3.377200    0.249100
  C     -4.705600   -4.586000    0.269100
  C     -4.881600   -5.981300    0.292600
  C     -6.161100   -6.501000    0.394400
  C     -6.381800   -7.881000    0.411100
  C     -5.333500   -8.763900    0.327300
  C     -4.016400   -8.282000    0.227000
  C     -2.895800   -9.139900    0.141400
  C     -1.641000   -8.611900    0.053700
  N     -1.426400   -7.271000    0.047200
  C     -2.442900   -6.438600    0.121000
  C     -3.774100   -6.877500    0.210700
  H     -7.001100   -5.826300    0.458300
  H     -7.393100   -8.249500    0.489700
  H     -5.505800   -9.828600    0.338100
  H     -3.046800  -10.207700    0.148100
  H     -0.757400   -9.253100   -0.015300
  H     -2.218500   -5.377000    0.113400
  C     -4.579300   -1.971300    0.226700
  C     -5.705400   -1.214300    0.573100
  C     -5.648100    0.162400    0.556900
  C     -4.462000    0.810000    0.194300
  C     -3.338300    0.052900   -0.159800
  C     -3.396200   -1.322000   -0.143900
  H     -6.618500   -1.716800    0.854700
  H     -6.515900    0.745300    0.826300
  H     -2.431600    0.559000   -0.449800
  H     -2.536800   -1.910100   -0.422700
  C     -4.377600    2.215000    0.188100
  C     -4.267600    3.419400    0.182600
  C     -4.062900    4.812100    0.175200
  C     -5.116800    5.735400    0.242800
  C     -4.825400    7.087000    0.229400
  C     -3.502000    7.500600    0.152700
  N     -2.505300    6.620400    0.091300
  C     -2.759600    5.312100    0.099900
  H     -6.136200    5.387000    0.303000
  H     -5.614000    7.820200    0.278700
  H     -3.230300    8.549600    0.139900
  H     -1.905400    4.629000    0.048600
  C     -0.432300    3.018900   -4.856600
  C     -0.524300    4.215500   -5.012300
  C     -0.632900    5.589600   -5.291700
  C     -0.704500    6.012200   -6.608300
  C     -0.812700    7.368900   -6.926700
  C     -0.851300    8.324200   -5.941000
  C     -0.781600    7.941700   -4.589700
  C     -0.816600    8.876600   -3.529500
  C     -0.745000    8.442500   -2.238000
  N     -0.639700    7.124500   -1.929800
  C     -0.604300    6.222700   -2.887300
  C     -0.671100    6.562400   -4.248300
  H     -0.676000    5.279800   -7.400400
  H     -0.866100    7.661400   -7.964200
  H     -0.934800    9.370500   -6.189000
  H     -0.900000    9.927800   -3.755400
  H     -0.769900    9.144600   -1.399600
  H     -0.520300    5.182800   -2.589200
  C     -0.324000    1.627300   -4.675200
  C     -0.305500    0.780700   -5.790600
  C     -0.199000   -0.583100   -5.625400
  C     -0.107900   -1.128700   -4.340200
  C     -0.126200   -0.282000   -3.224700
  C     -0.233600    1.079800   -3.390400
  H     -0.375400    1.204300   -6.781000
  H     -0.185100   -1.234800   -6.485800
  H     -0.055300   -0.708600   -2.236500
  H     -0.249300    1.736500   -2.535100
  C      0.003300   -2.519200   -4.152900
  C      0.104000   -3.708300   -3.956300
  C      0.224300   -5.078700   -3.658600
  C      0.262200   -6.069800   -4.650700
  C      0.383600   -7.393600   -4.270700
  C      0.464900   -7.713400   -2.921700
  N      0.428300   -6.769200   -1.984100
  C      0.312000   -5.485800   -2.324200
  H      0.197000   -5.793800   -5.691700
  H      0.415700   -8.177400   -5.010100
  H      0.561100   -8.738000   -2.581900
  H      0.287200   -4.748900   -1.514700

 Total Charge           Charge          ....    4
 Multiplicity           Mult            ....    1
 Number of Electrons    NEL             ....  720
 Basis Dimension        Dim             .... 2210

ORBITAL ENERGIES
----------------

  NO   OCC          E(Eh)            E(eV)
   0   2.0000     -14.334087      -390.0503
   1   2.0000     -14.333774      -390.0418
   2   2.0000     -14.333585      -390.0367
   3   2.0000     -14.332978      -390.0202
   4   2.0000     -14.324259      -389.7829
   5   2.0000     -14.323639      -389.7660
   6   2.0000     -14.323571      -389.7642
   7   2.0000     -14.323565      -389.7640
   8   2.0000     -10.231087      -278.4020
   9   2.0000     -10.230515      -278.3865
  10   2.0000     -10.230227      -278.3786
  11   2.0000     -10.229443      -278.3573
  12   2.0000     -10.223823      -278.2044
  13   2.0000     -10.223788      -278.2034
  14   2.0000     -10.223495      -278.1955
  15   2.0000     -10.223272      -278.1894
  16   2.0000     -10.223216      -278.1879
  17   2.0000     -10.223145      -278.1859
  18   2.0000     -10.223137      -278.1857
  19   2.0000     -10.222462      -278.1673
  20   2.0000     -10.213705      -277.9290
  21   2.0000     -10.212943      -277.9083
  22   2.0000     -10.212637      -277.9000
  23   2.0000     -10.212543      -277.8974
  24   2.0000     -10.212278      -277.8902
  25   2.0000     -10.212079      -277.8848
  26   2.0000     -10.211897      -277.8798
  27   2.0000     -10.211833      -277.8781
  28   2.0000     -10.194174      -277.3976
  29   2.0000     -10.193529      -277.3800
  30   2.0000     -10.193259      -277.3727
  31   2.0000     -10.192572      -277.3540
  32   2.0000     -10.189912      -277.2816
  33   2.0000     -10.189563      -277.2721
  34   2.0000     -10.189193      -277.2620
  35   2.0000     -10.189151      -277.2609
  36   2.0000     -10.188990      -277.2565
  37   2.0000     -10.188736      -277.2496
  38   2.0000     -10.188695      -277.2485
  39   2.0000     -10.188490      -277.2429
  40   2.0000     -10.187897      -277.2268
  41   2.0000     -10.187469      -277.2151
  42   2.0000     -10.187244      -277.2090
  43   2.0000     -10.186640      -277.1926
  44   2.0000     -10.185967      -277.1742
  45   2.0000     -10.185400      -277.1588
  46   2.0000     -10.185304      -277.1562
  47   2.0000     -10.185083      -277.1502
  48   2.0000     -10.181662      -277.0571
  49   2.0000     -10.181281      -277.0467
  50   2.0000     -10.179682      -277.0032
  51   2.0000     -10.179322      -276.9934
  52   2.0000     -10.179176      -276.9895
  53   2.0000     -10.178984      -276.9842
  54   2.0000     -10.178565      -276.9728
  55   2.0000     -10.178504      -276.9712
  56   2.0000     -10.178271      -276.9648
  57   2.0000     -10.178139      -276.9612
  58   2.0000     -10.177685      -276.9489
  59   2.0000     -10.177589      -276.9463
  60   2.0000     -10.168144      -276.6893
  61   2.0000     -10.166349      -276.6404
  62   2.0000     -10.166167      -276.6355
  63   2.0000     -10.166039      -276.6320
  64   2.0000     -10.165114      -276.6068
  65   2.0000     -10.164401      -276.5874
  66   2.0000     -10.162407      -276.5332
  67   2.0000     -10.162227      -276.5282
  68   2.0000     -10.161918      -276.5199
  69   2.0000     -10.161554      -276.5099
  70   2.0000     -10.161407      -276.5059
  71   2.0000     -10.161391      -276.5055
  72   2.0000     -10.161148      -276.4989
  73   2.0000     -10.160699      -276.4867
  74   2.0000     -10.160348      -276.4771
  75   2.0000     -10.160033      -276.4685
  76   2.0000     -10.159915      -276.4653
  77   2.0000     -10.159767      -276.4613
  78   2.0000     -10.159490      -276.4538
  79   2.0000     -10.158810      -276.4353
  80   2.0000     -10.158232      -276.4195
  81   2.0000     -10.157668      -276.4042
  82   2.0000     -10.157626      -276.4031
  83   2.0000     -10.157486      -276.3992
  84   2.0000     -10.157430      -276.3977
  85   2.0000     -10.157217      -276.3919
  86   2.0000     -10.156971      -276.3852
  87   2.0000     -10.156892      -276.3831
  88   2.0000     -10.156679      -276.3773
  89   2.0000     -10.155922      -276.3567
  90   2.0000     -10.155822      -276.3540
  91   2.0000     -10.155018      -276.3321
  92   2.0000     -10.154933      -276.3298
  93   2.0000     -10.154219      -276.3104
  94   2.0000     -10.154145      -276.3083
  95   2.0000     -10.154044      -276.3056
  96   2.0000     -10.154022      -276.3050
  97   2.0000     -10.153599      -276.2935
  98   2.0000     -10.153198      -276.2826
  99   2.0000     -10.153157      -276.2814
 100   2.0000     -10.152514      -276.2639
 101   2.0000     -10.151643      -276.2402
 102   2.0000     -10.151457      -276.2352
 103   2.0000     -10.151365      -276.2327
 104   2.0000      -3.641666       -99.0948
 105   2.0000      -3.641360       -99.0864
 106   2.0000      -2.372972       -64.5719
 107   2.0000      -2.372711       -64.5647
 108   2.0000      -2.372533       -64.5599
 109   2.0000      -2.372177       -64.5502
 110   2.0000      -2.329970       -63.4017
 111   2.0000      -2.329658       -63.3932
 112   2.0000      -1.197418       -32.5834
 113   2.0000      -1.197324       -32.5809
 114   2.0000      -1.192662       -32.4540
 115   2.0000      -1.192492       -32.4493
 116   2.0000      -1.184487       -32.2315
 117   2.0000      -1.183999       -32.2183
 118   2.0000      -1.182095       -32.1664
 119   2.0000      -1.181658       -32.1545
 120   2.0000      -1.070039       -29.1172
 121   2.0000      -1.069279       -29.0966
 122   2.0000      -1.068983       -29.0885
 123   2.0000      -1.068597       -29.0780
 124   2.0000      -1.064363       -28.9628
 125   2.0000      -1.061175       -28.8760
 126   2.0000      -1.061126       -28.8747
 127   2.0000      -1.060350       -28.8536
 128   2.0000      -1.045067       -28.4377
 129   2.0000      -1.044545       -28.4235
 130   2.0000      -1.043053       -28.3829
 131   2.0000      -1.042695       -28.3732
 132   2.0000      -1.013349       -27.5746
 133   2.0000      -1.012533       -27.5524
 134   2.0000      -1.012293       -27.5459
 135   2.0000      -1.012079       -27.5401
 136   2.0000      -1.009123       -27.4596
 137   2.0000      -1.008314       -27.4376
 138   2.0000      -1.008065       -27.4308
 139   2.0000      -1.007429       -27.4135
 140   2.0000      -0.997133       -27.1334
 141   2.0000      -0.994829       -27.0707
 142   2.0000      -0.994797       -27.0698
 143   2.0000      -0.994093       -27.0506
 144   2.0000      -0.982468       -26.7343
 145   2.0000      -0.981880       -26.7183
 146   2.0000      -0.981003       -26.6945
 147   2.0000      -0.980545       -26.6820
 148   2.0000      -0.970191       -26.4002
 149   2.0000      -0.969131       -26.3714
 150   2.0000      -0.968935       -26.3661
 151   2.0000      -0.968563       -26.3559
 152   2.0000      -0.951562       -25.8933
 153   2.0000      -0.947992       -25.7962
 154   2.0000      -0.947857       -25.7925
 155   2.0000      -0.947358       -25.7789
 156   2.0000      -0.947099       -25.7719
 157   2.0000      -0.945571       -25.7303
 158   2.0000      -0.945493       -25.7282
 159   2.0000      -0.944656       -25.7054
 160   2.0000      -0.920003       -25.0345
 161   2.0000      -0.918301       -24.9882
 162   2.0000      -0.918231       -24.9863
 163   2.0000      -0.917593       -24.9690
 164   2.0000      -0.888079       -24.1659
 165   2.0000      -0.886897       -24.1337
 166   2.0000      -0.886651       -24.1270
 167   2.0000      -0.886037       -24.1103
 168   2.0000      -0.879878       -23.9427
 169   2.0000      -0.878909       -23.9163
 170   2.0000      -0.878236       -23.8980
 171   2.0000      -0.877803       -23.8862
 172   2.0000      -0.870215       -23.6797
 173   2.0000      -0.870097       -23.6765
 174   2.0000      -0.867241       -23.5988
 175   2.0000      -0.867029       -23.5931
 176   2.0000      -0.858587       -23.3633
 177   2.0000      -0.857159       -23.3245
 178   2.0000      -0.856509       -23.3068
 179   2.0000      -0.856305       -23.3012
 180   2.0000      -0.847001       -23.0481
 181   2.0000      -0.845618       -23.0104
 182   2.0000      -0.844980       -22.9931
 183   2.0000      -0.844902       -22.9909
 184   2.0000      -0.827067       -22.5056
 185   2.0000      -0.825705       -22.4686
 186   2.0000      -0.824956       -22.4482
 187   2.0000      -0.824899       -22.4466
 188   2.0000      -0.821507       -22.3544
 189   2.0000      -0.818112       -22.2620
 190   2.0000      -0.817941       -22.2573
 191   2.0000      -0.817221       -22.2377
 192   2.0000      -0.799333       -21.7510
 193   2.0000      -0.798010       -21.7150
 194   2.0000      -0.786417       -21.3995
 195   2.0000      -0.786350       -21.3977
 196   2.0000      -0.776182       -21.1210
 197   2.0000      -0.775024       -21.0895
 198   2.0000      -0.770267       -20.9600
 199   2.0000      -0.769641       -20.9430
 200   2.0000      -0.758267       -20.6335
 201   2.0000      -0.757021       -20.5996
 202   2.0000      -0.756884       -20.5959
 203   2.0000      -0.754692       -20.5362
 204   2.0000      -0.754646       -20.5350
 205   2.0000      -0.754509       -20.5312
 206   2.0000      -0.754109       -20.5203
 207   2.0000      -0.753787       -20.5116
 208   2.0000      -0.748411       -20.3653
 209   2.0000      -0.747166       -20.3314
 210   2.0000      -0.746743       -20.3199
 211   2.0000      -0.745881       -20.2964
 212   2.0000      -0.744859       -20.2687
 213   2.0000      -0.743909       -20.2428
 214   2.0000      -0.738278       -20.0896
 215   2.0000      -0.737039       -20.0558
 216   2.0000      -0.736946       -20.0533
 217   2.0000      -0.735709       -20.0197
 218   2.0000      -0.733948       -19.9717
 219   2.0000      -0.733466       -19.9586
 220   2.0000      -0.722625       -19.6636
 221   2.0000      -0.720458       -19.6047
 222   2.0000      -0.719441       -19.5770
 223   2.0000      -0.719097       -19.5676
 224   2.0000      -0.704712       -19.1762
 225   2.0000      -0.704306       -19.1651
 226   2.0000      -0.704020       -19.1574
 227   2.0000      -0.702576       -19.1181
 228   2.0000      -0.701808       -19.0972
 229   2.0000      -0.700329       -19.0569
 230   2.0000      -0.699940       -19.0463
 231   2.0000      -0.699567       -19.0362
 232   2.0000      -0.689533       -18.7631
 233   2.0000      -0.688953       -18.7474
 234   2.0000      -0.686323       -18.6758
 235   2.0000      -0.685206       -18.6454
 236   2.0000      -0.685127       -18.6432
 237   2.0000      -0.684784       -18.6339
 238   2.0000      -0.684352       -18.6222
 239   2.0000      -0.684157       -18.6168
 240   2.0000      -0.683598       -18.6017
 241   2.0000      -0.682358       -18.5679
 242   2.0000      -0.682301       -18.5663
 243   2.0000      -0.681578       -18.5467
 244   2.0000      -0.678137       -18.4531
 245   2.0000      -0.677625       -18.4391
 246   2.0000      -0.676040       -18.3960
 247   2.0000      -0.675864       -18.3912
 248   2.0000      -0.672872       -18.3098
 249   2.0000      -0.672503       -18.2997
 250   2.0000      -0.664180       -18.0733
 251   2.0000      -0.663713       -18.0606
 252   2.0000      -0.659634       -17.9496
 253   2.0000      -0.658931       -17.9304
 254   2.0000      -0.658816       -17.9273
 255   2.0000      -0.658637       -17.9224
 256   2.0000      -0.656642       -17.8681
 257   2.0000      -0.656470       -17.8635
 258   2.0000      -0.656150       -17.8547
 259   2.0000      -0.654926       -17.8214
 260   2.0000      -0.654748       -17.8166
 261   2.0000      -0.653175       -17.7738
 262   2.0000      -0.652822       -17.7642
 263   2.0000      -0.652223       -17.7479
 264   2.0000      -0.645856       -17.5746
 265   2.0000      -0.645594       -17.5675
 266   2.0000      -0.645214       -17.5572
 267   2.0000      -0.641293       -17.4505
 268   2.0000      -0.640662       -17.4333
 269   2.0000      -0.640176       -17.4201
 270   2.0000      -0.629517       -17.1300
 271   2.0000      -0.629237       -17.1224
 272   2.0000      -0.628347       -17.0982
 273   2.0000      -0.628195       -17.0941
 274   2.0000      -0.627875       -17.0853
 275   2.0000      -0.627628       -17.0786
 276   2.0000      -0.621806       -16.9202
 277   2.0000      -0.621385       -16.9087
 278   2.0000      -0.618490       -16.8300
 279   2.0000      -0.615541       -16.7497
 280   2.0000      -0.615385       -16.7455
 281   2.0000      -0.615328       -16.7439
 282   2.0000      -0.614224       -16.7139
 283   2.0000      -0.612527       -16.6677
 284   2.0000      -0.611038       -16.6272
 285   2.0000      -0.607344       -16.5267
 286   2.0000      -0.605236       -16.4693
 287   2.0000      -0.604864       -16.4592
 288   2.0000      -0.599715       -16.3191
 289   2.0000      -0.598974       -16.2989
 290   2.0000      -0.598694       -16.2913
 291   2.0000      -0.595964       -16.2170
 292   2.0000      -0.595706       -16.2100
 293   2.0000      -0.595179       -16.1956
 294   2.0000      -0.589160       -16.0319
 295   2.0000      -0.584210       -15.8972
 296   2.0000      -0.583817       -15.8865
 297   2.0000      -0.582821       -15.8594
 298   2.0000      -0.582515       -15.8510
 299   2.0000      -0.581908       -15.8345
 300   2.0000      -0.578365       -15.7381
 301   2.0000      -0.577932       -15.7263
 302   2.0000      -0.577461       -15.7135
 303   2.0000      -0.576904       -15.6983
 304   2.0000      -0.576566       -15.6892
 305   2.0000      -0.575616       -15.6633
 306   2.0000      -0.574453       -15.6317
 307   2.0000      -0.574254       -15.6263
 308   2.0000      -0.571735       -15.5577
 309   2.0000      -0.571357       -15.5474
 310   2.0000      -0.570691       -15.5293
 311   2.0000      -0.562835       -15.3155
 312   2.0000      -0.562473       -15.3057
 313   2.0000      -0.559880       -15.2351
 314   2.0000      -0.559630       -15.2283
 315   2.0000      -0.556903       -15.1541
 316   2.0000      -0.556733       -15.1495
 317   2.0000      -0.548780       -14.9331
 318   2.0000      -0.547242       -14.8912
 319   2.0000      -0.546985       -14.8842
 320   2.0000      -0.542044       -14.7498
 321   2.0000      -0.541395       -14.7321
 322   2.0000      -0.541112       -14.7244
 323   2.0000      -0.538359       -14.6495
 324   2.0000      -0.538188       -14.6448
 325   2.0000      -0.536198       -14.5907
 326   2.0000      -0.531532       -14.4637
 327   2.0000      -0.531225       -14.4554
 328   2.0000      -0.530040       -14.4231
 329   2.0000      -0.529754       -14.4153
 330   2.0000      -0.512915       -13.9571
 331   2.0000      -0.512054       -13.9337
 332   2.0000      -0.511853       -13.9282
 333   2.0000      -0.511091       -13.9075
 334   2.0000      -0.510624       -13.8948
 335   2.0000      -0.509828       -13.8731
 336   2.0000      -0.509117       -13.8538
 337   2.0000      -0.506935       -13.7944
 338   2.0000      -0.506548       -13.7839
 339   2.0000      -0.504918       -13.7395
 340   2.0000      -0.503484       -13.7005
 341   2.0000      -0.502874       -13.6839
 342   2.0000      -0.502107       -13.6630
 343   2.0000      -0.500861       -13.6291
 344   2.0000      -0.499599       -13.5948
 345   2.0000      -0.499287       -13.5863
 346   2.0000      -0.495718       -13.4892
 347   2.0000      -0.495411       -13.4808
 348   2.0000      -0.494180       -13.4473
 349   2.0000      -0.490578       -13.3493
 350   2.0000      -0.490393       -13.3443
 351   2.0000      -0.489065       -13.3081
 352   2.0000      -0.480639       -13.0789
 353   2.0000      -0.478859       -13.0304
 354   2.0000      -0.477625       -12.9968
 355   2.0000      -0.476047       -12.9539
 356   2.0000      -0.447373       -12.1736
 357   2.0000      -0.446394       -12.1470
 358   2.0000      -0.445790       -12.1306
 359   2.0000      -0.444717       -12.1014
 360   0.0000      -0.369462       -10.0536
 361   0.0000      -0.368236       -10.0202
 362   0.0000      -0.367430        -9.9983
 363   0.0000      -0.364429        -9.9166
 364   0.0000      -0.360706        -9.8153

MULLIKEN ATOMIC CHARGES
-----------------------
   0 Pd:   -0.102961
   1 Pd:   -0.103295
   2 C :    0.041642
   3 C :    0.043346
   4 C :   -0.170937
   5 C :   -0.087239
   6 C :   -0.183383
   7 C :   -0.209893
   8 C :   -0.063815
   9 C :   -0.079977
  10 C :   -0.179210
  11 N :   -0.059332
  12 C :   -0.093617
  13 C :    0.345522
  14 H :    0.249152
  15 H :    0.227551
  16 H :    0.245498
  17 H :    0.252646
  18 H :    0.163763
  19 H :    0.166863
  20 C :   -0.175770
  21 C :   -0.134227
  22 C :   -0.107554
  23 C :   -0.159156
  24 C :   -0.130876
  25 C :   -0.148201
  26 H :    0.233636
  27 H :    0.234680
  28 H :    0.159985
  29 H :    0.184098
  30 C :    0.039501
  31 C :    0.033343
  32 C :    0.098707
  33 C :   -0.193344
  34 C :   -0.034396
  35 C :   -0.110173
  36 N :   -0.051061
  37 C :   -0.169774
  38 H :    0.252789
  39 H :    0.247556
  40 H :    0.201687
  41 H :    0.169434
  42 C :    0.045986
  43 C :    0.025318
  44 C :   -0.136236
  45 C :   -0.099183
  46 C :   -0.179959
  47 C :   -0.212464
  48 C :   -0.063612
  49 C :   -0.078150
  50 C :   -0.182388
  51 N :   -0.062962
  52 C :   -0.075021
  53 C :    0.320131
  54 H :    0.247787
  55 H :    0.227537
  56 H :    0.245259
  57 H :    0.252779
  58 H :    0.164984
  59 H :    0.163365
  60 C :   -0.165498
  61 C :   -0.131833
  62 C :   -0.122381
  63 C :   -0.146073
  64 C :   -0.141879
  65 C :   -0.128934
  66 H :    0.231850
  67 H :    0.233475
  68 H :    0.171968
  69 H :    0.162933
  70 C :    0.043755
  71 C :    0.026681
  72 C :    0.115350
  73 C :   -0.197365
  74 C :   -0.034868
  75 C :   -0.109066
  76 N :   -0.051708
  77 C :   -0.178903
  78 H :    0.251589
  79 H :    0.246926
  80 H :    0.201887
  81 H :    0.171689
  82 C :    0.044037
  83 C :    0.028985
  84 C :   -0.145782
  85 C :   -0.095539
  86 C :   -0.180516
  87 C :   -0.211949
  88 C :   -0.062348
  89 C :   -0.079610
  90 C :   -0.180995
  91 N :   -0.062930
  92 C :   -0.080176
  93 C :    0.326410
  94 H :    0.248327
  95 H :    0.227552
  96 H :    0.245300
  97 H :    0.252700
  98 H :    0.165324
  99 H :    0.163566
 100 C :   -0.168971
 101 C :   -0.130709
 102 C :   -0.117329
 103 C :   -0.149958
 104 C :   -0.134435
 105 C :   -0.131800
 106 H :    0.232864
 107 H :    0.233910
 108 H :    0.160134
 109 H :    0.168240
 110 C :    0.042333
 111 C :    0.029532
 112 C :    0.110481
 113 C :   -0.196728
 114 C :   -0.033763
 115 C :   -0.109729
 116 N :   -0.051735
 117 C :   -0.177000
 118 H :    0.251982
 119 H :    0.247374
 120 H :    0.201913
 121 H :    0.170726
 122 C :    0.047565
 123 C :    0.019285
 124 C :   -0.131862
 125 C :   -0.098292
 126 C :   -0.179140
 127 C :   -0.210373
 128 C :   -0.064010
 129 C :   -0.080128
 130 C :   -0.177917
 131 N :   -0.057436
 132 C :   -0.073030
 133 C :    0.316711
 134 H :    0.248628
 135 H :    0.228129
 136 H :    0.245906
 137 H :    0.252967
 138 H :    0.163930
 139 H :    0.154713
 140 C :   -0.163759
 141 C :   -0.129180
 142 C :   -0.123548
 143 C :   -0.133480
 144 C :   -0.164130
 145 C :   -0.132787
 146 H :    0.234498
 147 H :    0.234460
 148 H :    0.172876
 149 H :    0.167056
 150 C :    0.036503
 151 C :    0.025934
 152 C :    0.126304
 153 C :   -0.198550
 154 C :   -0.033477
 155 C :   -0.108902
 156 N :   -0.047556
 157 C :   -0.184181
 158 H :    0.251850
 159 H :    0.247682
 160 H :    0.202126
 161 H :    0.168955
Sum of atomic charges:    4.0000000

LOEWDIN ATOMIC CHARGES
----------------------
   0 Pd:   -0.091015
   1 Pd:   -0.091043
   2 C :   -0.007868
   3 C :   -0.029900
   4 C :   -0.037958
   5 C :   -0.088901
   6 C :   -0.095600
   7 C :   -0.113707
   8 C :   -0.015516
   9 C :   -0.104373
  10 C :   -0.060484
  11 N :   -0.084599
  12 C :   -0.001268
  13 C :   -0.028431
  14 H :    0.196172
  15 H :    0.195862
  16 H :    0.193571
  17 H :    0.200740
  18 H :    0.188393
  19 H :    0.188325
  20 C :   -0.052272
  21 C :   -0.106022
  22 C :   -0.103509
  23 C :   -0.064122
  24 C :   -0.127108
  25 C :   -0.131802
  26 H :    0.192445
  27 H :    0.191866
  28 H :    0.171710
  29 H :    0.171248
  30 C :    0.020936
  31 C :   -0.050668
  32 C :   -0.043432
  33 C :   -0.067209
  34 C :   -0.117545
  35 C :   -0.029668
  36 N :   -0.071171
  37 C :   -0.019355
  38 H :    0.203720
  39 H :    0.203118
  40 H :    0.188901
  41 H :    0.190723
  42 C :   -0.007125
  43 C :   -0.030249
  44 C :   -0.037665
  45 C :   -0.089396
  46 C :   -0.095788
  47 C :   -0.114164
  48 C :   -0.015596
  49 C :   -0.104671
  50 C :   -0.061171
  51 N :   -0.084965
  52 C :   -0.000759
  53 C :   -0.028576
  54 H :    0.195809
  55 H :    0.195778
  56 H :    0.193513
  57 H :    0.200681
  58 H :    0.188441
  59 H :    0.188570
  60 C :   -0.051810
  61 C :   -0.105924
  62 C :   -0.103330
  63 C :   -0.063363
  64 C :   -0.123773
  65 C :   -0.129528
  66 H :    0.192241
  67 H :    0.192098
  68 H :    0.171292
  69 H :    0.169270
  70 C :    0.021936
  71 C :   -0.049926
  72 C :   -0.043347
  73 C :   -0.068084
  74 C :   -0.118078
  75 C :   -0.030835
  76 N :   -0.071134
  77 C :   -0.019316
  78 H :    0.203381
  79 H :    0.202838
  80 H :    0.188822
  81 H :    0.191383
  82 C :   -0.007549
  83 C :   -0.029495
  84 C :   -0.037857
  85 C :   -0.089026
  86 C :   -0.095721
  87 C :   -0.113820
  88 C :   -0.015556
  89 C :   -0.104530
  90 C :   -0.060772
  91 N :   -0.084778
  92 C :   -0.001034
  93 C :   -0.028444
  94 H :    0.195980
  95 H :    0.195839
  96 H :    0.193567
  97 H :    0.200734
  98 H :    0.188374
  99 H :    0.188325
 100 C :   -0.051419
 101 C :   -0.105588
 102 C :   -0.102958
 103 C :   -0.063301
 104 C :   -0.125055
 105 C :   -0.130486
 106 H :    0.192499
 107 H :    0.192078
 108 H :    0.169627
 109 H :    0.168769
 110 C :    0.021268
 111 C :   -0.050195
 112 C :   -0.043409
 113 C :   -0.067662
 114 C :   -0.117741
 115 C :   -0.030199
 116 N :   -0.071110
 117 C :   -0.019694
 118 H :    0.203521
 119 H :    0.203008
 120 H :    0.188961
 121 H :    0.190885
 122 C :   -0.009860
 123 C :   -0.026362
 124 C :   -0.038367
 125 C :   -0.088279
 126 C :   -0.095530
 127 C :   -0.112643
 128 C :   -0.015329
 129 C :   -0.104014
 130 C :   -0.059544
 131 N :   -0.084321
 132 C :   -0.001389
 133 C :   -0.027899
 134 H :    0.196048
 135 H :    0.196064
 136 H :    0.193832
 137 H :    0.200927
 138 H :    0.188438
 139 H :    0.187511
 140 C :   -0.050069
 141 C :   -0.103825
 142 C :   -0.101380
 143 C :   -0.063074
 144 C :   -0.130903
 145 C :   -0.135030
 146 H :    0.193362
 147 H :    0.192915
 148 H :    0.167872
 149 H :    0.166710
 150 C :    0.017885
 151 C :   -0.048679
 152 C :   -0.044264
 153 C :   -0.067328
 154 C :   -0.117244
 155 C :   -0.029149
 156 N :   -0.070857
 157 C :   -0.019632
 158 H :    0.203548
 159 H :    0.203282
 160 H :    0.189136
 161 H :    0.190739

  Mayer bond orders larger than 0.100000
B(  0-Pd, 36-N ) :   0.5360 B(  0-Pd, 51-N ) :   0.5417 B(  0-Pd,116-N ) :   0.5360
B(  0-Pd,131-N ) :   0.5446 B(  1-Pd, 11-N ) :   0.5434 B(  1-Pd, 76-N ) :   0.5356
B(  1-Pd, 91-N ) :   0.5424 B(  1-Pd,156-N ) :   0.5345 B(  1-Pd,157-C ) :   0.1011
B(  2-C ,  3-C ) :   1.8595 B(  2-C ,  4-C ) :  -0.2837 B(  2-C , 13-C ) :   0.1048
B(  2-C , 20-C ) :   1.5860 B(  3-C ,  4-C ) :   1.4601 B(  3-C ,  8-C ) :   0.1095
B(  3-C , 13-C ) :  -0.2368 B(  3-C , 20-C ) :  -0.4281 B(  3-C , 25-C ) :   0.1023
B(  4-C ,  5-C ) :   1.5376 B(  4-C , 12-C ) :  -0.1278 B(  4-C , 13-C ) :   1.0110
B(  5-C ,  6-C ) :   1.4232 B(  5-C , 14-H ) :   0.8563 B(  6-C ,  7-C ) :   1.6225
B(  6-C , 15-H ) :   0.8723 B(  7-C ,  8-C ) :   1.3678 B(  7-C , 13-C ) :  -0.1291
B(  7-C , 16-H ) :   0.8598 B(  8-C ,  9-C ) :   1.2563 B(  8-C , 10-C ) :   0.1090
B(  8-C , 12-C ) :  -0.1282 B(  8-C , 13-C ) :   1.0388 B(  9-C , 10-C ) :   1.5577
B(  9-C , 17-H ) :   0.8720 B( 10-C , 11-N ) :   1.1954 B( 10-C , 18-H ) :   0.9278
B( 11-N , 12-C ) :   1.4765 B( 11-N , 91-N ) :   0.1001 B( 12-C , 13-C ) :   1.4373
B( 12-C , 19-H ) :   0.8739 B( 20-C , 21-C ) :   1.3070 B( 20-C , 25-C ) :   1.2913
B( 21-C , 22-C ) :   1.5386 B( 21-C , 26-H ) :   0.8934 B( 22-C , 23-C ) :   1.3023
B( 22-C , 27-H ) :   0.8887 B( 23-C , 24-C ) :   1.2835 B( 23-C , 30-C ) :   1.5474
B( 23-C , 31-C ) :  -0.4400 B( 24-C , 25-C ) :   1.5124 B( 24-C , 28-H ) :   0.9319
B( 25-C , 29-H ) :   0.9179 B( 30-C , 31-C ) :   1.8271 B( 30-C , 32-C ) :  -0.3071
B( 31-C , 32-C ) :   1.4257 B( 32-C , 33-C ) :   1.3543 B( 32-C , 37-C ) :   1.2671
B( 33-C , 34-C ) :   1.4894 B( 33-C , 38-H ) :   0.9106 B( 34-C , 35-C ) :   1.4163
B( 34-C , 39-H ) :   0.8708 B( 35-C , 36-N ) :   1.4006 B( 35-C , 40-H ) :   0.9113
B( 36-N , 37-C ) :   1.3270 B( 37-C , 41-H ) :   0.9666 B( 42-C , 43-C ) :   1.8619
B( 42-C , 44-C ) :  -0.2880 B( 42-C , 53-C ) :   0.1081 B( 42-C , 60-C ) :   1.5716
B( 43-C , 44-C ) :   1.4501 B( 43-C , 48-C ) :   0.1110 B( 43-C , 53-C ) :  -0.2289
B( 43-C , 60-C ) :  -0.4231 B( 43-C , 65-C ) :   0.1009 B( 44-C , 45-C ) :   1.5207
B( 44-C , 52-C ) :  -0.1398 B( 44-C , 53-C ) :   0.9970 B( 45-C , 46-C ) :   1.4247
B( 45-C , 54-H ) :   0.8602 B( 46-C , 47-C ) :   1.6215 B( 46-C , 55-H ) :   0.8723
B( 47-C , 48-C ) :   1.3680 B( 47-C , 53-C ) :  -0.1303 B( 47-C , 56-H ) :   0.8602
B( 48-C , 49-C ) :   1.2538 B( 48-C , 50-C ) :   0.1098 B( 48-C , 52-C ) :  -0.1312
B( 48-C , 53-C ) :   1.0366 B( 49-C , 50-C ) :   1.5582 B( 49-C , 57-H ) :   0.8722
B( 50-C , 51-N ) :   1.1947 B( 50-C , 58-H ) :   0.9274 B( 51-N , 52-C ) :   1.4733
B( 51-N ,131-N ) :   0.1005 B( 52-C , 53-C ) :   1.4485 B( 52-C , 59-H ) :   0.8752
B( 60-C , 61-C ) :   1.2867 B( 60-C , 65-C ) :   1.2691 B( 61-C , 62-C ) :   1.5307
B( 61-C , 66-H ) :   0.9014 B( 62-C , 63-C ) :   1.2954 B( 62-C , 67-H ) :   0.8947
B( 62-C , 71-C ) :   0.1023 B( 63-C , 64-C ) :   1.2878 B( 63-C , 70-C ) :   1.5254
B( 63-C , 71-C ) :  -0.4359 B( 64-C , 65-C ) :   1.5138 B( 64-C , 68-H ) :   0.9245
B( 65-C , 69-H ) :   0.9350 B( 70-C , 71-C ) :   1.8333 B( 70-C , 72-C ) :  -0.3091
B( 71-C , 72-C ) :   1.4245 B( 72-C , 73-C ) :   1.3457 B( 72-C , 77-C ) :   1.2534
B( 73-C , 74-C ) :   1.4860 B( 73-C , 78-H ) :   0.9132 B( 74-C , 75-C ) :   1.4148
B( 74-C , 79-H ) :   0.8711 B( 75-C , 76-N ) :   1.3991 B( 75-C , 80-H ) :   0.9113
B( 76-N , 77-C ) :   1.3253 B( 77-C , 81-H ) :   0.9704 B( 82-C , 83-C ) :   1.8592
B( 82-C , 84-C ) :  -0.2886 B( 82-C , 93-C ) :   0.1075 B( 82-C ,100-C ) :   1.5755
B( 83-C , 84-C ) :   1.4532 B( 83-C , 88-C ) :   0.1107 B( 83-C , 93-C ) :  -0.2308
B( 83-C ,100-C ) :  -0.4245 B( 83-C ,105-C ) :   0.1011 B( 84-C , 85-C ) :   1.5257
B( 84-C , 92-C ) :  -0.1362 B( 84-C , 93-C ) :   1.0026 B( 85-C , 86-C ) :   1.4234
B( 85-C , 94-H ) :   0.8590 B( 86-C , 87-C ) :   1.6218 B( 86-C , 95-H ) :   0.8725
B( 87-C , 88-C ) :   1.3674 B( 87-C , 93-C ) :  -0.1298 B( 87-C , 96-H ) :   0.8602
B( 88-C , 89-C ) :   1.2555 B( 88-C , 90-C ) :   0.1087 B( 88-C , 92-C ) :  -0.1304
B( 88-C , 93-C ) :   1.0381 B( 89-C , 90-C ) :   1.5583 B( 89-C , 97-H ) :   0.8722
B( 90-C , 91-N ) :   1.1961 B( 90-C , 98-H ) :   0.9274 B( 91-N , 92-C ) :   1.4738
B( 92-C , 93-C ) :   1.4454 B( 92-C , 99-H ) :   0.8743 B(100-C ,101-C ) :   1.2923
B(100-C ,105-C ) :   1.2834 B(101-C ,102-C ) :   1.5336 B(101-C ,106-H ) :   0.8978
B(102-C ,103-C ) :   1.2991 B(102-C ,107-H ) :   0.8916 B(102-C ,111-C ) :   0.1007
B(103-C ,104-C ) :   1.2913 B(103-C ,110-C ) :   1.5354 B(103-C ,111-C ) :  -0.4390
B(104-C ,105-C ) :   1.5069 B(104-C ,108-H ) :   0.9304 B(105-C ,109-H ) :   0.9281
B(110-C ,111-C ) :   1.8305 B(110-C ,112-C ) :  -0.3084 B(111-C ,112-C ) :   1.4249
B(112-C ,113-C ) :   1.3490 B(112-C ,117-C ) :   1.2574 B(113-C ,114-C ) :   1.4879
B(113-C ,118-H ) :   0.9124 B(114-C ,115-C ) :   1.4147 B(114-C ,119-H ) :   0.8709
B(115-C ,116-N ) :   1.3996 B(115-C ,120-H ) :   0.9116 B(116-N ,117-C ) :   1.3262
B(117-C ,121-H ) :   0.9686 B(122-C ,123-C ) :   1.8576 B(122-C ,124-C ) :  -0.2944
B(122-C ,133-C ) :   0.1081 B(122-C ,140-C ) :   1.5729 B(123-C ,124-C ) :   1.4495
B(123-C ,128-C ) :   0.1126 B(123-C ,133-C ) :  -0.2235 B(123-C ,140-C ) :  -0.4210
B(123-C ,145-C ) :   0.1041 B(124-C ,125-C ) :   1.5182 B(124-C ,132-C ) :  -0.1419
B(124-C ,133-C ) :   1.0012 B(125-C ,126-C ) :   1.4233 B(125-C ,134-H ) :   0.8596
B(126-C ,127-C ) :   1.6238 B(126-C ,135-H ) :   0.8718 B(127-C ,128-C ) :   1.3654
B(127-C ,133-C ) :  -0.1305 B(127-C ,136-H ) :   0.8595 B(128-C ,129-C ) :   1.2587
B(128-C ,130-C ) :   0.1094 B(128-C ,132-C ) :  -0.1330 B(128-C ,133-C ) :   1.0406
B(129-C ,130-C ) :   1.5577 B(129-C ,137-H ) :   0.8720 B(130-C ,131-N ) :   1.1969
B(130-C ,138-H ) :   0.9277 B(131-N ,132-C ) :   1.4719 B(132-C ,133-C ) :   1.4492
B(132-C ,139-H ) :   0.8752 B(140-C ,141-C ) :   1.2880 B(140-C ,145-C ) :   1.2797
B(141-C ,142-C ) :   1.5324 B(141-C ,146-H ) :   0.8984 B(142-C ,143-C ) :   1.3040
B(142-C ,147-H ) :   0.8934 B(142-C ,151-C ) :   0.1016 B(143-C ,144-C ) :   1.2901
B(143-C ,150-C ) :   1.5310 B(143-C ,151-C ) :  -0.4457 B(144-C ,145-C ) :   1.4994
B(144-C ,148-H ) :   0.9210 B(145-C ,149-H ) :   0.9302 B(150-C ,151-C ) :   1.8255
B(150-C ,152-C ) :  -0.3133 B(151-C ,152-C ) :   1.4238 B(152-C ,153-C ) :   1.3469
B(152-C ,157-C ) :   1.2385 B(153-C ,154-C ) :   1.4864 B(153-C ,158-H ) :   0.9139
B(154-C ,155-C ) :   1.4135 B(154-C ,159-H ) :   0.8712 B(155-C ,156-N ) :   1.4004
B(155-C ,160-H ) :   0.9117 B(156-N ,157-C ) :   1.3283 B(157-C ,161-H ) :   0.9723

Dispersion correction           -0.603004939
FINAL SINGLE POINT ENERGY     -4383.018177779643

DIPOLE MOMENT
-------------
                                X             Y             Z
Electronic contribution:      1.45038       0.19085      -3.53448
Nuclear contribution   :     -1.52786      -0.15351       3.69437
                        -----------------------------------------
Total Dipole Moment    :     -0.07748       0.03734       0.15989
                        -----------------------------------------
Magnitude (a.u.)       :      0.18156
Magnitude (Debye)      :      0.46148

Rotational constants in cm-1:     0.000652     0.000252     0.000251
Rotational constants in MHz :    19.538594     7.555286     7.520958

                             ****ORCA TERMINATED NORMALLY****
TOTAL RUN TIME: 0 days 0 hours 14 minutes 12 seconds 951 msec
