                         Program Version 4.2.1 -  RELEASE  -
|  1> ! DFT SP RKS PBE0 def2-SVP D3BJ Grid6 NOFINALGRID SlowConv TightSCF printbasis
|  2>
|  3> %base "_s_4b1_c_PBE0"
|  4> %maxcore 3000
|  5> %scf
|  6>    MaxIter 2000
|  7> end
|  8> %pal
|  9>    nprocs 32
| 10> end
| 11>
| 12> * xyzfile 4 1 s_4b1_c.xyz
| 13>
| 14>                          ****END OF INPUT****

CARTESIAN COORDINATES (ANGSTROEM)
---------------------------------
  Pd    -0.379200    4.463500    0.546700
  Pd    -0.066700   -6.845800    1.250600
  C      4.578400   -3.065300    1.687900
  C      4.822100   -4.249800    1.716600
  C      5.166200   -5.614900    1.709400
  C      6.494800   -5.993200    1.773400
  C      6.863200   -7.342200    1.729400
  C      5.917700   -8.329100    1.602800
  C      4.553800   -7.991200    1.530300
  C      3.532800   -8.955700    1.374900
  C      2.228300   -8.560200    1.308400
  N      1.865600   -7.258000    1.410500
  C      2.789300   -6.327100    1.548900
  C      4.160700   -6.623000    1.601000
  H      7.258500   -5.235200    1.857300
  H      7.909300   -7.601500    1.787000
  H      6.206400   -9.367300    1.554200
  H      3.796500   -9.998800    1.303600
  H      1.420500   -9.276000    1.169100
  H      2.448700   -5.296800    1.627400
  C      4.256700   -1.694700    1.615000
  C      5.179500   -0.782200    1.094800
  C      4.847100    0.552500    0.987500
  C      3.589700    1.005900    1.390400
  C      2.677400    0.093500    1.926700
  C      3.004500   -1.240500    2.039900
  H      6.148700   -1.128500    0.770800
  H      5.558100    1.243100    0.561100
  H      1.720000    0.438100    2.285900
  H      2.301800   -1.939900    2.463000
  C      3.224300    2.422100    1.256400
  C      4.126100    3.453100    1.539000
  C      3.716700    4.770700    1.423400
  C      2.411000    5.041700    1.048800
  N      1.551800    4.059000    0.772400
  C      1.940700    2.785700    0.854700
  H      5.128100    3.220900    1.864900
  H      4.396500    5.579800    1.636200
  H      2.035400    6.057900    0.962900
  H      1.200900    2.038800    0.569600
  C     -0.624300   -2.882600    5.815300
  C     -0.621900   -4.066100    6.064400
  C     -0.676900   -5.425400    6.434400
  C     -0.836000   -5.765400    7.764600
  C     -0.949400   -7.103400    8.158700
  C     -0.917600   -8.116500    7.233800
  C     -0.746700   -7.817600    5.869700
  C     -0.713700   -8.813200    4.867400
  C     -0.527400   -8.458200    3.563100
  N     -0.348100   -7.167600    3.187300
  C     -0.391200   -6.207300    4.089900
  C     -0.605400   -6.461100    5.454900
  H     -0.884300   -4.985400    8.509000
  H     -1.074000   -7.331900    9.206100
  H     -1.021800   -9.146000    7.538300
  H     -0.838100   -9.847700    5.144700
  H     -0.513400   -9.199300    2.765800
  H     -0.245400   -5.187700    3.739200
  C     -0.627500   -1.512400    5.475900
  C      0.322300   -0.645200    6.022400
  C      0.333400    0.685600    5.657700
  C     -0.595100    1.176600    4.738100
  C     -1.561200    0.313300    4.217600
  C     -1.582000   -1.016300    4.582900
  H      1.051000   -1.023100    6.722600
  H      1.086700    1.341700    6.065400
  H     -2.318700    0.695600    3.552500
  H     -2.340600   -1.676400    4.193700
  C     -0.531300    2.578300    4.300700
  C     -0.281100    3.626600    5.191500
  C     -0.195700    4.923400    4.713400
  C     -0.330900    5.152100    3.354000
  N     -0.562200    4.151300    2.502000
  C     -0.678900    2.901700    2.953900
  H     -0.172300    3.425100    6.245800
  H     -0.017000    5.747600    5.384600
  H     -0.255000    6.148800    2.927300
  H     -0.884000    2.137500    2.205100
  C     -5.023400    0.683400    0.105000
  C     -5.268300    1.867900    0.084700
  C     -5.613300    3.232700    0.102300
  C     -6.942100    3.610700    0.044400
  C     -7.311200    4.959100    0.099500
  C     -6.366000    5.945700    0.231100
  C     -5.001600    5.608000    0.297400
  C     -3.980700    6.572000    0.456800
  C     -2.675800    6.176800    0.516200
  N     -2.312800    4.875600    0.403700
  C     -3.236400    3.945200    0.261400
  C     -4.608000    4.240600    0.215500
  H     -7.705700    2.853000   -0.043200
  H     -8.357500    5.218300    0.046600
  H     -6.655100    6.983300    0.288300
  H     -4.244800    7.614400    0.536500
  H     -1.867700    6.891900    0.658000
  H     -2.895400    2.915600    0.174200
  C     -4.700800   -0.687300    0.170300
  C     -3.445000   -1.137500   -0.248400
  C     -3.116900   -2.471700   -0.140500
  C     -4.031900   -3.388300    0.383700
  C     -5.293100   -2.939100    0.779500
  C     -5.626300   -1.604200    0.677800
  H     -2.740200   -0.434800   -0.662300
  H     -2.156500   -2.813000   -0.494700
  H     -6.006400   -3.633200    1.196200
  H     -6.598500   -1.261100    0.996600
  C     -3.665500   -4.804700    0.513400
  C     -4.562800   -5.835400    0.216000
  C     -4.152700   -7.153000    0.329200
  C     -2.850700   -7.424000    0.716300
  N     -1.995800   -6.441500    1.006600
  C     -2.385600   -5.168300    0.926500
  H     -5.561600   -5.602800   -0.119000
  H     -4.829000   -7.961900    0.105100
  H     -2.474500   -8.440100    0.801300
  H     -1.649900   -4.421900    1.223100
  C      0.132800    0.498400   -4.020400
  C      0.118100    1.681500   -4.271200
  C      0.157300    3.040600   -4.643800
  C      0.287300    3.380000   -5.977400
  C      0.384500    4.718200   -6.375100
  C      0.365400    5.732200   -5.450800
  C      0.223800    5.433900   -4.083200
  C      0.204700    6.430400   -3.081400
  C      0.045200    6.076000   -1.773400
  N     -0.119800    4.784900   -1.393100
  C     -0.088100    3.823700   -2.295300
  C      0.098800    4.077000   -3.664300
  H      0.325400    2.599500   -6.721800
  H      0.486300    4.946300   -7.425100
  H      0.457300    6.762000   -5.758400
  H      0.317900    7.465400   -3.362100
  H      0.042300    6.817800   -0.976700
  H     -0.221000    2.803800   -1.940700
  C      0.149200   -0.871400   -3.679900
  C     -0.795000   -1.746900   -4.223000
  C     -0.793600   -3.077500   -3.857700
  C      0.141700   -3.560000   -2.940600
  C      1.101900   -2.688300   -2.423100
  C      1.110500   -1.358900   -2.789500
  H     -1.529100   -1.375600   -4.921000
  H     -1.542300   -3.740400   -4.262900
  H      1.864200   -3.064000   -1.759600
  H      1.864900   -0.692300   -2.403200
  C      0.090700   -4.962100   -2.502600
  C     -0.149900   -6.012800   -3.393300
  C     -0.224600   -7.310100   -2.914900
  C     -0.089600   -7.537000   -1.555200
  N      0.132300   -6.534000   -0.703300
  C      0.240000   -5.283700   -1.155600
  H     -0.259800   -5.812400   -4.447700
  H     -0.395400   -8.136000   -3.586100
  H     -0.157800   -8.534100   -1.128100
  H      0.438900   -4.517800   -0.406900

 Total Charge           Charge          ....    4
 Multiplicity           Mult            ....    1
 Number of Electrons    NEL             ....  672
 Basis Dimension        Dim             .... 1686

ORBITAL ENERGIES
----------------

  NO   OCC          E(Eh)            E(eV)
   0   2.0000     -14.759704      -401.6320
   1   2.0000     -14.759646      -401.6304
   2   2.0000     -14.759505      -401.6265
   3   2.0000     -14.759479      -401.6258
   4   2.0000     -14.748289      -401.3213
   5   2.0000     -14.748231      -401.3198
   6   2.0000     -14.748018      -401.3140
   7   2.0000     -14.748008      -401.3137
   8   2.0000     -10.592881      -288.2470
   9   2.0000     -10.592839      -288.2458
  10   2.0000     -10.592483      -288.2361
  11   2.0000     -10.592401      -288.2339
  12   2.0000     -10.588845      -288.1371
  13   2.0000     -10.588768      -288.1350
  14   2.0000     -10.588751      -288.1346
  15   2.0000     -10.588717      -288.1336
  16   2.0000     -10.585165      -288.0370
  17   2.0000     -10.585072      -288.0344
  18   2.0000     -10.584874      -288.0291
  19   2.0000     -10.584867      -288.0289
  20   2.0000     -10.569957      -287.6231
  21   2.0000     -10.569862      -287.6206
  22   2.0000     -10.569444      -287.6092
  23   2.0000     -10.569420      -287.6085
  24   2.0000     -10.561913      -287.4043
  25   2.0000     -10.561888      -287.4036
  26   2.0000     -10.561846      -287.4024
  27   2.0000     -10.561843      -287.4024
  28   2.0000     -10.555892      -287.2404
  29   2.0000     -10.555790      -287.2377
  30   2.0000     -10.555464      -287.2288
  31   2.0000     -10.555410      -287.2273
  32   2.0000     -10.548494      -287.0391
  33   2.0000     -10.548388      -287.0362
  34   2.0000     -10.548313      -287.0342
  35   2.0000     -10.548279      -287.0333
  36   2.0000     -10.545028      -286.9448
  37   2.0000     -10.544925      -286.9420
  38   2.0000     -10.544680      -286.9353
  39   2.0000     -10.544578      -286.9325
  40   2.0000     -10.544210      -286.9225
  41   2.0000     -10.544190      -286.9220
  42   2.0000     -10.543789      -286.9111
  43   2.0000     -10.543755      -286.9101
  44   2.0000     -10.541952      -286.8611
  45   2.0000     -10.541830      -286.8578
  46   2.0000     -10.541155      -286.8394
  47   2.0000     -10.541123      -286.8385
  48   2.0000     -10.540818      -286.8303
  49   2.0000     -10.540746      -286.8283
  50   2.0000     -10.539054      -286.7822
  51   2.0000     -10.538978      -286.7802
  52   2.0000     -10.537023      -286.7270
  53   2.0000     -10.536967      -286.7255
  54   2.0000     -10.536180      -286.7040
  55   2.0000     -10.536120      -286.7024
  56   2.0000     -10.534990      -286.6717
  57   2.0000     -10.534893      -286.6690
  58   2.0000     -10.534449      -286.6569
  59   2.0000     -10.534444      -286.6568
  60   2.0000     -10.526123      -286.4304
  61   2.0000     -10.526078      -286.4292
  62   2.0000     -10.524443      -286.3846
  63   2.0000     -10.524359      -286.3824
  64   2.0000     -10.522917      -286.3431
  65   2.0000     -10.522837      -286.3410
  66   2.0000     -10.521127      -286.2944
  67   2.0000     -10.521031      -286.2918
  68   2.0000     -10.519981      -286.2632
  69   2.0000     -10.519921      -286.2616
  70   2.0000     -10.519875      -286.2603
  71   2.0000     -10.519821      -286.2589
  72   2.0000     -10.518324      -286.2181
  73   2.0000     -10.518227      -286.2155
  74   2.0000     -10.517792      -286.2037
  75   2.0000     -10.517723      -286.2018
  76   2.0000     -10.517359      -286.1919
  77   2.0000     -10.517300      -286.1903
  78   2.0000     -10.517067      -286.1839
  79   2.0000     -10.517015      -286.1825
  80   2.0000     -10.514750      -286.1209
  81   2.0000     -10.514631      -286.1177
  82   2.0000     -10.513195      -286.0786
  83   2.0000     -10.513085      -286.0756
  84   2.0000     -10.513052      -286.0747
  85   2.0000     -10.512980      -286.0727
  86   2.0000     -10.512639      -286.0635
  87   2.0000     -10.512527      -286.0604
  88   2.0000     -10.512307      -286.0544
  89   2.0000     -10.512290      -286.0540
  90   2.0000     -10.512250      -286.0529
  91   2.0000     -10.512187      -286.0511
  92   2.0000     -10.511702      -286.0380
  93   2.0000     -10.511660      -286.0368
  94   2.0000     -10.510512      -286.0056
  95   2.0000     -10.510437      -286.0035
  96   2.0000      -3.853898      -104.8699
  97   2.0000      -3.853892      -104.8697
  98   2.0000      -2.531902       -68.8966
  99   2.0000      -2.531895       -68.8964
 100   2.0000      -2.530469       -68.8576
 101   2.0000      -2.530451       -68.8571
 102   2.0000      -2.494572       -67.8808
 103   2.0000      -2.494565       -67.8806
 104   2.0000      -1.312810       -35.7234
 105   2.0000      -1.312743       -35.7216
 106   2.0000      -1.305762       -35.5316
 107   2.0000      -1.305743       -35.5311
 108   2.0000      -1.295721       -35.2584
 109   2.0000      -1.295630       -35.2559
 110   2.0000      -1.292671       -35.1754
 111   2.0000      -1.292646       -35.1747
 112   2.0000      -1.181286       -32.1444
 113   2.0000      -1.181095       -32.1392
 114   2.0000      -1.179946       -32.1080
 115   2.0000      -1.179839       -32.1051
 116   2.0000      -1.176054       -32.0021
 117   2.0000      -1.175781       -31.9946
 118   2.0000      -1.174956       -31.9722
 119   2.0000      -1.174836       -31.9689
 120   2.0000      -1.143465       -31.1153
 121   2.0000      -1.143211       -31.1083
 122   2.0000      -1.141928       -31.0734
 123   2.0000      -1.141849       -31.0713
 124   2.0000      -1.115312       -30.3492
 125   2.0000      -1.114406       -30.3245
 126   2.0000      -1.113580       -30.3020
 127   2.0000      -1.113312       -30.2948
 128   2.0000      -1.111518       -30.2460
 129   2.0000      -1.110625       -30.2216
 130   2.0000      -1.109581       -30.1932
 131   2.0000      -1.108980       -30.1769
 132   2.0000      -1.080628       -29.4054
 133   2.0000      -1.080298       -29.3964
 134   2.0000      -1.079588       -29.3771
 135   2.0000      -1.079026       -29.3618
 136   2.0000      -1.078866       -29.3574
 137   2.0000      -1.078799       -29.3556
 138   2.0000      -1.077848       -29.3297
 139   2.0000      -1.076936       -29.3049
 140   2.0000      -1.060286       -28.8518
 141   2.0000      -1.060122       -28.8474
 142   2.0000      -1.059055       -28.8183
 143   2.0000      -1.058140       -28.7935
 144   2.0000      -1.053119       -28.6568
 145   2.0000      -1.053053       -28.6550
 146   2.0000      -1.051268       -28.6064
 147   2.0000      -1.051183       -28.6042
 148   2.0000      -1.017389       -27.6846
 149   2.0000      -1.017288       -27.6818
 150   2.0000      -1.016043       -27.6479
 151   2.0000      -1.015498       -27.6331
 152   2.0000      -0.977226       -26.5917
 153   2.0000      -0.977138       -26.5893
 154   2.0000      -0.974524       -26.5181
 155   2.0000      -0.974451       -26.5162
 156   2.0000      -0.968307       -26.3490
 157   2.0000      -0.967710       -26.3327
 158   2.0000      -0.965140       -26.2628
 159   2.0000      -0.964536       -26.2464
 160   2.0000      -0.963736       -26.2246
 161   2.0000      -0.963669       -26.2228
 162   2.0000      -0.961996       -26.1772
 163   2.0000      -0.961850       -26.1733
 164   2.0000      -0.944649       -25.7052
 165   2.0000      -0.943211       -25.6661
 166   2.0000      -0.942154       -25.6373
 167   2.0000      -0.942084       -25.6354
 168   2.0000      -0.926619       -25.2146
 169   2.0000      -0.926531       -25.2122
 170   2.0000      -0.925286       -25.1783
 171   2.0000      -0.924831       -25.1659
 172   2.0000      -0.909867       -24.7587
 173   2.0000      -0.909772       -24.7562
 174   2.0000      -0.908505       -24.7217
 175   2.0000      -0.908384       -24.7184
 176   2.0000      -0.907127       -24.6842
 177   2.0000      -0.905099       -24.6290
 178   2.0000      -0.904695       -24.6180
 179   2.0000      -0.903813       -24.5940
 180   2.0000      -0.873302       -23.7638
 181   2.0000      -0.870994       -23.7010
 182   2.0000      -0.864381       -23.5210
 183   2.0000      -0.863630       -23.5006
 184   2.0000      -0.856266       -23.3002
 185   2.0000      -0.855203       -23.2712
 186   2.0000      -0.854595       -23.2547
 187   2.0000      -0.853979       -23.2379
 188   2.0000      -0.837474       -22.7888
 189   2.0000      -0.836126       -22.7521
 190   2.0000      -0.834229       -22.7005
 191   2.0000      -0.833939       -22.6926
 192   2.0000      -0.833827       -22.6896
 193   2.0000      -0.832845       -22.6629
 194   2.0000      -0.832643       -22.6574
 195   2.0000      -0.831350       -22.6222
 196   2.0000      -0.825842       -22.4723
 197   2.0000      -0.825699       -22.4684
 198   2.0000      -0.824454       -22.4345
 199   2.0000      -0.824269       -22.4295
 200   2.0000      -0.819679       -22.3046
 201   2.0000      -0.819429       -22.2978
 202   2.0000      -0.818656       -22.2768
 203   2.0000      -0.817949       -22.2575
 204   2.0000      -0.796912       -21.6851
 205   2.0000      -0.796316       -21.6688
 206   2.0000      -0.794440       -21.6178
 207   2.0000      -0.792616       -21.5682
 208   2.0000      -0.789254       -21.4767
 209   2.0000      -0.789138       -21.4735
 210   2.0000      -0.782145       -21.2832
 211   2.0000      -0.780960       -21.2510
 212   2.0000      -0.779285       -21.2054
 213   2.0000      -0.776654       -21.1338
 214   2.0000      -0.769946       -20.9513
 215   2.0000      -0.769148       -20.9296
 216   2.0000      -0.767483       -20.8843
 217   2.0000      -0.766527       -20.8583
 218   2.0000      -0.765711       -20.8361
 219   2.0000      -0.764923       -20.8146
 220   2.0000      -0.764099       -20.7922
 221   2.0000      -0.764003       -20.7896
 222   2.0000      -0.762812       -20.7572
 223   2.0000      -0.762739       -20.7552
 224   2.0000      -0.760496       -20.6941
 225   2.0000      -0.760433       -20.6924
 226   2.0000      -0.759227       -20.6596
 227   2.0000      -0.759032       -20.6543
 228   2.0000      -0.756461       -20.5843
 229   2.0000      -0.756366       -20.5818
 230   2.0000      -0.750875       -20.4323
 231   2.0000      -0.750457       -20.4210
 232   2.0000      -0.747450       -20.3392
 233   2.0000      -0.746906       -20.3244
 234   2.0000      -0.738490       -20.0953
 235   2.0000      -0.737394       -20.0655
 236   2.0000      -0.737017       -20.0553
 237   2.0000      -0.736514       -20.0416
 238   2.0000      -0.735640       -20.0178
 239   2.0000      -0.734546       -19.9880
 240   2.0000      -0.734318       -19.9818
 241   2.0000      -0.733062       -19.9476
 242   2.0000      -0.732575       -19.9344
 243   2.0000      -0.732349       -19.9282
 244   2.0000      -0.731591       -19.9076
 245   2.0000      -0.731103       -19.8943
 246   2.0000      -0.729984       -19.8639
 247   2.0000      -0.729828       -19.8596
 248   2.0000      -0.721715       -19.6389
 249   2.0000      -0.721642       -19.6369
 250   2.0000      -0.719107       -19.5679
 251   2.0000      -0.718988       -19.5647
 252   2.0000      -0.708419       -19.2771
 253   2.0000      -0.706846       -19.2342
 254   2.0000      -0.703607       -19.1461
 255   2.0000      -0.703415       -19.1409
 256   2.0000      -0.702849       -19.1255
 257   2.0000      -0.702288       -19.1102
 258   2.0000      -0.700781       -19.0692
 259   2.0000      -0.700076       -19.0500
 260   2.0000      -0.691846       -18.8261
 261   2.0000      -0.690398       -18.7867
 262   2.0000      -0.689879       -18.7726
 263   2.0000      -0.688973       -18.7479
 264   2.0000      -0.687945       -18.7199
 265   2.0000      -0.687728       -18.7140
 266   2.0000      -0.686114       -18.6701
 267   2.0000      -0.683927       -18.6106
 268   2.0000      -0.683539       -18.6000
 269   2.0000      -0.680467       -18.5164
 270   2.0000      -0.672264       -18.2932
 271   2.0000      -0.670722       -18.2513
 272   2.0000      -0.665708       -18.1148
 273   2.0000      -0.664251       -18.0752
 274   2.0000      -0.664199       -18.0738
 275   2.0000      -0.663031       -18.0420
 276   2.0000      -0.657890       -17.9021
 277   2.0000      -0.657206       -17.8835
 278   2.0000      -0.655119       -17.8267
 279   2.0000      -0.655075       -17.8255
 280   2.0000      -0.653374       -17.7792
 281   2.0000      -0.647762       -17.6265
 282   2.0000      -0.647128       -17.6092
 283   2.0000      -0.645137       -17.5551
 284   2.0000      -0.643944       -17.5226
 285   2.0000      -0.643523       -17.5112
 286   2.0000      -0.643136       -17.5006
 287   2.0000      -0.642512       -17.4836
 288   2.0000      -0.642406       -17.4808
 289   2.0000      -0.640735       -17.4353
 290   2.0000      -0.634147       -17.2560
 291   2.0000      -0.632434       -17.2094
 292   2.0000      -0.630176       -17.1480
 293   2.0000      -0.629104       -17.1188
 294   2.0000      -0.626046       -17.0356
 295   2.0000      -0.624721       -16.9995
 296   2.0000      -0.623339       -16.9619
 297   2.0000      -0.622176       -16.9303
 298   2.0000      -0.621281       -16.9059
 299   2.0000      -0.621036       -16.8992
 300   2.0000      -0.620835       -16.8938
 301   2.0000      -0.616779       -16.7834
 302   2.0000      -0.615876       -16.7588
 303   2.0000      -0.613792       -16.7021
 304   2.0000      -0.612775       -16.6745
 305   2.0000      -0.605528       -16.4772
 306   2.0000      -0.600673       -16.3452
 307   2.0000      -0.599596       -16.3158
 308   2.0000      -0.598932       -16.2978
 309   2.0000      -0.598751       -16.2928
 310   2.0000      -0.584869       -15.9151
 311   2.0000      -0.581996       -15.8369
 312   2.0000      -0.578783       -15.7495
 313   2.0000      -0.577603       -15.7174
 314   2.0000      -0.574637       -15.6367
 315   2.0000      -0.574585       -15.6353
 316   2.0000      -0.570277       -15.5180
 317   2.0000      -0.569651       -15.5010
 318   2.0000      -0.566618       -15.4185
 319   2.0000      -0.566376       -15.4119
 320   2.0000      -0.562826       -15.3153
 321   2.0000      -0.562760       -15.3135
 322   2.0000      -0.560336       -15.2475
 323   2.0000      -0.560203       -15.2439
 324   2.0000      -0.555087       -15.1047
 325   2.0000      -0.554380       -15.0854
 326   2.0000      -0.552396       -15.0315
 327   2.0000      -0.551716       -15.0130
 328   2.0000      -0.540015       -14.6945
 329   2.0000      -0.539522       -14.6811
 330   2.0000      -0.528242       -14.3742
 331   2.0000      -0.527828       -14.3629
 332   2.0000      -0.504407       -13.7256
 333   2.0000      -0.503933       -13.7127
 334   2.0000      -0.499978       -13.6051
 335   2.0000      -0.499922       -13.6036
 336   0.0000      -0.360099        -9.7988
 337   0.0000      -0.356970        -9.7137
 338   0.0000      -0.354799        -9.6546
 339   0.0000      -0.352817        -9.6006
 340   0.0000      -0.352156        -9.5826

MULLIKEN ATOMIC CHARGES
-----------------------
   0 Pd:    0.387518
   1 Pd:    0.387357
   2 C :    0.001475
   3 C :   -0.045505
   4 C :   -0.010425
   5 C :    0.029428
   6 C :    0.032560
   7 C :    0.024448
   8 C :    0.026649
   9 C :    0.002833
  10 C :    0.123760
  11 N :   -0.307031
  12 C :    0.163488
  13 C :   -0.007164
  14 H :    0.056296
  15 H :    0.079845
  16 H :    0.057426
  17 H :    0.065009
  18 H :    0.069768
  19 H :    0.047757
  20 C :   -0.054496
  21 C :    0.036293
  22 C :   -0.011560
  23 C :    0.027561
  24 C :   -0.022211
  25 C :    0.012091
  26 H :    0.052716
  27 H :    0.044712
  28 H :    0.007283
  29 H :    0.010713
  30 C :   -0.032135
  31 C :    0.071198
  32 C :   -0.018056
  33 C :    0.134732
  34 N :   -0.303095
  35 C :    0.133010
  36 H :    0.074807
  37 H :    0.085218
  38 H :    0.091306
  39 H :    0.053455
  40 C :    0.010233
  41 C :   -0.049651
  42 C :   -0.016546
  43 C :    0.032436
  44 C :    0.031977
  45 C :    0.024052
  46 C :    0.025684
  47 C :    0.003397
  48 C :    0.122822
  49 N :   -0.307198
  50 C :    0.160480
  51 C :   -0.004939
  52 H :    0.057534
  53 H :    0.079749
  54 H :    0.056894
  55 H :    0.064606
  56 H :    0.069701
  57 H :    0.052949
  58 C :   -0.073271
  59 C :    0.037217
  60 C :   -0.010738
  61 C :    0.008464
  62 C :   -0.021540
  63 C :    0.022548
  64 H :    0.049688
  65 H :    0.039097
  66 H :    0.024180
  67 H :    0.025140
  68 C :   -0.030152
  69 C :    0.072684
  70 C :   -0.018510
  71 C :    0.135515
  72 N :   -0.302483
  73 C :    0.132982
  74 H :    0.076343
  75 H :    0.085403
  76 H :    0.090921
  77 H :    0.050921
  78 C :    0.001262
  79 C :   -0.045371
  80 C :   -0.010209
  81 C :    0.029293
  82 C :    0.032582
  83 C :    0.024502
  84 C :    0.026483
  85 C :    0.002795
  86 C :    0.123650
  87 N :   -0.307201
  88 C :    0.163089
  89 C :   -0.007022
  90 H :    0.056272
  91 H :    0.079804
  92 H :    0.057407
  93 H :    0.065028
  94 H :    0.070018
  95 H :    0.047760
  96 C :   -0.054201
  97 C :    0.012035
  98 C :   -0.021910
  99 C :    0.027325
 100 C :   -0.011357
 101 C :    0.036108
 102 H :    0.010448
 103 H :    0.007354
 104 H :    0.044689
 105 H :    0.052785
 106 C :   -0.032457
 107 C :    0.071261
 108 C :   -0.018043
 109 C :    0.134908
 110 N :   -0.303303
 111 C :    0.133165
 112 H :    0.074709
 113 H :    0.085125
 114 H :    0.091194
 115 H :    0.053650
 116 C :    0.010252
 117 C :   -0.049652
 118 C :   -0.016521
 119 C :    0.032433
 120 C :    0.031945
 121 C :    0.024056
 122 C :    0.025665
 123 C :    0.003223
 124 C :    0.123146
 125 N :   -0.307341
 126 C :    0.160554
 127 C :   -0.004825
 128 H :    0.057455
 129 H :    0.079776
 130 H :    0.056934
 131 H :    0.064704
 132 H :    0.069765
 133 H :    0.052702
 134 C :   -0.073009
 135 C :    0.037305
 136 C :   -0.010525
 137 C :    0.007747
 138 C :   -0.021236
 139 C :    0.022337
 140 H :    0.049635
 141 H :    0.039013
 142 H :    0.024316
 143 H :    0.024963
 144 C :   -0.030716
 145 C :    0.072960
 146 C :   -0.018543
 147 C :    0.135446
 148 N :   -0.302721
 149 C :    0.133729
 150 H :    0.076349
 151 H :    0.085410
 152 H :    0.091068
 153 H :    0.050953
Sum of atomic charges:    4.0000000

LOEWDIN ATOMIC CHARGES
----------------------
   0 Pd:   -0.350255
   1 Pd:   -0.350128
   2 C :   -0.013704
   3 C :   -0.022517
   4 C :   -0.029737
   5 C :    0.040230
   6 C :    0.034660
   7 C :    0.015785
   8 C :    0.010247
   9 C :    0.020527
  10 C :    0.040317
  11 N :    0.062982
  12 C :    0.091655
  13 C :   -0.018236
  14 H :    0.058763
  15 H :    0.063152
  16 H :    0.056636
  17 H :    0.063796
  18 H :    0.053055
  19 H :    0.049348
  20 C :   -0.038812
  21 C :    0.023325
  22 C :    0.001137
  23 C :   -0.032829
  24 C :   -0.020986
  25 C :   -0.003030
  26 H :    0.055505
  27 H :    0.047323
  28 H :    0.031478
  29 H :    0.036505
  30 C :   -0.012099
  31 C :    0.056288
  32 C :    0.006842
  33 C :    0.072137
  34 N :    0.071954
  35 C :    0.066473
  36 H :    0.060503
  37 H :    0.067713
  38 H :    0.058955
  39 H :    0.048927
  40 C :   -0.011987
  41 C :   -0.025221
  42 C :   -0.029474
  43 C :    0.040241
  44 C :    0.034980
  45 C :    0.014725
  46 C :    0.010114
  47 C :    0.020314
  48 C :    0.039277
  49 N :    0.062535
  50 C :    0.092148
  51 C :   -0.018914
  52 H :    0.059392
  53 H :    0.063056
  54 H :    0.056394
  55 H :    0.063622
  56 H :    0.053134
  57 H :    0.050313
  58 C :   -0.041577
  59 C :    0.019325
  60 C :   -0.003769
  61 C :   -0.034989
  62 C :   -0.018094
  63 C :    0.004099
  64 H :    0.054037
  65 H :    0.044683
  66 H :    0.037307
  67 H :    0.043062
  68 C :   -0.011457
  69 C :    0.057215
  70 C :    0.007527
  71 C :    0.072194
  72 N :    0.071248
  73 C :    0.065334
  74 H :    0.061512
  75 H :    0.067782
  76 H :    0.058814
  77 H :    0.047276
  78 C :   -0.013688
  79 C :   -0.022547
  80 C :   -0.029739
  81 C :    0.040177
  82 C :    0.034663
  83 C :    0.015798
  84 C :    0.010262
  85 C :    0.020489
  86 C :    0.040345
  87 N :    0.062924
  88 C :    0.091515
  89 C :   -0.018261
  90 H :    0.058762
  91 H :    0.063128
  92 H :    0.056620
  93 H :    0.063804
  94 H :    0.053138
  95 H :    0.049361
  96 C :   -0.038815
  97 C :   -0.003023
  98 C :   -0.020959
  99 C :   -0.032808
 100 C :    0.001130
 101 C :    0.023319
 102 H :    0.036399
 103 H :    0.031492
 104 H :    0.047322
 105 H :    0.055533
 106 C :   -0.012130
 107 C :    0.056266
 108 C :    0.006791
 109 C :    0.072108
 110 N :    0.071889
 111 C :    0.066559
 112 H :    0.060471
 113 H :    0.067673
 114 H :    0.058925
 115 H :    0.048995
 116 C :   -0.012053
 117 C :   -0.025176
 118 C :   -0.029490
 119 C :    0.040258
 120 C :    0.034941
 121 C :    0.014751
 122 C :    0.010125
 123 C :    0.020278
 124 C :    0.039371
 125 N :    0.062495
 126 C :    0.092110
 127 C :   -0.018909
 128 H :    0.059356
 129 H :    0.063069
 130 H :    0.056412
 131 H :    0.063660
 132 H :    0.053189
 133 H :    0.050230
 134 C :   -0.041563
 135 C :    0.019420
 136 C :   -0.003817
 137 C :   -0.034999
 138 C :   -0.018103
 139 C :    0.003971
 140 H :    0.054022
 141 H :    0.044659
 142 H :    0.037389
 143 H :    0.042978
 144 C :   -0.011476
 145 C :    0.057231
 146 C :    0.007466
 147 C :    0.072241
 148 N :    0.071123
 149 C :    0.065439
 150 H :    0.061529
 151 H :    0.067786
 152 H :    0.058853
 153 H :    0.047276

  Mayer bond orders larger than 0.100000
B(  0-Pd, 34-N ) :   0.5365 B(  0-Pd, 72-N ) :   0.5364 B(  0-Pd, 87-N ) :   0.5618
B(  0-Pd,125-N ) :   0.5626 B(  1-Pd, 11-N ) :   0.5622 B(  1-Pd, 49-N ) :   0.5626
B(  1-Pd,110-N ) :   0.5363 B(  1-Pd,148-N ) :   0.5366 B(  2-C ,  3-C ) :   2.5909
B(  2-C , 20-C ) :   1.0154 B(  3-C ,  4-C ) :   0.9995 B(  4-C ,  5-C ) :   1.4543
B(  4-C , 13-C ) :   1.2123 B(  5-C ,  6-C ) :   1.2641 B(  5-C , 14-H ) :   0.9928
B(  6-C ,  7-C ) :   1.4571 B(  6-C , 15-H ) :   0.9804 B(  7-C ,  8-C ) :   1.2657
B(  7-C , 16-H ) :   0.9944 B(  8-C ,  9-C ) :   1.2514 B(  8-C , 13-C ) :   1.2199
B(  9-C , 10-C ) :   1.5527 B(  9-C , 17-H ) :   0.9736 B( 10-C , 11-N ) :   1.1945
B( 10-C , 18-H ) :   0.9484 B( 11-N , 12-C ) :   1.4054 B( 12-C , 13-C ) :   1.3324
B( 12-C , 19-H ) :   0.9385 B( 20-C , 21-C ) :   1.3284 B( 20-C , 25-C ) :   1.3290
B( 21-C , 22-C ) :   1.4045 B( 21-C , 26-H ) :   0.9944 B( 22-C , 23-C ) :   1.3542
B( 22-C , 27-H ) :   0.9903 B( 23-C , 24-C ) :   1.3507 B( 23-C , 30-C ) :   1.0101
B( 24-C , 25-C ) :   1.4050 B( 24-C , 28-H ) :   0.9868 B( 25-C , 29-H ) :   0.9941
B( 30-C , 31-C ) :   1.3762 B( 30-C , 35-C ) :   1.4020 B( 31-C , 32-C ) :   1.4053
B( 31-C , 36-H ) :   0.9808 B( 32-C , 33-C ) :   1.4216 B( 32-C , 37-H ) :   0.9727
B( 33-C , 34-N ) :   1.3254 B( 33-C , 38-H ) :   0.9509 B( 34-N , 35-C ) :   1.3216
B( 35-C , 39-H ) :   0.9605 B( 40-C , 41-C ) :   2.6025 B( 40-C , 58-C ) :   1.0052
B( 41-C , 42-C ) :   0.9907 B( 42-C , 43-C ) :   1.4637 B( 42-C , 51-C ) :   1.2147
B( 43-C , 44-C ) :   1.2615 B( 43-C , 52-H ) :   0.9925 B( 44-C , 45-C ) :   1.4586
B( 44-C , 53-H ) :   0.9805 B( 45-C , 46-C ) :   1.2667 B( 45-C , 54-H ) :   0.9946
B( 46-C , 47-C ) :   1.2514 B( 46-C , 51-C ) :   1.2188 B( 47-C , 48-C ) :   1.5538
B( 47-C , 55-H ) :   0.9736 B( 48-C , 49-N ) :   1.1913 B( 48-C , 56-H ) :   0.9477
B( 49-N , 50-C ) :   1.4092 B( 50-C , 51-C ) :   1.3300 B( 50-C , 57-H ) :   0.9384
B( 58-C , 59-C ) :   1.3338 B( 58-C , 63-C ) :   1.3356 B( 59-C , 60-C ) :   1.4017
B( 59-C , 64-H ) :   0.9944 B( 60-C , 61-C ) :   1.3580 B( 60-C , 65-H ) :   0.9897
B( 61-C , 62-C ) :   1.3528 B( 61-C , 68-C ) :   1.0068 B( 62-C , 63-C ) :   1.4006
B( 62-C , 66-H ) :   0.9879 B( 63-C , 67-H ) :   0.9942 B( 68-C , 69-C ) :   1.3740
B( 68-C , 73-C ) :   1.4070 B( 69-C , 70-C ) :   1.4011 B( 69-C , 74-H ) :   0.9834
B( 70-C , 71-C ) :   1.4215 B( 70-C , 75-H ) :   0.9730 B( 71-C , 72-N ) :   1.3242
B( 71-C , 76-H ) :   0.9511 B( 72-N , 73-C ) :   1.3227 B( 73-C , 77-H ) :   0.9593
B( 78-C , 79-C ) :   2.5907 B( 78-C , 96-C ) :   1.0157 B( 79-C , 80-C ) :   0.9996
B( 80-C , 81-C ) :   1.4543 B( 80-C , 89-C ) :   1.2121 B( 81-C , 82-C ) :   1.2641
B( 81-C , 90-H ) :   0.9928 B( 82-C , 83-C ) :   1.4572 B( 82-C , 91-H ) :   0.9804
B( 83-C , 84-C ) :   1.2656 B( 83-C , 92-H ) :   0.9945 B( 84-C , 85-C ) :   1.2513
B( 84-C , 89-C ) :   1.2200 B( 85-C , 86-C ) :   1.5526 B( 85-C , 93-H ) :   0.9736
B( 86-C , 87-N ) :   1.1946 B( 86-C , 94-H ) :   0.9484 B( 87-N , 88-C ) :   1.4052
B( 88-C , 89-C ) :   1.3326 B( 88-C , 95-H ) :   0.9384 B( 96-C , 97-C ) :   1.3289
B( 96-C ,101-C ) :   1.3283 B( 97-C , 98-C ) :   1.4049 B( 97-C ,102-H ) :   0.9941
B( 98-C , 99-C ) :   1.3509 B( 98-C ,103-H ) :   0.9869 B( 99-C ,100-C ) :   1.3542
B( 99-C ,106-C ) :   1.0099 B(100-C ,101-C ) :   1.4046 B(100-C ,104-H ) :   0.9903
B(101-C ,105-H ) :   0.9944 B(106-C ,107-C ) :   1.3763 B(106-C ,111-C ) :   1.4021
B(107-C ,108-C ) :   1.4051 B(107-C ,112-H ) :   0.9809 B(108-C ,109-C ) :   1.4218
B(108-C ,113-H ) :   0.9727 B(109-C ,110-N ) :   1.3253 B(109-C ,114-H ) :   0.9508
B(110-N ,111-C ) :   1.3216 B(111-C ,115-H ) :   0.9605 B(116-C ,117-C ) :   2.6020
B(116-C ,134-C ) :   1.0053 B(117-C ,118-C ) :   0.9909 B(118-C ,119-C ) :   1.4633
B(118-C ,127-C ) :   1.2146 B(119-C ,120-C ) :   1.2616 B(119-C ,128-H ) :   0.9926
B(120-C ,121-C ) :   1.4585 B(120-C ,129-H ) :   0.9804 B(121-C ,122-C ) :   1.2667
B(121-C ,130-H ) :   0.9946 B(122-C ,123-C ) :   1.2514 B(122-C ,127-C ) :   1.2188
B(123-C ,124-C ) :   1.5537 B(123-C ,131-H ) :   0.9736 B(124-C ,125-N ) :   1.1916
B(124-C ,132-H ) :   0.9477 B(125-N ,126-C ) :   1.4089 B(126-C ,127-C ) :   1.3302
B(126-C ,133-H ) :   0.9383 B(134-C ,135-C ) :   1.3337 B(134-C ,139-C ) :   1.3354
B(135-C ,136-C ) :   1.4018 B(135-C ,140-H ) :   0.9944 B(136-C ,137-C ) :   1.3581
B(136-C ,141-H ) :   0.9897 B(137-C ,138-C ) :   1.3529 B(137-C ,144-C ) :   1.0065
B(138-C ,139-C ) :   1.4005 B(138-C ,142-H ) :   0.9879 B(139-C ,143-H ) :   0.9942
B(144-C ,145-C ) :   1.3740 B(144-C ,149-C ) :   1.4073 B(145-C ,146-C ) :   1.4010
B(145-C ,150-H ) :   0.9835 B(146-C ,147-C ) :   1.4214 B(146-C ,151-H ) :   0.9730
B(147-C ,148-N ) :   1.3240 B(147-C ,152-H ) :   0.9511 B(148-N ,149-C ) :   1.3227
B(149-C ,153-H ) :   0.9593

Dispersion correction           -0.255445779
FINAL SINGLE POINT ENERGY     -4072.813674702914

DIPOLE MOMENT
-------------
                                X             Y             Z
Electronic contribution:      0.98112       0.06008       0.19141
Nuclear contribution   :     -0.99112      -0.06248      -0.19450
                        -----------------------------------------
Total Dipole Moment    :     -0.01001      -0.00241      -0.00309
                        -----------------------------------------
Magnitude (a.u.)       :      0.01075
Magnitude (Debye)      :      0.02731

Rotational constants in cm-1:     0.000767     0.000348     0.000342
Rotational constants in MHz :    22.994053    10.447361    10.255492

                             ****ORCA TERMINATED NORMALLY****
TOTAL RUN TIME: 0 days 0 hours 14 minutes 27 seconds 122 msec
