                         Program Version 4.2.1 -  RELEASE  -
|  1> ! DFT SP RKS PBE0 def2-SVP D3BJ Grid6 NOFINALGRID SlowConv TightSCF printbasis
|  2>
|  3> %base "_s_4b1_d_PBE0"
|  4> %maxcore 3000
|  5> %scf
|  6>    MaxIter 2000
|  7> end
|  8> %pal
|  9>    nprocs 32
| 10> end
| 11>
| 12> * xyzfile 4 1 s_4b1_d.xyz
| 13>
| 14>                          ****END OF INPUT****

CARTESIAN COORDINATES (ANGSTROEM)
---------------------------------
  Pd     1.097000    6.339000   -0.843300
  Pd     0.562500   -4.927700   -0.688200
  C      5.606300   -1.228800   -1.333600
  C      5.692300   -2.434700   -1.375900
  C      5.896600   -3.827000   -1.439400
  C      7.170600   -4.317900   -1.662200
  C      7.414900   -5.693600   -1.719700
  C      6.394500   -6.597800   -1.560000
  C      5.081800   -6.143800   -1.340000
  C      3.988800   -7.025600   -1.177100
  C      2.735100   -6.525100   -0.978900
  N      2.496400   -5.189600   -0.931400
  C      3.487600   -4.335300   -1.070200
  C      4.815700   -4.744800   -1.277500
  H      7.989300   -3.625900   -1.787900
  H      8.422400   -6.040600   -1.891300
  H      6.584900   -7.658600   -1.603200
  H      4.159700   -8.089800   -1.214500
  H      1.873700   -7.187100   -0.850500
  H      3.242100   -3.279700   -1.019300
  C      5.425800    0.169000   -1.282200
  C      6.104100    1.008600   -2.170300
  C      5.879000    2.370300   -2.144300
  C      4.970200    2.921300   -1.239600
  C      4.321700    2.081900   -0.330300
  C      4.546300    0.722500   -0.346800
  H      6.794700    0.586100   -2.883900
  H      6.386800    3.005900   -2.853200
  H      3.661900    2.503000    0.411200
  H      4.053600    0.078600    0.363100
  C      4.668700    4.359600   -1.254500
  C      5.655400    5.336600   -1.425900
  C      5.298500    6.673800   -1.426800
  C      3.966400    7.020400   -1.257900
  N      3.027600    6.090800   -1.104000
  C      3.354000    4.796700   -1.103200
  H      6.688800    5.047300   -1.538100
  H      6.043100    7.443100   -1.551900
  H      3.640200    8.054100   -1.246800
  H      2.531900    4.080900   -0.996500
  C      1.525900    2.439200    4.069600
  C      1.656200    3.635400    4.194300
  C      1.822200    5.011800    4.442500
  C      2.093900    5.443200    5.728600
  C      2.253300    6.802400    6.016200
  C      2.147800    7.749000    5.027700
  C      1.881000    7.355600    3.704100
  C      1.769200    8.282600    2.642500
  C      1.521900    7.839300    1.376000
  N      1.377600    6.519100    1.094800
  C      1.465600    5.624600    2.056000
  C      1.715500    5.974200    3.393900
  H      2.178100    4.717300    6.522800
  H      2.460800    7.102600    7.031900
  H      2.269300    8.797100    5.251500
  H      1.884100    9.335100    2.847200
  H      1.431000    8.537000    0.538300
  H      1.337300    4.584000    1.777200
  C      1.375000    1.055200    3.844200
  C      0.415300    0.598800    2.935600
  C      0.304100   -0.748000    2.666900
  C      1.140600   -1.671200    3.299400
  C      2.068900   -1.216000    4.237100
  C      2.189800    0.132400    4.506400
  H     -0.238700    1.307600    2.454700
  H     -0.455700   -1.093300    1.984200
  H      2.722100   -1.917100    4.733100
  H      2.921600    0.480100    5.219100
  C      1.056600   -3.096500    2.951400
  C      1.142600   -4.113900    3.907900
  C      1.053600   -5.435900    3.507600
  C      0.881400   -5.727100    2.162800
  N      0.808800   -4.759700    1.252800
  C      0.894600   -3.479800    1.621300
  H      1.259300   -3.866300    4.951500
  H      1.111800   -6.235300    4.228300
  H      0.801700   -6.746500    1.802800
  H      0.851900   -2.732500    0.821800
  C     -4.108200   -0.751900   -0.154000
  C     -4.308000   -1.942600   -0.079500
  C     -4.643200   -3.307100    0.021000
  C     -5.958000   -3.669000    0.253400
  C     -6.331400   -5.013400    0.347600
  C     -5.401100   -6.014100    0.215600
  C     -4.051200   -5.692500   -0.013000
  C     -3.046500   -6.677800   -0.148700
  C     -1.751100   -6.303800   -0.357200
  N     -1.387100   -4.998600   -0.440700
  C     -2.293000   -4.050900   -0.327900
  C     -3.654000   -4.327100   -0.112800
  H     -6.707600   -2.899500    0.357700
  H     -7.367200   -5.258700    0.525600
  H     -5.691000   -7.050500    0.287200
  H     -3.317300   -7.719600   -0.082500
  H     -0.956200   -7.047600   -0.465200
  H     -1.948800   -3.025000   -0.406900
  C     -3.796100    0.620600   -0.242800
  C     -2.869400    1.062900   -1.191700
  C     -2.517100    2.394000   -1.244700
  C     -3.081900    3.315300   -0.359100
  C     -4.037400    2.877400    0.559200
  C     -4.390500    1.544300    0.621700
  H     -2.440900    0.356300   -1.883500
  H     -1.821400    2.730500   -1.996500
  H     -4.481700    3.577100    1.250000
  H     -5.116900    1.208600    1.345600
  C     -2.645400    4.718400   -0.382900
  C     -3.535000    5.788700   -0.239000
  C     -3.053100    7.085700   -0.274000
  C     -1.694500    7.299900   -0.450800
  N     -0.848100    6.281800   -0.578400
  C     -1.295500    5.024900   -0.544500
  H     -4.591000    5.601700   -0.120100
  H     -3.721400    7.925100   -0.170600
  H     -1.271900    8.297300   -0.489600
  H     -0.545100    4.231800   -0.630800
  C      0.294400    2.363800   -5.648200
  C      0.277900    3.563000   -5.805700
  C      0.242600    4.941700   -6.091700
  C      0.011300    5.361400   -7.389500
  C     -0.019100    6.721200   -7.714500
  C      0.176900    7.680300   -6.752200
  C      0.407000    7.299900   -5.417900
  C      0.607400    8.240900   -4.382000
  C      0.813100    7.811100   -3.103500
  N      0.832200    6.491400   -2.786000
  C      0.658700    5.583300   -3.722400
  C      0.441400    5.918100   -5.069800
  H     -0.142400    4.625300   -8.163600
  H     -0.198600    7.011800   -8.738300
  H      0.154800    8.728700   -7.004800
  H      0.592300    9.293600   -4.615700
  H      0.970700    8.519800   -2.285200
  H      0.688400    4.543200   -3.414900
  C      0.313900    0.978400   -5.384700
  C     -0.585200    0.119000   -6.022500
  C     -0.592100   -1.227000   -5.716000
  C      0.290000   -1.741900   -4.764800
  C      1.210800   -0.885000   -4.156700
  C      1.227200    0.458500   -4.462500
  H     -1.281700    0.514500   -6.745600
  H     -1.309300   -1.876500   -6.193600
  H      1.935200   -1.281600   -3.463600
  H      1.945800    1.115200   -4.000300
  C      0.239300   -3.158600   -4.377600
  C      0.056600   -4.189400   -5.305900
  C      0.021000   -5.502300   -4.869200
  C      0.166300   -5.771400   -3.516700
  N      0.330800   -4.790400   -2.633600
  C      0.365700   -3.518800   -3.037200
  H     -0.037200   -3.960700   -6.356100
  H     -0.113200   -6.312200   -5.567800
  H      0.149800   -6.783400   -3.128700
  H      0.479600   -2.757100   -2.258500

 Total Charge           Charge          ....    4
 Multiplicity           Mult            ....    1
 Number of Electrons    NEL             ....  672
 Basis Dimension        Dim             .... 1686

ORBITAL ENERGIES
----------------

  NO   OCC          E(Eh)            E(eV)
   0   2.0000     -14.757529      -401.5728
   1   2.0000     -14.757521      -401.5726
   2   2.0000     -14.757498      -401.5719
   3   2.0000     -14.757489      -401.5717
   4   2.0000     -14.748986      -401.3403
   5   2.0000     -14.748956      -401.3395
   6   2.0000     -14.748953      -401.3394
   7   2.0000     -14.748920      -401.3385
   8   2.0000     -10.590084      -288.1708
   9   2.0000     -10.590080      -288.1707
  10   2.0000     -10.590064      -288.1703
  11   2.0000     -10.590060      -288.1702
  12   2.0000     -10.587388      -288.0975
  13   2.0000     -10.587370      -288.0970
  14   2.0000     -10.587341      -288.0962
  15   2.0000     -10.587321      -288.0957
  16   2.0000     -10.585562      -288.0478
  17   2.0000     -10.585544      -288.0473
  18   2.0000     -10.585542      -288.0473
  19   2.0000     -10.585537      -288.0471
  20   2.0000     -10.572854      -287.7020
  21   2.0000     -10.572836      -287.7015
  22   2.0000     -10.572812      -287.7008
  23   2.0000     -10.572796      -287.7004
  24   2.0000     -10.558858      -287.3211
  25   2.0000     -10.558855      -287.3211
  26   2.0000     -10.558852      -287.3210
  27   2.0000     -10.558846      -287.3208
  28   2.0000     -10.552493      -287.1479
  29   2.0000     -10.552491      -287.1479
  30   2.0000     -10.552486      -287.1477
  31   2.0000     -10.552484      -287.1477
  32   2.0000     -10.546560      -286.9865
  33   2.0000     -10.546554      -286.9863
  34   2.0000     -10.546508      -286.9851
  35   2.0000     -10.546498      -286.9848
  36   2.0000     -10.545809      -286.9661
  37   2.0000     -10.545804      -286.9659
  38   2.0000     -10.545759      -286.9647
  39   2.0000     -10.545754      -286.9646
  40   2.0000     -10.545263      -286.9512
  41   2.0000     -10.545263      -286.9512
  42   2.0000     -10.545257      -286.9510
  43   2.0000     -10.545257      -286.9510
  44   2.0000     -10.543335      -286.8987
  45   2.0000     -10.543332      -286.8986
  46   2.0000     -10.543289      -286.8975
  47   2.0000     -10.543285      -286.8974
  48   2.0000     -10.538355      -286.7632
  49   2.0000     -10.538353      -286.7632
  50   2.0000     -10.538281      -286.7612
  51   2.0000     -10.538279      -286.7612
  52   2.0000     -10.537394      -286.7371
  53   2.0000     -10.537390      -286.7369
  54   2.0000     -10.537355      -286.7360
  55   2.0000     -10.537347      -286.7358
  56   2.0000     -10.534672      -286.6630
  57   2.0000     -10.534663      -286.6628
  58   2.0000     -10.534642      -286.6622
  59   2.0000     -10.534638      -286.6621
  60   2.0000     -10.522819      -286.3405
  61   2.0000     -10.522815      -286.3404
  62   2.0000     -10.522738      -286.3383
  63   2.0000     -10.522733      -286.3381
  64   2.0000     -10.521241      -286.2975
  65   2.0000     -10.521233      -286.2973
  66   2.0000     -10.521117      -286.2942
  67   2.0000     -10.521115      -286.2941
  68   2.0000     -10.518859      -286.2327
  69   2.0000     -10.518857      -286.2326
  70   2.0000     -10.518801      -286.2311
  71   2.0000     -10.518800      -286.2311
  72   2.0000     -10.517988      -286.2090
  73   2.0000     -10.517975      -286.2087
  74   2.0000     -10.517963      -286.2083
  75   2.0000     -10.517960      -286.2083
  76   2.0000     -10.516077      -286.1570
  77   2.0000     -10.516067      -286.1567
  78   2.0000     -10.516050      -286.1563
  79   2.0000     -10.516049      -286.1563
  80   2.0000     -10.514289      -286.1083
  81   2.0000     -10.514287      -286.1083
  82   2.0000     -10.514244      -286.1071
  83   2.0000     -10.514240      -286.1070
  84   2.0000     -10.514036      -286.1015
  85   2.0000     -10.514011      -286.1008
  86   2.0000     -10.513953      -286.0992
  87   2.0000     -10.513933      -286.0987
  88   2.0000     -10.513736      -286.0933
  89   2.0000     -10.513735      -286.0933
  90   2.0000     -10.513692      -286.0921
  91   2.0000     -10.513688      -286.0920
  92   2.0000     -10.511234      -286.0252
  93   2.0000     -10.511211      -286.0246
  94   2.0000     -10.511157      -286.0231
  95   2.0000     -10.511137      -286.0226
  96   2.0000      -3.854082      -104.8749
  97   2.0000      -3.854057      -104.8742
  98   2.0000      -2.532304       -68.9075
  99   2.0000      -2.532256       -68.9062
 100   2.0000      -2.531688       -68.8907
 101   2.0000      -2.531686       -68.8907
 102   2.0000      -2.494961       -67.8913
 103   2.0000      -2.494936       -67.8907
 104   2.0000      -1.311109       -35.6771
 105   2.0000      -1.311089       -35.6766
 106   2.0000      -1.305647       -35.5285
 107   2.0000      -1.305630       -35.5280
 108   2.0000      -1.297966       -35.3195
 109   2.0000      -1.297939       -35.3187
 110   2.0000      -1.295670       -35.2570
 111   2.0000      -1.295641       -35.2562
 112   2.0000      -1.179382       -32.0926
 113   2.0000      -1.178754       -32.0755
 114   2.0000      -1.178721       -32.0746
 115   2.0000      -1.178671       -32.0733
 116   2.0000      -1.177462       -32.0404
 117   2.0000      -1.176811       -32.0227
 118   2.0000      -1.176503       -32.0143
 119   2.0000      -1.176463       -32.0132
 120   2.0000      -1.141029       -31.0490
 121   2.0000      -1.140813       -31.0431
 122   2.0000      -1.139417       -31.0051
 123   2.0000      -1.139397       -31.0046
 124   2.0000      -1.115766       -30.3615
 125   2.0000      -1.114873       -30.3372
 126   2.0000      -1.114833       -30.3362
 127   2.0000      -1.114713       -30.3329
 128   2.0000      -1.109714       -30.1969
 129   2.0000      -1.108833       -30.1729
 130   2.0000      -1.108818       -30.1725
 131   2.0000      -1.108359       -30.1600
 132   2.0000      -1.082762       -29.4635
 133   2.0000      -1.082715       -29.4622
 134   2.0000      -1.081132       -29.4191
 135   2.0000      -1.081087       -29.4179
 136   2.0000      -1.079055       -29.3626
 137   2.0000      -1.078409       -29.3450
 138   2.0000      -1.078360       -29.3437
 139   2.0000      -1.077304       -29.3149
 140   2.0000      -1.060762       -28.8648
 141   2.0000      -1.060027       -28.8448
 142   2.0000      -1.059983       -28.8436
 143   2.0000      -1.058921       -28.8147
 144   2.0000      -1.050503       -28.5856
 145   2.0000      -1.050469       -28.5847
 146   2.0000      -1.050416       -28.5833
 147   2.0000      -1.050395       -28.5827
 148   2.0000      -1.016772       -27.6678
 149   2.0000      -1.016397       -27.6576
 150   2.0000      -1.016343       -27.6561
 151   2.0000      -1.015666       -27.6377
 152   2.0000      -0.975165       -26.5356
 153   2.0000      -0.974808       -26.5259
 154   2.0000      -0.974780       -26.5251
 155   2.0000      -0.974735       -26.5239
 156   2.0000      -0.971151       -26.4264
 157   2.0000      -0.969161       -26.3722
 158   2.0000      -0.969119       -26.3711
 159   2.0000      -0.968934       -26.3660
 160   2.0000      -0.961829       -26.1727
 161   2.0000      -0.961702       -26.1692
 162   2.0000      -0.958724       -26.0882
 163   2.0000      -0.958703       -26.0876
 164   2.0000      -0.945962       -25.7409
 165   2.0000      -0.944282       -25.6952
 166   2.0000      -0.943581       -25.6761
 167   2.0000      -0.943541       -25.6751
 168   2.0000      -0.927416       -25.2363
 169   2.0000      -0.926818       -25.2200
 170   2.0000      -0.926268       -25.2050
 171   2.0000      -0.926218       -25.2037
 172   2.0000      -0.908489       -24.7213
 173   2.0000      -0.907634       -24.6980
 174   2.0000      -0.907578       -24.6964
 175   2.0000      -0.907347       -24.6902
 176   2.0000      -0.906608       -24.6700
 177   2.0000      -0.905625       -24.6433
 178   2.0000      -0.903108       -24.5748
 179   2.0000      -0.903053       -24.5733
 180   2.0000      -0.872133       -23.7319
 181   2.0000      -0.869379       -23.6570
 182   2.0000      -0.859970       -23.4010
 183   2.0000      -0.858871       -23.3711
 184   2.0000      -0.858857       -23.3707
 185   2.0000      -0.858729       -23.3672
 186   2.0000      -0.854965       -23.2648
 187   2.0000      -0.854910       -23.2633
 188   2.0000      -0.841522       -22.8990
 189   2.0000      -0.841062       -22.8865
 190   2.0000      -0.837830       -22.7985
 191   2.0000      -0.837789       -22.7974
 192   2.0000      -0.832217       -22.6458
 193   2.0000      -0.832150       -22.6439
 194   2.0000      -0.830816       -22.6077
 195   2.0000      -0.830755       -22.6060
 196   2.0000      -0.826433       -22.4884
 197   2.0000      -0.825346       -22.4588
 198   2.0000      -0.823850       -22.4181
 199   2.0000      -0.823845       -22.4180
 200   2.0000      -0.822471       -22.3806
 201   2.0000      -0.822333       -22.3768
 202   2.0000      -0.813613       -22.1395
 203   2.0000      -0.813577       -22.1386
 204   2.0000      -0.797124       -21.6908
 205   2.0000      -0.794429       -21.6175
 206   2.0000      -0.792520       -21.5656
 207   2.0000      -0.792470       -21.5642
 208   2.0000      -0.788799       -21.4643
 209   2.0000      -0.788708       -21.4618
 210   2.0000      -0.784311       -21.3422
 211   2.0000      -0.782591       -21.2954
 212   2.0000      -0.777968       -21.1696
 213   2.0000      -0.777902       -21.1678
 214   2.0000      -0.775721       -21.1085
 215   2.0000      -0.775199       -21.0942
 216   2.0000      -0.765745       -20.8370
 217   2.0000      -0.765356       -20.8264
 218   2.0000      -0.765313       -20.8252
 219   2.0000      -0.764697       -20.8085
 220   2.0000      -0.761980       -20.7345
 221   2.0000      -0.761272       -20.7153
 222   2.0000      -0.761204       -20.7134
 223   2.0000      -0.761159       -20.7122
 224   2.0000      -0.760606       -20.6971
 225   2.0000      -0.759274       -20.6609
 226   2.0000      -0.759246       -20.6601
 227   2.0000      -0.758323       -20.6350
 228   2.0000      -0.756311       -20.5803
 229   2.0000      -0.754965       -20.5436
 230   2.0000      -0.751537       -20.4504
 231   2.0000      -0.751489       -20.4491
 232   2.0000      -0.750324       -20.4173
 233   2.0000      -0.750309       -20.4169
 234   2.0000      -0.739957       -20.1352
 235   2.0000      -0.739921       -20.1343
 236   2.0000      -0.735201       -20.0058
 237   2.0000      -0.735148       -20.0044
 238   2.0000      -0.735003       -20.0005
 239   2.0000      -0.734322       -19.9819
 240   2.0000      -0.733958       -19.9720
 241   2.0000      -0.733912       -19.9708
 242   2.0000      -0.733573       -19.9615
 243   2.0000      -0.732444       -19.9308
 244   2.0000      -0.731316       -19.9001
 245   2.0000      -0.731036       -19.8925
 246   2.0000      -0.728651       -19.8276
 247   2.0000      -0.728622       -19.8268
 248   2.0000      -0.719853       -19.5882
 249   2.0000      -0.719118       -19.5682
 250   2.0000      -0.718924       -19.5629
 251   2.0000      -0.718618       -19.5546
 252   2.0000      -0.718112       -19.5408
 253   2.0000      -0.718033       -19.5387
 254   2.0000      -0.701443       -19.0872
 255   2.0000      -0.701388       -19.0857
 256   2.0000      -0.700891       -19.0722
 257   2.0000      -0.700874       -19.0718
 258   2.0000      -0.698873       -19.0173
 259   2.0000      -0.698819       -19.0158
 260   2.0000      -0.692367       -18.8403
 261   2.0000      -0.691870       -18.8267
 262   2.0000      -0.690646       -18.7934
 263   2.0000      -0.688176       -18.7262
 264   2.0000      -0.686189       -18.6722
 265   2.0000      -0.685238       -18.6463
 266   2.0000      -0.685109       -18.6428
 267   2.0000      -0.684488       -18.6259
 268   2.0000      -0.680709       -18.5230
 269   2.0000      -0.676233       -18.4012
 270   2.0000      -0.676002       -18.3949
 271   2.0000      -0.675994       -18.3947
 272   2.0000      -0.667483       -18.1631
 273   2.0000      -0.667443       -18.1621
 274   2.0000      -0.662196       -18.0193
 275   2.0000      -0.662164       -18.0184
 276   2.0000      -0.658668       -17.9233
 277   2.0000      -0.658129       -17.9086
 278   2.0000      -0.652614       -17.7585
 279   2.0000      -0.650479       -17.7004
 280   2.0000      -0.650321       -17.6961
 281   2.0000      -0.646543       -17.5933
 282   2.0000      -0.646487       -17.5918
 283   2.0000      -0.644709       -17.5434
 284   2.0000      -0.644654       -17.5419
 285   2.0000      -0.644174       -17.5289
 286   2.0000      -0.643695       -17.5158
 287   2.0000      -0.643520       -17.5111
 288   2.0000      -0.642020       -17.4703
 289   2.0000      -0.639160       -17.3924
 290   2.0000      -0.636756       -17.3270
 291   2.0000      -0.636632       -17.3236
 292   2.0000      -0.630295       -17.1512
 293   2.0000      -0.630204       -17.1487
 294   2.0000      -0.626432       -17.0461
 295   2.0000      -0.623069       -16.9546
 296   2.0000      -0.622893       -16.9498
 297   2.0000      -0.620442       -16.8831
 298   2.0000      -0.620403       -16.8820
 299   2.0000      -0.620020       -16.8716
 300   2.0000      -0.620011       -16.8713
 301   2.0000      -0.618762       -16.8374
 302   2.0000      -0.614060       -16.7094
 303   2.0000      -0.614022       -16.7084
 304   2.0000      -0.611624       -16.6431
 305   2.0000      -0.604719       -16.4552
 306   2.0000      -0.598970       -16.2988
 307   2.0000      -0.598899       -16.2969
 308   2.0000      -0.592528       -16.1235
 309   2.0000      -0.592271       -16.1165
 310   2.0000      -0.583239       -15.8707
 311   2.0000      -0.579594       -15.7716
 312   2.0000      -0.579501       -15.7690
 313   2.0000      -0.577571       -15.7165
 314   2.0000      -0.571456       -15.5501
 315   2.0000      -0.570498       -15.5240
 316   2.0000      -0.568770       -15.4770
 317   2.0000      -0.568538       -15.4707
 318   2.0000      -0.567627       -15.4459
 319   2.0000      -0.566312       -15.4101
 320   2.0000      -0.566025       -15.4023
 321   2.0000      -0.565974       -15.4009
 322   2.0000      -0.559997       -15.2383
 323   2.0000      -0.559937       -15.2367
 324   2.0000      -0.552003       -15.0208
 325   2.0000      -0.551629       -15.0106
 326   2.0000      -0.551566       -15.0089
 327   2.0000      -0.551163       -14.9979
 328   2.0000      -0.536401       -14.5962
 329   2.0000      -0.535590       -14.5741
 330   2.0000      -0.534968       -14.5572
 331   2.0000      -0.533740       -14.5238
 332   2.0000      -0.502240       -13.6666
 333   2.0000      -0.501891       -13.6572
 334   2.0000      -0.501678       -13.6514
 335   2.0000      -0.500489       -13.6190
 336   0.0000      -0.358303        -9.7499
 337   0.0000      -0.358111        -9.7447
 338   0.0000      -0.356463        -9.6999
 339   0.0000      -0.353868        -9.6292
 340   0.0000      -0.345864        -9.4114

MULLIKEN ATOMIC CHARGES
-----------------------
   0 Pd:    0.401271
   1 Pd:    0.401196
   2 C :    0.007017
   3 C :   -0.050908
   4 C :   -0.012612
   5 C :    0.031370
   6 C :    0.032975
   7 C :    0.022752
   8 C :    0.024899
   9 C :    0.006449
  10 C :    0.117990
  11 N :   -0.317200
  12 C :    0.160748
  13 C :   -0.009297
  14 H :    0.057475
  15 H :    0.080138
  16 H :    0.056965
  17 H :    0.063980
  18 H :    0.079623
  19 H :    0.043066
  20 C :   -0.062962
  21 C :    0.036847
  22 C :   -0.008049
  23 C :    0.021109
  24 C :   -0.025536
  25 C :    0.017527
  26 H :    0.051537
  27 H :    0.042932
  28 H :    0.014700
  29 H :    0.017165
  30 C :   -0.026411
  31 C :    0.075092
  32 C :   -0.022634
  33 C :    0.143162
  34 N :   -0.306288
  35 C :    0.126078
  36 H :    0.075080
  37 H :    0.086323
  38 H :    0.082124
  39 H :    0.066102
  40 C :    0.006917
  41 C :   -0.051132
  42 C :   -0.012368
  43 C :    0.031296
  44 C :    0.033060
  45 C :    0.022823
  46 C :    0.024892
  47 C :    0.006536
  48 C :    0.118062
  49 N :   -0.317262
  50 C :    0.160743
  51 C :   -0.009431
  52 H :    0.057361
  53 H :    0.080120
  54 H :    0.056972
  55 H :    0.063934
  56 H :    0.079694
  57 H :    0.042973
  58 C :   -0.062142
  59 C :    0.017216
  60 C :   -0.025497
  61 C :    0.021100
  62 C :   -0.007795
  63 C :    0.036906
  64 H :    0.016608
  65 H :    0.014672
  66 H :    0.042947
  67 H :    0.051507
  68 C :   -0.026379
  69 C :    0.075024
  70 C :   -0.022561
  71 C :    0.143201
  72 N :   -0.306360
  73 C :    0.126219
  74 H :    0.075024
  75 H :    0.086309
  76 H :    0.082105
  77 H :    0.066156
  78 C :    0.007042
  79 C :   -0.050898
  80 C :   -0.012634
  81 C :    0.031374
  82 C :    0.033017
  83 C :    0.022819
  84 C :    0.024873
  85 C :    0.006477
  86 C :    0.117966
  87 N :   -0.317215
  88 C :    0.160748
  89 C :   -0.009382
  90 H :    0.057477
  91 H :    0.080094
  92 H :    0.056931
  93 H :    0.063961
  94 H :    0.079694
  95 H :    0.043140
  96 C :   -0.063011
  97 C :    0.017508
  98 C :   -0.025545
  99 C :    0.021047
 100 C :   -0.007986
 101 C :    0.036926
 102 H :    0.017222
 103 H :    0.014710
 104 H :    0.042871
 105 H :    0.051468
 106 C :   -0.026393
 107 C :    0.075050
 108 C :   -0.022635
 109 C :    0.143229
 110 N :   -0.306294
 111 C :    0.126070
 112 H :    0.075104
 113 H :    0.086326
 114 H :    0.082112
 115 H :    0.066092
 116 C :    0.006899
 117 C :   -0.051094
 118 C :   -0.012359
 119 C :    0.031297
 120 C :    0.033050
 121 C :    0.022803
 122 C :    0.024837
 123 C :    0.006514
 124 C :    0.118043
 125 N :   -0.317165
 126 C :    0.160698
 127 C :   -0.009416
 128 H :    0.057343
 129 H :    0.080121
 130 H :    0.056989
 131 H :    0.063978
 132 H :    0.079729
 133 H :    0.042919
 134 C :   -0.062061
 135 C :    0.036846
 136 C :   -0.007869
 137 C :    0.021123
 138 C :   -0.025457
 139 C :    0.017214
 140 H :    0.051524
 141 H :    0.042984
 142 H :    0.014608
 143 H :    0.016593
 144 C :   -0.026412
 145 C :    0.075079
 146 C :   -0.022635
 147 C :    0.143287
 148 N :   -0.306277
 149 C :    0.126098
 150 H :    0.075020
 151 H :    0.086337
 152 H :    0.082044
 153 H :    0.066169
Sum of atomic charges:    4.0000000

LOEWDIN ATOMIC CHARGES
----------------------
   0 Pd:   -0.377924
   1 Pd:   -0.377883
   2 C :   -0.008617
   3 C :   -0.028440
   4 C :   -0.028566
   5 C :    0.040752
   6 C :    0.035304
   7 C :    0.014512
   8 C :    0.009171
   9 C :    0.020957
  10 C :    0.036446
  11 N :    0.060903
  12 C :    0.090491
  13 C :   -0.019323
  14 H :    0.059404
  15 H :    0.063329
  16 H :    0.056329
  17 H :    0.063283
  18 H :    0.059238
  19 H :    0.046692
  20 C :   -0.041251
  21 C :    0.021851
  22 C :    0.000221
  23 C :   -0.031485
  24 C :   -0.020213
  25 C :    0.000757
  26 H :    0.054848
  27 H :    0.046714
  28 H :    0.033740
  29 H :    0.039473
  30 C :   -0.010742
  31 C :    0.056884
  32 C :    0.008693
  33 C :    0.074769
  34 N :    0.076542
  35 C :    0.066745
  36 H :    0.061007
  37 H :    0.067923
  38 H :    0.056649
  39 H :    0.053944
  40 C :   -0.008625
  41 C :   -0.028434
  42 C :   -0.028596
  43 C :    0.040789
  44 C :    0.035292
  45 C :    0.014562
  46 C :    0.009183
  47 C :    0.021011
  48 C :    0.036500
  49 N :    0.060895
  50 C :    0.090444
  51 C :   -0.019288
  52 H :    0.059346
  53 H :    0.063323
  54 H :    0.056331
  55 H :    0.063258
  56 H :    0.059266
  57 H :    0.046644
  58 C :   -0.041138
  59 C :    0.000526
  60 C :   -0.020247
  61 C :   -0.031388
  62 C :    0.000358
  63 C :    0.021996
  64 H :    0.039220
  65 H :    0.033719
  66 H :    0.046725
  67 H :    0.054845
  68 C :   -0.010776
  69 C :    0.056909
  70 C :    0.008707
  71 C :    0.074762
  72 N :    0.076555
  73 C :    0.066849
  74 H :    0.060973
  75 H :    0.067915
  76 H :    0.056646
  77 H :    0.053953
  78 C :   -0.008619
  79 C :   -0.028438
  80 C :   -0.028584
  81 C :    0.040772
  82 C :    0.035316
  83 C :    0.014534
  84 C :    0.009174
  85 C :    0.020956
  86 C :    0.036454
  87 N :    0.060916
  88 C :    0.090495
  89 C :   -0.019310
  90 H :    0.059402
  91 H :    0.063304
  92 H :    0.056311
  93 H :    0.063280
  94 H :    0.059256
  95 H :    0.046706
  96 C :   -0.041252
  97 C :    0.000745
  98 C :   -0.020203
  99 C :   -0.031493
 100 C :    0.000235
 101 C :    0.021882
 102 H :    0.039498
 103 H :    0.033736
 104 H :    0.046683
 105 H :    0.054812
 106 C :   -0.010748
 107 C :    0.056910
 108 C :    0.008680
 109 C :    0.074779
 110 N :    0.076546
 111 C :    0.066726
 112 H :    0.061010
 113 H :    0.067926
 114 H :    0.056632
 115 H :    0.053939
 116 C :   -0.008627
 117 C :   -0.028437
 118 C :   -0.028589
 119 C :    0.040799
 120 C :    0.035281
 121 C :    0.014563
 122 C :    0.009166
 123 C :    0.020999
 124 C :    0.036496
 125 N :    0.060916
 126 C :    0.090422
 127 C :   -0.019290
 128 H :    0.059336
 129 H :    0.063324
 130 H :    0.056334
 131 H :    0.063283
 132 H :    0.059265
 133 H :    0.046643
 134 C :   -0.041144
 135 C :    0.021993
 136 C :    0.000364
 137 C :   -0.031432
 138 C :   -0.020223
 139 C :    0.000554
 140 H :    0.054849
 141 H :    0.046740
 142 H :    0.033695
 143 H :    0.039206
 144 C :   -0.010745
 145 C :    0.056907
 146 C :    0.008670
 147 C :    0.074766
 148 N :    0.076545
 149 C :    0.066790
 150 H :    0.060972
 151 H :    0.067933
 152 H :    0.056624
 153 H :    0.053954

  Mayer bond orders larger than 0.100000
B(  0-Pd, 34-N ) :   0.5377 B(  0-Pd, 49-N ) :   0.5472 B(  0-Pd,110-N ) :   0.5377
B(  0-Pd,125-N ) :   0.5472 B(  1-Pd, 11-N ) :   0.5472 B(  1-Pd, 72-N ) :   0.5377
B(  1-Pd, 87-N ) :   0.5472 B(  1-Pd,148-N ) :   0.5376 B(  2-C ,  3-C ) :   2.5975
B(  2-C , 20-C ) :   1.0116 B(  3-C ,  4-C ) :   0.9960 B(  4-C ,  5-C ) :   1.4563
B(  4-C , 13-C ) :   1.2132 B(  5-C ,  6-C ) :   1.2662 B(  5-C , 14-H ) :   0.9926
B(  6-C ,  7-C ) :   1.4530 B(  6-C , 15-H ) :   0.9806 B(  7-C ,  8-C ) :   1.2695
B(  7-C , 16-H ) :   0.9950 B(  8-C ,  9-C ) :   1.2485 B(  8-C , 13-C ) :   1.2188
B(  9-C , 10-C ) :   1.5587 B(  9-C , 17-H ) :   0.9725 B( 10-C , 11-N ) :   1.1685
B( 10-C , 18-H ) :   0.9396 B( 11-N , 12-C ) :   1.4316 B( 12-C , 13-C ) :   1.3250
B( 12-C , 19-H ) :   0.9414 B( 20-C , 21-C ) :   1.3302 B( 20-C , 25-C ) :   1.3323
B( 21-C , 22-C ) :   1.4029 B( 21-C , 26-H ) :   0.9942 B( 22-C , 23-C ) :   1.3593
B( 22-C , 27-H ) :   0.9896 B( 23-C , 24-C ) :   1.3500 B( 23-C , 30-C ) :   1.0065
B( 24-C , 25-C ) :   1.4031 B( 24-C , 28-H ) :   0.9869 B( 25-C , 29-H ) :   0.9941
B( 30-C , 31-C ) :   1.3738 B( 30-C , 35-C ) :   1.4109 B( 31-C , 32-C ) :   1.4102
B( 31-C , 36-H ) :   0.9811 B( 32-C , 33-C ) :   1.4160 B( 32-C , 37-H ) :   0.9725
B( 33-C , 34-N ) :   1.3453 B( 33-C , 38-H ) :   0.9544 B( 34-N , 35-C ) :   1.3000
B( 35-C , 39-H ) :   0.9508 B( 40-C , 41-C ) :   2.5969 B( 40-C , 58-C ) :   1.0120
B( 41-C , 42-C ) :   0.9965 B( 42-C , 43-C ) :   1.4559 B( 42-C , 51-C ) :   1.2130
B( 43-C , 44-C ) :   1.2664 B( 43-C , 52-H ) :   0.9926 B( 44-C , 45-C ) :   1.4529
B( 44-C , 53-H ) :   0.9806 B( 45-C , 46-C ) :   1.2695 B( 45-C , 54-H ) :   0.9950
B( 46-C , 47-C ) :   1.2485 B( 46-C , 51-C ) :   1.2189 B( 47-C , 48-C ) :   1.5586
B( 47-C , 55-H ) :   0.9725 B( 48-C , 49-N ) :   1.1686 B( 48-C , 56-H ) :   0.9396
B( 49-N , 50-C ) :   1.4314 B( 50-C , 51-C ) :   1.3250 B( 50-C , 57-H ) :   0.9415
B( 58-C , 59-C ) :   1.3320 B( 58-C , 63-C ) :   1.3300 B( 59-C , 60-C ) :   1.4032
B( 59-C , 64-H ) :   0.9941 B( 60-C , 61-C ) :   1.3500 B( 60-C , 65-H ) :   0.9869
B( 61-C , 62-C ) :   1.3592 B( 61-C , 68-C ) :   1.0065 B( 62-C , 63-C ) :   1.4031
B( 62-C , 66-H ) :   0.9896 B( 63-C , 67-H ) :   0.9942 B( 68-C , 69-C ) :   1.3738
B( 68-C , 73-C ) :   1.4109 B( 69-C , 70-C ) :   1.4101 B( 69-C , 74-H ) :   0.9811
B( 70-C , 71-C ) :   1.4160 B( 70-C , 75-H ) :   0.9725 B( 71-C , 72-N ) :   1.3452
B( 71-C , 76-H ) :   0.9544 B( 72-N , 73-C ) :   1.3001 B( 73-C , 77-H ) :   0.9508
B( 78-C , 79-C ) :   2.5976 B( 78-C , 96-C ) :   1.0116 B( 79-C , 80-C ) :   0.9959
B( 80-C , 81-C ) :   1.4563 B( 80-C , 89-C ) :   1.2133 B( 81-C , 82-C ) :   1.2662
B( 81-C , 90-H ) :   0.9926 B( 82-C , 83-C ) :   1.4531 B( 82-C , 91-H ) :   0.9807
B( 83-C , 84-C ) :   1.2695 B( 83-C , 92-H ) :   0.9950 B( 84-C , 85-C ) :   1.2485
B( 84-C , 89-C ) :   1.2188 B( 85-C , 86-C ) :   1.5587 B( 85-C , 93-H ) :   0.9725
B( 86-C , 87-N ) :   1.1684 B( 86-C , 94-H ) :   0.9396 B( 87-N , 88-C ) :   1.4317
B( 88-C , 89-C ) :   1.3248 B( 88-C , 95-H ) :   0.9414 B( 96-C , 97-C ) :   1.3323
B( 96-C ,101-C ) :   1.3302 B( 97-C , 98-C ) :   1.4031 B( 97-C ,102-H ) :   0.9941
B( 98-C , 99-C ) :   1.3499 B( 98-C ,103-H ) :   0.9869 B( 99-C ,100-C ) :   1.3593
B( 99-C ,106-C ) :   1.0065 B(100-C ,101-C ) :   1.4029 B(100-C ,104-H ) :   0.9896
B(101-C ,105-H ) :   0.9942 B(106-C ,107-C ) :   1.3738 B(106-C ,111-C ) :   1.4110
B(107-C ,108-C ) :   1.4101 B(107-C ,112-H ) :   0.9811 B(108-C ,109-C ) :   1.4160
B(108-C ,113-H ) :   0.9725 B(109-C ,110-N ) :   1.3452 B(109-C ,114-H ) :   0.9544
B(110-N ,111-C ) :   1.3001 B(111-C ,115-H ) :   0.9508 B(116-C ,117-C ) :   2.5972
B(116-C ,134-C ) :   1.0119 B(117-C ,118-C ) :   0.9964 B(118-C ,119-C ) :   1.4559
B(118-C ,127-C ) :   1.2130 B(119-C ,120-C ) :   1.2663 B(119-C ,128-H ) :   0.9927
B(120-C ,121-C ) :   1.4530 B(120-C ,129-H ) :   0.9806 B(121-C ,122-C ) :   1.2694
B(121-C ,130-H ) :   0.9950 B(122-C ,123-C ) :   1.2485 B(122-C ,127-C ) :   1.2189
B(123-C ,124-C ) :   1.5586 B(123-C ,131-H ) :   0.9725 B(124-C ,125-N ) :   1.1686
B(124-C ,132-H ) :   0.9396 B(125-N ,126-C ) :   1.4316 B(126-C ,127-C ) :   1.3249
B(126-C ,133-H ) :   0.9415 B(134-C ,135-C ) :   1.3301 B(134-C ,139-C ) :   1.3320
B(135-C ,136-C ) :   1.4031 B(135-C ,140-H ) :   0.9942 B(136-C ,137-C ) :   1.3593
B(136-C ,141-H ) :   0.9896 B(137-C ,138-C ) :   1.3500 B(137-C ,144-C ) :   1.0065
B(138-C ,139-C ) :   1.4032 B(138-C ,142-H ) :   0.9869 B(139-C ,143-H ) :   0.9941
B(144-C ,145-C ) :   1.3738 B(144-C ,149-C ) :   1.4109 B(145-C ,146-C ) :   1.4101
B(145-C ,150-H ) :   0.9811 B(146-C ,147-C ) :   1.4161 B(146-C ,151-H ) :   0.9725
B(147-C ,148-N ) :   1.3451 B(147-C ,152-H ) :   0.9544 B(148-N ,149-C ) :   1.3002
B(149-C ,153-H ) :   0.9508

Dispersion correction           -0.253211748
FINAL SINGLE POINT ENERGY     -4072.785552733587

DIPOLE MOMENT
-------------
                                X             Y             Z
Electronic contribution:      0.00592       0.03522       0.06834
Nuclear contribution   :     -0.00581      -0.03983      -0.06884
                        -----------------------------------------
Total Dipole Moment    :      0.00010      -0.00461      -0.00050
                        -----------------------------------------
Magnitude (a.u.)       :      0.00464
Magnitude (Debye)      :      0.01179

Rotational constants in cm-1:     0.000707     0.000355     0.000354
Rotational constants in MHz :    21.202377    10.655696    10.627341

                             ****ORCA TERMINATED NORMALLY****
TOTAL RUN TIME: 0 days 0 hours 14 minutes 2 seconds 813 msec
