                         Program Version 4.2.1 -  RELEASE  -
|  1> ! DFT SP B97-3c TightSCF printbasis  Grid6 NOFINALGRID SlowConv
|  2>
|  3> %base "_s_4b3_a_B97-3c"
|  4> %maxcore 3000
|  5> %scf
|  6>    MaxIter 2000
|  7> end
|  8> %pal
|  9>    nprocs 32
| 10> end
| 11>
| 12> * xyzfile 4 1 s_4b3_a.xyz
| 13>
| 14>                          ****END OF INPUT****

CARTESIAN COORDINATES (ANGSTROEM)
---------------------------------
  Pd    -0.119600    7.047600   -0.067900
  Pd     0.028400   -6.744600   -0.001000
  C      4.741200    2.952200    0.055800
  C      4.807400    4.129100    0.331400
  C      5.077500    5.462300    0.691200
  C      6.386500    5.797400    0.999400
  C      6.735500    7.095900    1.377700
  C      5.783400    8.081200    1.458200
  C      4.442800    7.786800    1.154300
  C      3.423500    8.762600    1.218800
  C      2.141900    8.425900    0.901100
  N      1.793300    7.168500    0.521500
  C      2.715400    6.226900    0.458900
  C      4.067400    6.467800    0.762200
  H      7.150100    5.037000    0.942900
  H      7.766100    7.317700    1.608500
  H      6.048200    9.084600    1.751900
  H      3.671100    9.769000    1.516300
  H      1.341400    9.163000    0.948000
  H      2.389000    5.236800    0.154800
  C      4.675800    1.569200   -0.200600
  C      3.568000    0.992600   -0.831200
  C      3.507900   -0.372300   -1.004600
  C      4.553900   -1.188400   -0.554800
  C      5.682900   -0.608700    0.033400
  C      5.741100    0.756400    0.209400
  H      2.761500    1.622100   -1.172000
  H      2.653400   -0.825400   -1.481600
  H      6.496800   -1.235700    0.364400
  H      6.603000    1.206000    0.678500
  C      4.412700   -2.587100   -0.636300
  C      4.228000   -3.782600   -0.651300
  C      3.830400   -5.132900   -0.603800
  C      4.705400   -6.224000   -0.682400
  C      4.183900   -7.503300   -0.593500
  C      2.817800   -7.680900   -0.419700
  N      1.987800   -6.638600   -0.344500
  C      2.469000   -5.400600   -0.439600
  H      5.764600   -6.062500   -0.809300
  H      4.831200   -8.363400   -0.652900
  H      2.370700   -8.666100   -0.337200
  H      1.758800   -4.575100   -0.378900
  C     -0.198400    2.911000    4.765900
  C     -0.494300    4.082600    4.836800
  C     -0.878300    5.407600    5.114300
  C     -1.201700    5.726800    6.423500
  C     -1.603400    7.016000    6.780500
  C     -1.691900    8.007900    5.836000
  C     -1.373300    7.729700    4.495400
  C     -1.445200    8.713000    3.484000
  C     -1.113400    8.392000    2.201900
  N     -0.712600    7.143400    1.845300
  C     -0.641600    6.195300    2.760000
  C     -0.957900    6.420200    4.111800
  H     -1.138800    4.961000    7.181300
  H     -1.845500    7.225400    7.811100
  H     -2.003300    9.004400    6.106800
  H     -1.759700    9.712700    3.737900
  H     -1.165800    9.135500    1.407600
  H     -0.320000    5.212700    2.427700
  C      0.082500    1.533000    4.694500
  C     -0.315300    0.708200    5.755200
  C     -0.114800   -0.653300    5.691300
  C      0.486000   -1.217200    4.561000
  C      0.923600   -0.388400    3.519700
  C      0.725700    0.972800    3.585500
  H     -0.794100    1.145400    6.618200
  H     -0.436300   -1.289800    6.501600
  H      1.410700   -0.829100    2.664500
  H      1.057000    1.612100    2.782800
  C      0.592400   -2.613500    4.412900
  C      0.628500   -3.807500    4.221300
  C      0.604200   -5.155400    3.813700
  C      0.702000   -6.251900    4.679900
  C      0.635000   -7.528300    4.148100
  C      0.463800   -7.697900    2.780500
  N      0.370400   -6.650500    1.958900
  C      0.444400   -5.415000    2.450200
  H      0.826400   -6.096800    5.740300
  H      0.709400   -8.392400    4.788400
  H      0.398100   -8.680900    2.325700
  H      0.369300   -4.584800    1.746700
  C     -4.882700    2.828300   -0.223800
  C     -4.969100    3.999800   -0.516000
  C     -5.264800    5.321900   -0.896200
  C     -6.574100    5.618200   -1.240400
  C     -6.949400    6.903800   -1.637100
  C     -6.023400    7.915000   -1.699500
  C     -4.683300    7.660000   -1.360100
  C     -3.690500    8.663600   -1.405600
  C     -2.407700    8.364100   -1.057100
  N     -2.032700    7.118300   -0.664500
  C     -2.929900    6.152200   -0.616200
  C     -4.281000    6.354300   -0.950500
  H     -7.317600    4.837200   -1.197300
  H     -7.979500    7.095100   -1.895800
  H     -6.308500    8.908900   -2.006200
  H     -3.959000    9.661500   -1.713700
  H     -1.627500    9.123500   -1.088900
  H     -2.583200    5.172900   -0.299600
  C     -4.794200    1.450400    0.053200
  C     -3.700200    0.908400    0.736300
  C     -3.616500   -0.452300    0.932200
  C     -4.624900   -1.298300    0.452500
  C     -5.741600   -0.753100   -0.189500
  C     -5.823300    0.607700   -0.387800
  H     -2.923000    1.561000    1.100700
  H     -2.772700   -0.879000    1.450700
  H     -6.526900   -1.403300   -0.543900
  H     -6.675400    1.030800   -0.897800
  C     -4.455300   -2.692400    0.557200
  C     -4.245400   -3.883300    0.591500
  C     -3.815000   -5.224200    0.564600
  C     -4.663800   -6.335500    0.645300
  C     -4.110100   -7.602400    0.575000
  C     -2.738300   -7.748000    0.416100
  N     -1.933300   -6.686500    0.339000
  C     -2.445800   -5.459800    0.417800
  H     -5.728000   -6.199000    0.759300
  H     -4.736700   -8.477600    0.636700
  H     -2.266600   -8.722800    0.347400
  H     -1.755400   -4.617600    0.357200
  C      0.104000    2.866900   -4.857900
  C      0.377700    4.043300   -4.937600
  C      0.736300    5.373400   -5.224600
  C      1.076000    5.684100   -6.531700
  C      1.451600    6.978600   -6.898100
  C      1.497100    7.984400   -5.965200
  C      1.161900    7.714800   -4.627000
  C      1.190900    8.712200   -3.627300
  C      0.847400    8.398100   -2.346500
  N      0.475300    7.143400   -1.980400
  C      0.442800    6.182900   -2.884200
  C      0.773600    6.399800   -4.233900
  H      1.045900    4.907600   -7.280600
  H      1.707200    7.181200   -7.926800
  H      1.787500    8.985200   -6.243500
  H      1.482600    9.716700   -3.888800
  H      0.866700    9.152200   -1.560800
  H      0.142400    5.196200   -2.544200
  C     -0.150900    1.484200   -4.777400
  C     -0.844400    0.927600   -3.697400
  C     -1.018900   -0.436500   -3.620800
  C     -0.507000   -1.271300   -4.622500
  C      0.145700   -0.712200   -5.726100
  C      0.322600    0.652000   -5.800600
  H     -1.233900    1.571800   -2.925200
  H     -1.545400   -0.874200   -2.787600
  H      0.525200   -1.354100   -6.506500
  H      0.840700    1.086100   -6.642200
  C     -0.590200   -2.667600   -4.459400
  C     -0.606000   -3.860000   -4.255600
  C     -0.558300   -5.203100   -3.834000
  C     -0.618300   -6.309500   -4.691000
  C     -0.527900   -7.579100   -4.146400
  C     -0.369600   -7.731900   -2.775400
  N     -0.312500   -6.675100   -1.962500
  C     -0.411100   -5.446200   -2.466100
  H     -0.731900   -6.167000   -5.754400
  H     -0.573400   -8.450500   -4.779400
  H     -0.285300   -8.708700   -2.310500
  H     -0.366800   -4.608200   -1.769400

 Total Charge           Charge          ....    4
 Multiplicity           Mult            ....    1
 Number of Electrons    NEL             ....  720
 Basis Dimension        Dim             .... 2210

ORBITAL ENERGIES
----------------

  NO   OCC          E(Eh)            E(eV)
   0   2.0000     -14.338191      -390.1620
   1   2.0000     -14.338171      -390.1615
   2   2.0000     -14.338156      -390.1610
   3   2.0000     -14.338137      -390.1606
   4   2.0000     -14.321621      -389.7111
   5   2.0000     -14.321581      -389.7100
   6   2.0000     -14.321545      -389.7090
   7   2.0000     -14.321518      -389.7083
   8   2.0000     -10.232962      -278.4530
   9   2.0000     -10.232894      -278.4512
  10   2.0000     -10.232864      -278.4504
  11   2.0000     -10.232811      -278.4489
  12   2.0000     -10.226404      -278.2746
  13   2.0000     -10.226309      -278.2720
  14   2.0000     -10.226293      -278.2716
  15   2.0000     -10.226223      -278.2697
  16   2.0000     -10.221955      -278.1535
  17   2.0000     -10.221911      -278.1523
  18   2.0000     -10.221886      -278.1516
  19   2.0000     -10.221828      -278.1501
  20   2.0000     -10.215287      -277.9721
  21   2.0000     -10.215226      -277.9704
  22   2.0000     -10.215173      -277.9690
  23   2.0000     -10.215113      -277.9674
  24   2.0000     -10.208997      -277.8009
  25   2.0000     -10.208937      -277.7993
  26   2.0000     -10.208932      -277.7992
  27   2.0000     -10.208898      -277.7982
  28   2.0000     -10.195787      -277.4415
  29   2.0000     -10.195714      -277.4395
  30   2.0000     -10.195661      -277.4380
  31   2.0000     -10.195585      -277.4360
  32   2.0000     -10.189884      -277.2808
  33   2.0000     -10.189817      -277.2790
  34   2.0000     -10.189782      -277.2781
  35   2.0000     -10.189716      -277.2763
  36   2.0000     -10.189005      -277.2569
  37   2.0000     -10.188996      -277.2567
  38   2.0000     -10.188931      -277.2549
  39   2.0000     -10.188908      -277.2543
  40   2.0000     -10.188680      -277.2481
  41   2.0000     -10.188674      -277.2479
  42   2.0000     -10.188614      -277.2463
  43   2.0000     -10.188583      -277.2454
  44   2.0000     -10.184451      -277.1330
  45   2.0000     -10.184429      -277.1324
  46   2.0000     -10.184348      -277.1302
  47   2.0000     -10.184327      -277.1296
  48   2.0000     -10.178706      -276.9767
  49   2.0000     -10.178628      -276.9745
  50   2.0000     -10.178621      -276.9744
  51   2.0000     -10.178611      -276.9741
  52   2.0000     -10.178367      -276.9675
  53   2.0000     -10.178284      -276.9652
  54   2.0000     -10.178274      -276.9649
  55   2.0000     -10.178265      -276.9647
  56   2.0000     -10.177302      -276.9385
  57   2.0000     -10.177273      -276.9377
  58   2.0000     -10.177213      -276.9360
  59   2.0000     -10.177192      -276.9355
  60   2.0000     -10.167382      -276.6685
  61   2.0000     -10.167375      -276.6684
  62   2.0000     -10.167287      -276.6659
  63   2.0000     -10.167266      -276.6654
  64   2.0000     -10.161357      -276.5046
  65   2.0000     -10.161333      -276.5039
  66   2.0000     -10.161265      -276.5021
  67   2.0000     -10.161238      -276.5013
  68   2.0000     -10.160889      -276.4918
  69   2.0000     -10.160790      -276.4892
  70   2.0000     -10.160709      -276.4870
  71   2.0000     -10.160704      -276.4868
  72   2.0000     -10.160690      -276.4864
  73   2.0000     -10.160668      -276.4858
  74   2.0000     -10.160610      -276.4843
  75   2.0000     -10.160592      -276.4838
  76   2.0000     -10.159346      -276.4498
  77   2.0000     -10.159253      -276.4473
  78   2.0000     -10.159184      -276.4454
  79   2.0000     -10.159163      -276.4449
  80   2.0000     -10.157322      -276.3948
  81   2.0000     -10.157313      -276.3945
  82   2.0000     -10.157230      -276.3923
  83   2.0000     -10.157207      -276.3916
  84   2.0000     -10.156825      -276.3813
  85   2.0000     -10.156822      -276.3812
  86   2.0000     -10.156735      -276.3788
  87   2.0000     -10.156707      -276.3780
  88   2.0000     -10.155234      -276.3380
  89   2.0000     -10.155206      -276.3372
  90   2.0000     -10.155166      -276.3361
  91   2.0000     -10.155137      -276.3353
  92   2.0000     -10.154430      -276.3161
  93   2.0000     -10.154369      -276.3144
  94   2.0000     -10.154343      -276.3137
  95   2.0000     -10.154316      -276.3130
  96   2.0000     -10.153671      -276.2954
  97   2.0000     -10.153661      -276.2952
  98   2.0000     -10.153638      -276.2945
  99   2.0000     -10.153591      -276.2933
 100   2.0000     -10.151813      -276.2449
 101   2.0000     -10.151726      -276.2425
 102   2.0000     -10.151708      -276.2420
 103   2.0000     -10.151697      -276.2417
 104   2.0000      -3.647166       -99.2444
 105   2.0000      -3.632487       -98.8450
 106   2.0000      -2.377753       -64.7019
 107   2.0000      -2.377743       -64.7017
 108   2.0000      -2.362821       -64.2956
 109   2.0000      -2.362791       -64.2948
 110   2.0000      -2.335272       -63.5460
 111   2.0000      -2.320608       -63.1469
 112   2.0000      -1.202269       -32.7154
 113   2.0000      -1.195391       -32.5283
 114   2.0000      -1.195385       -32.5281
 115   2.0000      -1.194755       -32.5109
 116   2.0000      -1.184258       -32.2253
 117   2.0000      -1.177604       -32.0442
 118   2.0000      -1.177578       -32.0435
 119   2.0000      -1.176703       -32.0197
 120   2.0000      -1.069035       -29.0899
 121   2.0000      -1.068122       -29.0651
 122   2.0000      -1.068057       -29.0633
 123   2.0000      -1.068024       -29.0624
 124   2.0000      -1.061256       -28.8782
 125   2.0000      -1.061166       -28.8758
 126   2.0000      -1.061129       -28.8748
 127   2.0000      -1.061116       -28.8744
 128   2.0000      -1.047796       -28.5120
 129   2.0000      -1.045942       -28.4615
 130   2.0000      -1.045517       -28.4500
 131   2.0000      -1.045504       -28.4496
 132   2.0000      -1.012797       -27.5596
 133   2.0000      -1.011616       -27.5275
 134   2.0000      -1.011605       -27.5272
 135   2.0000      -1.011218       -27.5166
 136   2.0000      -1.011197       -27.5161
 137   2.0000      -1.009940       -27.4819
 138   2.0000      -1.009933       -27.4817
 139   2.0000      -1.008777       -27.4502
 140   2.0000      -0.995266       -27.0826
 141   2.0000      -0.994981       -27.0748
 142   2.0000      -0.994950       -27.0740
 143   2.0000      -0.994587       -27.0641
 144   2.0000      -0.981608       -26.7109
 145   2.0000      -0.979379       -26.6503
 146   2.0000      -0.979364       -26.6499
 147   2.0000      -0.979182       -26.6449
 148   2.0000      -0.969222       -26.3739
 149   2.0000      -0.968461       -26.3532
 150   2.0000      -0.968442       -26.3526
 151   2.0000      -0.967490       -26.3267
 152   2.0000      -0.947784       -25.7905
 153   2.0000      -0.947652       -25.7869
 154   2.0000      -0.947612       -25.7858
 155   2.0000      -0.947508       -25.7830
 156   2.0000      -0.946453       -25.7543
 157   2.0000      -0.945995       -25.7418
 158   2.0000      -0.945964       -25.7410
 159   2.0000      -0.945244       -25.7214
 160   2.0000      -0.918854       -25.0033
 161   2.0000      -0.918385       -24.9905
 162   2.0000      -0.918365       -24.9900
 163   2.0000      -0.917685       -24.9715
 164   2.0000      -0.889090       -24.1934
 165   2.0000      -0.887834       -24.1592
 166   2.0000      -0.887822       -24.1589
 167   2.0000      -0.885419       -24.0935
 168   2.0000      -0.878619       -23.9084
 169   2.0000      -0.875452       -23.8223
 170   2.0000      -0.875449       -23.8222
 171   2.0000      -0.874598       -23.7990
 172   2.0000      -0.874238       -23.7892
 173   2.0000      -0.871193       -23.7064
 174   2.0000      -0.870105       -23.6768
 175   2.0000      -0.870098       -23.6766
 176   2.0000      -0.858019       -23.3479
 177   2.0000      -0.855933       -23.2911
 178   2.0000      -0.855921       -23.2908
 179   2.0000      -0.855561       -23.2810
 180   2.0000      -0.845316       -23.0022
 181   2.0000      -0.844119       -22.9696
 182   2.0000      -0.844071       -22.9683
 183   2.0000      -0.844025       -22.9671
 184   2.0000      -0.825786       -22.4708
 185   2.0000      -0.824605       -22.4386
 186   2.0000      -0.824570       -22.4377
 187   2.0000      -0.824515       -22.4362
 188   2.0000      -0.817690       -22.2505
 189   2.0000      -0.817602       -22.2481
 190   2.0000      -0.817570       -22.2472
 191   2.0000      -0.817528       -22.2461
 192   2.0000      -0.803186       -21.8558
 193   2.0000      -0.795133       -21.6367
 194   2.0000      -0.788037       -21.4436
 195   2.0000      -0.788028       -21.4433
 196   2.0000      -0.775956       -21.1148
 197   2.0000      -0.769502       -20.9392
 198   2.0000      -0.768700       -20.9174
 199   2.0000      -0.768680       -20.9168
 200   2.0000      -0.757630       -20.6162
 201   2.0000      -0.755433       -20.5564
 202   2.0000      -0.755405       -20.5556
 203   2.0000      -0.755036       -20.5456
 204   2.0000      -0.754267       -20.5246
 205   2.0000      -0.752231       -20.4692
 206   2.0000      -0.752220       -20.4689
 207   2.0000      -0.750960       -20.4347
 208   2.0000      -0.747698       -20.3459
 209   2.0000      -0.747013       -20.3272
 210   2.0000      -0.746994       -20.3268
 211   2.0000      -0.745739       -20.2926
 212   2.0000      -0.744473       -20.2581
 213   2.0000      -0.743308       -20.2264
 214   2.0000      -0.739441       -20.1212
 215   2.0000      -0.738408       -20.0931
 216   2.0000      -0.738395       -20.0927
 217   2.0000      -0.736531       -20.0420
 218   2.0000      -0.731857       -19.9148
 219   2.0000      -0.731850       -19.9147
 220   2.0000      -0.721837       -19.6422
 221   2.0000      -0.719807       -19.5870
 222   2.0000      -0.719775       -19.5861
 223   2.0000      -0.719595       -19.5812
 224   2.0000      -0.709501       -19.3065
 225   2.0000      -0.706195       -19.2165
 226   2.0000      -0.702988       -19.1293
 227   2.0000      -0.699949       -19.0466
 228   2.0000      -0.698959       -19.0197
 229   2.0000      -0.698845       -19.0166
 230   2.0000      -0.698823       -19.0159
 231   2.0000      -0.690917       -18.8008
 232   2.0000      -0.690395       -18.7866
 233   2.0000      -0.686913       -18.6918
 234   2.0000      -0.686375       -18.6772
 235   2.0000      -0.686371       -18.6771
 236   2.0000      -0.685978       -18.6664
 237   2.0000      -0.684039       -18.6137
 238   2.0000      -0.684022       -18.6132
 239   2.0000      -0.682292       -18.5661
 240   2.0000      -0.682170       -18.5628
 241   2.0000      -0.682143       -18.5621
 242   2.0000      -0.682007       -18.5584
 243   2.0000      -0.680492       -18.5171
 244   2.0000      -0.680424       -18.5153
 245   2.0000      -0.680387       -18.5143
 246   2.0000      -0.674742       -18.3607
 247   2.0000      -0.674671       -18.3587
 248   2.0000      -0.668775       -18.1983
 249   2.0000      -0.668724       -18.1969
 250   2.0000      -0.661690       -18.0055
 251   2.0000      -0.661168       -17.9913
 252   2.0000      -0.661120       -17.9900
 253   2.0000      -0.659326       -17.9412
 254   2.0000      -0.658955       -17.9311
 255   2.0000      -0.658949       -17.9309
 256   2.0000      -0.658334       -17.9142
 257   2.0000      -0.656461       -17.8632
 258   2.0000      -0.656436       -17.8625
 259   2.0000      -0.652546       -17.7567
 260   2.0000      -0.652215       -17.7477
 261   2.0000      -0.652158       -17.7461
 262   2.0000      -0.652032       -17.7427
 263   2.0000      -0.651320       -17.7233
 264   2.0000      -0.642013       -17.4701
 265   2.0000      -0.640581       -17.4311
 266   2.0000      -0.640425       -17.4268
 267   2.0000      -0.640369       -17.4253
 268   2.0000      -0.640272       -17.4227
 269   2.0000      -0.638832       -17.3835
 270   2.0000      -0.632672       -17.2159
 271   2.0000      -0.630388       -17.1537
 272   2.0000      -0.630380       -17.1535
 273   2.0000      -0.629043       -17.1171
 274   2.0000      -0.626564       -17.0497
 275   2.0000      -0.626551       -17.0493
 276   2.0000      -0.619235       -16.8502
 277   2.0000      -0.618789       -16.8381
 278   2.0000      -0.618146       -16.8206
 279   2.0000      -0.617295       -16.7974
 280   2.0000      -0.617191       -16.7946
 281   2.0000      -0.613093       -16.6831
 282   2.0000      -0.613040       -16.6817
 283   2.0000      -0.612510       -16.6673
 284   2.0000      -0.611696       -16.6451
 285   2.0000      -0.605609       -16.4795
 286   2.0000      -0.605570       -16.4784
 287   2.0000      -0.603515       -16.4225
 288   2.0000      -0.597519       -16.2593
 289   2.0000      -0.596215       -16.2238
 290   2.0000      -0.596194       -16.2233
 291   2.0000      -0.595125       -16.1942
 292   2.0000      -0.594891       -16.1878
 293   2.0000      -0.594543       -16.1783
 294   2.0000      -0.594518       -16.1776
 295   2.0000      -0.588153       -16.0044
 296   2.0000      -0.588136       -16.0040
 297   2.0000      -0.581084       -15.8121
 298   2.0000      -0.580385       -15.7931
 299   2.0000      -0.580270       -15.7900
 300   2.0000      -0.577287       -15.7088
 301   2.0000      -0.577254       -15.7079
 302   2.0000      -0.576648       -15.6914
 303   2.0000      -0.576369       -15.6838
 304   2.0000      -0.575573       -15.6621
 305   2.0000      -0.575551       -15.6615
 306   2.0000      -0.574188       -15.6244
 307   2.0000      -0.573238       -15.5986
 308   2.0000      -0.572352       -15.5745
 309   2.0000      -0.572317       -15.5735
 310   2.0000      -0.570129       -15.5140
 311   2.0000      -0.562282       -15.3005
 312   2.0000      -0.562272       -15.3002
 313   2.0000      -0.560036       -15.2394
 314   2.0000      -0.559690       -15.2299
 315   2.0000      -0.556177       -15.1343
 316   2.0000      -0.556166       -15.1340
 317   2.0000      -0.548610       -14.9284
 318   2.0000      -0.548594       -14.9280
 319   2.0000      -0.546066       -14.8592
 320   2.0000      -0.545147       -14.8342
 321   2.0000      -0.544729       -14.8228
 322   2.0000      -0.544724       -14.8227
 323   2.0000      -0.538610       -14.6563
 324   2.0000      -0.538386       -14.6502
 325   2.0000      -0.538351       -14.6493
 326   2.0000      -0.536899       -14.6098
 327   2.0000      -0.529905       -14.4195
 328   2.0000      -0.529873       -14.4186
 329   2.0000      -0.527753       -14.3609
 330   2.0000      -0.514676       -14.0051
 331   2.0000      -0.513419       -13.9708
 332   2.0000      -0.512318       -13.9409
 333   2.0000      -0.512307       -13.9406
 334   2.0000      -0.509497       -13.8641
 335   2.0000      -0.509488       -13.8639
 336   2.0000      -0.508345       -13.8328
 337   2.0000      -0.507899       -13.8206
 338   2.0000      -0.504920       -13.7396
 339   2.0000      -0.502700       -13.6792
 340   2.0000      -0.502620       -13.6770
 341   2.0000      -0.501969       -13.6593
 342   2.0000      -0.500648       -13.6233
 343   2.0000      -0.500202       -13.6112
 344   2.0000      -0.499900       -13.6030
 345   2.0000      -0.499407       -13.5895
 346   2.0000      -0.499355       -13.5881
 347   2.0000      -0.493255       -13.4221
 348   2.0000      -0.490487       -13.3468
 349   2.0000      -0.490370       -13.3436
 350   2.0000      -0.490314       -13.3421
 351   2.0000      -0.490183       -13.3386
 352   2.0000      -0.479137       -13.0380
 353   2.0000      -0.478119       -13.0103
 354   2.0000      -0.478056       -13.0086
 355   2.0000      -0.476471       -12.9654
 356   2.0000      -0.446506       -12.1500
 357   2.0000      -0.446170       -12.1409
 358   2.0000      -0.446157       -12.1405
 359   2.0000      -0.445275       -12.1166
 360   0.0000      -0.375473       -10.2171
 361   0.0000      -0.368579       -10.0296
 362   0.0000      -0.367788       -10.0080
 363   0.0000      -0.367719       -10.0061
 364   0.0000      -0.365866        -9.9557

MULLIKEN ATOMIC CHARGES
-----------------------
   0 Pd:    0.003136
   1 Pd:   -0.020431
   2 C :    0.030194
   3 C :    0.017507
   4 C :   -0.150446
   5 C :   -0.094422
   6 C :   -0.195083
   7 C :   -0.207608
   8 C :   -0.061183
   9 C :   -0.107000
  10 C :   -0.182181
  11 N :   -0.067278
  12 C :   -0.109381
  13 C :    0.367715
  14 H :    0.243953
  15 H :    0.226073
  16 H :    0.244157
  17 H :    0.251348
  18 H :    0.172510
  19 H :    0.180872
  20 C :   -0.161359
  21 C :   -0.156061
  22 C :   -0.138893
  23 C :   -0.163728
  24 C :   -0.117678
  25 C :   -0.140273
  26 H :    0.188889
  27 H :    0.196103
  28 H :    0.236580
  29 H :    0.229103
  30 C :    0.073492
  31 C :    0.007377
  32 C :    0.068426
  33 C :   -0.180989
  34 C :   -0.026898
  35 C :   -0.127508
  36 N :   -0.057069
  37 C :   -0.176182
  38 H :    0.255707
  39 H :    0.250005
  40 H :    0.209080
  41 H :    0.176094
  42 C :    0.030472
  43 C :    0.016597
  44 C :   -0.149726
  45 C :   -0.094392
  46 C :   -0.195109
  47 C :   -0.207283
  48 C :   -0.062449
  49 C :   -0.106020
  50 C :   -0.183075
  51 N :   -0.065467
  52 C :   -0.110771
  53 C :    0.368387
  54 H :    0.243816
  55 H :    0.226134
  56 H :    0.244101
  57 H :    0.251333
  58 H :    0.171731
  59 H :    0.181097
  60 C :   -0.160871
  61 C :   -0.140344
  62 C :   -0.117482
  63 C :   -0.163638
  64 C :   -0.139019
  65 C :   -0.155939
  66 H :    0.229024
  67 H :    0.236653
  68 H :    0.196041
  69 H :    0.188844
  70 C :    0.073273
  71 C :    0.008237
  72 C :    0.069215
  73 C :   -0.180908
  74 C :   -0.026929
  75 C :   -0.127770
  76 N :   -0.056123
  77 C :   -0.177505
  78 H :    0.255780
  79 H :    0.250042
  80 H :    0.208998
  81 H :    0.175528
  82 C :    0.030596
  83 C :    0.018640
  84 C :   -0.152451
  85 C :   -0.094359
  86 C :   -0.195075
  87 C :   -0.207678
  88 C :   -0.063787
  89 C :   -0.105317
  90 C :   -0.183219
  91 N :   -0.066188
  92 C :   -0.114033
  93 C :    0.373654
  94 H :    0.243748
  95 H :    0.226097
  96 H :    0.244112
  97 H :    0.251336
  98 H :    0.172451
  99 H :    0.181562
 100 C :   -0.164001
 101 C :   -0.154886
 102 C :   -0.138978
 103 C :   -0.163587
 104 C :   -0.118840
 105 C :   -0.140270
 106 H :    0.190018
 107 H :    0.197729
 108 H :    0.236472
 109 H :    0.228976
 110 C :    0.076228
 111 C :    0.005957
 112 C :    0.066828
 113 C :   -0.179850
 114 C :   -0.027282
 115 C :   -0.127567
 116 N :   -0.055861
 117 C :   -0.177698
 118 H :    0.255827
 119 H :    0.250096
 120 H :    0.208986
 121 H :    0.176030
 122 C :    0.030135
 123 C :    0.019252
 124 C :   -0.154656
 125 C :   -0.093582
 126 C :   -0.195349
 127 C :   -0.207884
 128 C :   -0.063419
 129 C :   -0.105364
 130 C :   -0.182895
 131 N :   -0.067439
 132 C :   -0.114327
 133 C :    0.375626
 134 H :    0.243927
 135 H :    0.226086
 136 H :    0.244048
 137 H :    0.251446
 138 H :    0.173526
 139 H :    0.181690
 140 C :   -0.165404
 141 C :   -0.154732
 142 C :   -0.138188
 143 C :   -0.166329
 144 C :   -0.118571
 145 C :   -0.140394
 146 H :    0.190696
 147 H :    0.198656
 148 H :    0.236356
 149 H :    0.229047
 150 C :    0.074925
 151 C :    0.007246
 152 C :    0.065591
 153 C :   -0.179651
 154 C :   -0.027335
 155 C :   -0.127315
 156 N :   -0.056890
 157 C :   -0.175597
 158 H :    0.255887
 159 H :    0.250121
 160 H :    0.209016
 161 H :    0.176478
Sum of atomic charges:    4.0000000

LOEWDIN ATOMIC CHARGES
----------------------
   0 Pd:   -0.067667
   1 Pd:   -0.056712
   2 C :   -0.007891
   3 C :   -0.032751
   4 C :   -0.038055
   5 C :   -0.090844
   6 C :   -0.097701
   7 C :   -0.114917
   8 C :   -0.015554
   9 C :   -0.107761
  10 C :   -0.062815
  11 N :   -0.083889
  12 C :    0.000421
  13 C :   -0.030448
  14 H :    0.194713
  15 H :    0.195126
  16 H :    0.192889
  17 H :    0.199818
  18 H :    0.184975
  19 H :    0.190273
  20 C :   -0.054119
  21 C :   -0.130989
  22 C :   -0.126827
  23 C :   -0.065946
  24 C :   -0.104875
  25 C :   -0.107523
  26 H :    0.175100
  27 H :    0.176483
  28 H :    0.192377
  29 H :    0.191346
  30 C :    0.024169
  31 C :   -0.050029
  32 C :   -0.041356
  33 C :   -0.065858
  34 C :   -0.116343
  35 C :   -0.031905
  36 N :   -0.074652
  37 C :   -0.020556
  38 H :    0.205259
  39 H :    0.204383
  40 H :    0.191482
  41 H :    0.185845
  42 C :   -0.007904
  43 C :   -0.032832
  44 C :   -0.038018
  45 C :   -0.090804
  46 C :   -0.097685
  47 C :   -0.114859
  48 C :   -0.015579
  49 C :   -0.107690
  50 C :   -0.062960
  51 N :   -0.083879
  52 C :    0.000495
  53 C :   -0.030432
  54 H :    0.194694
  55 H :    0.195139
  56 H :    0.192889
  57 H :    0.199831
  58 H :    0.184848
  59 H :    0.190259
  60 C :   -0.054162
  61 C :   -0.107555
  62 C :   -0.104899
  63 C :   -0.065928
  64 C :   -0.126783
  65 C :   -0.130979
  66 H :    0.191337
  67 H :    0.192404
  68 H :    0.176412
  69 H :    0.175047
  70 C :    0.024189
  71 C :   -0.049958
  72 C :   -0.041308
  73 C :   -0.065821
  74 C :   -0.116272
  75 C :   -0.031839
  76 N :   -0.074621
  77 C :   -0.020523
  78 H :    0.205292
  79 H :    0.204399
  80 H :    0.191486
  81 H :    0.185790
  82 C :   -0.008016
  83 C :   -0.033034
  84 C :   -0.038054
  85 C :   -0.090838
  86 C :   -0.097690
  87 C :   -0.114883
  88 C :   -0.015576
  89 C :   -0.107651
  90 C :   -0.062821
  91 N :   -0.083784
  92 C :    0.000447
  93 C :   -0.030457
  94 H :    0.194688
  95 H :    0.195129
  96 H :    0.192891
  97 H :    0.199833
  98 H :    0.184743
  99 H :    0.190289
 100 C :   -0.054492
 101 C :   -0.130845
 102 C :   -0.126633
 103 C :   -0.066064
 104 C :   -0.105274
 105 C :   -0.107820
 106 H :    0.175355
 107 H :    0.176816
 108 H :    0.192297
 109 H :    0.191260
 110 C :    0.024175
 111 C :   -0.049970
 112 C :   -0.041287
 113 C :   -0.065751
 114 C :   -0.116243
 115 C :   -0.031683
 116 N :   -0.074642
 117 C :   -0.020430
 118 H :    0.205340
 119 H :    0.204424
 120 H :    0.191503
 121 H :    0.185859
 122 C :   -0.007962
 123 C :   -0.033093
 124 C :   -0.038049
 125 C :   -0.090890
 126 C :   -0.097704
 127 C :   -0.114965
 128 C :   -0.015625
 129 C :   -0.107697
 130 C :   -0.062725
 131 N :   -0.083768
 132 C :    0.000356
 133 C :   -0.030457
 134 H :    0.194717
 135 H :    0.195117
 136 H :    0.192870
 137 H :    0.199809
 138 H :    0.184885
 139 H :    0.190326
 140 C :   -0.054545
 141 C :   -0.130776
 142 C :   -0.126635
 143 C :   -0.066150
 144 C :   -0.105380
 145 C :   -0.107862
 146 H :    0.175537
 147 H :    0.177072
 148 H :    0.192209
 149 H :    0.191220
 150 C :    0.024264
 151 C :   -0.050108
 152 C :   -0.041316
 153 C :   -0.065734
 154 C :   -0.116310
 155 C :   -0.031686
 156 N :   -0.074702
 157 C :   -0.020393
 158 H :    0.205322
 159 H :    0.204403
 160 H :    0.191500
 161 H :    0.185916

  Mayer bond orders larger than 0.100000
B(  0-Pd, 11-N ) :   0.5182 B(  0-Pd, 51-N ) :   0.5178 B(  0-Pd, 91-N ) :   0.5173
B(  0-Pd,131-N ) :   0.5167 B(  1-Pd, 36-N ) :   0.5286 B(  1-Pd, 76-N ) :   0.5290
B(  1-Pd,116-N ) :   0.5291 B(  1-Pd,156-N ) :   0.5288 B(  2-C ,  3-C ) :   1.9023
B(  2-C ,  4-C ) :  -0.2670 B(  2-C , 13-C ) :   0.1155 B(  2-C , 20-C ) :   1.5696
B(  3-C ,  4-C ) :   1.4458 B(  3-C ,  8-C ) :   0.1066 B(  3-C , 13-C ) :  -0.2344
B(  3-C , 20-C ) :  -0.4015 B(  3-C , 21-C ) :   0.1021 B(  4-C ,  5-C ) :   1.5300
B(  4-C , 12-C ) :  -0.1337 B(  4-C , 13-C ) :   0.9911 B(  5-C ,  6-C ) :   1.4290
B(  5-C , 14-H ) :   0.8625 B(  6-C ,  7-C ) :   1.6179 B(  6-C , 15-H ) :   0.8735
B(  7-C ,  8-C ) :   1.3697 B(  7-C , 13-C ) :  -0.1321 B(  7-C , 16-H ) :   0.8609
B(  8-C ,  9-C ) :   1.2655 B(  8-C , 12-C ) :  -0.1108 B(  8-C , 13-C ) :   1.0290
B(  9-C , 10-C ) :   1.5973 B(  9-C , 17-H ) :   0.8714 B( 10-C , 11-N ) :   1.2135
B( 10-C , 18-H ) :   0.9086 B( 11-N , 12-C ) :   1.4805 B( 12-C , 13-C ) :   1.3906
B( 12-C , 19-H ) :   0.8967 B( 20-C , 21-C ) :   1.2879 B( 20-C , 25-C ) :   1.2978
B( 21-C , 22-C ) :   1.5254 B( 21-C , 26-H ) :   0.9196 B( 22-C , 23-C ) :   1.2758
B( 22-C , 27-H ) :   0.9145 B( 23-C , 24-C ) :   1.3133 B( 23-C , 30-C ) :   1.5152
B( 23-C , 31-C ) :  -0.4057 B( 24-C , 25-C ) :   1.5434 B( 24-C , 28-H ) :   0.8886
B( 25-C , 29-H ) :   0.9018 B( 30-C , 31-C ) :   1.8455 B( 30-C , 32-C ) :  -0.3015
B( 31-C , 32-C ) :   1.4264 B( 32-C , 33-C ) :   1.3520 B( 32-C , 37-C ) :   1.3629
B( 33-C , 34-C ) :   1.4710 B( 33-C , 38-H ) :   0.9067 B( 34-C , 35-C ) :   1.4124
B( 34-C , 39-H ) :   0.8715 B( 35-C , 36-N ) :   1.3832 B( 35-C , 40-H ) :   0.9186
B( 36-N , 37-C ) :   1.3449 B( 37-C , 41-H ) :   0.9415 B( 42-C , 43-C ) :   1.9031
B( 42-C , 44-C ) :  -0.2672 B( 42-C , 53-C ) :   0.1162 B( 42-C , 60-C ) :   1.5697
B( 43-C , 44-C ) :   1.4450 B( 43-C , 48-C ) :   0.1069 B( 43-C , 53-C ) :  -0.2342
B( 43-C , 60-C ) :  -0.4010 B( 43-C , 65-C ) :   0.1017 B( 44-C , 45-C ) :   1.5303
B( 44-C , 52-C ) :  -0.1338 B( 44-C , 53-C ) :   0.9909 B( 45-C , 46-C ) :   1.4293
B( 45-C , 54-H ) :   0.8627 B( 46-C , 47-C ) :   1.6181 B( 46-C , 55-H ) :   0.8734
B( 47-C , 48-C ) :   1.3695 B( 47-C , 53-C ) :  -0.1321 B( 47-C , 56-H ) :   0.8609
B( 48-C , 49-C ) :   1.2651 B( 48-C , 52-C ) :  -0.1103 B( 48-C , 53-C ) :   1.0283
B( 49-C , 50-C ) :   1.5971 B( 49-C , 57-H ) :   0.8715 B( 50-C , 51-N ) :   1.2125
B( 50-C , 58-H ) :   0.9089 B( 51-N , 52-C ) :   1.4811 B( 52-C , 53-C ) :   1.3899
B( 52-C , 59-H ) :   0.8971 B( 60-C , 61-C ) :   1.2972 B( 60-C , 65-C ) :   1.2890
B( 61-C , 62-C ) :   1.5428 B( 61-C , 66-H ) :   0.9020 B( 62-C , 63-C ) :   1.3131
B( 62-C , 67-H ) :   0.8885 B( 63-C , 64-C ) :   1.2759 B( 63-C , 70-C ) :   1.5146
B( 63-C , 71-C ) :  -0.4057 B( 64-C , 65-C ) :   1.5269 B( 64-C , 68-H ) :   0.9144
B( 65-C , 69-H ) :   0.9193 B( 70-C , 71-C ) :   1.8457 B( 70-C , 72-C ) :  -0.3015
B( 71-C , 72-C ) :   1.4258 B( 72-C , 73-C ) :   1.3519 B( 72-C , 77-C ) :   1.3633
B( 73-C , 74-C ) :   1.4711 B( 73-C , 78-H ) :   0.9067 B( 74-C , 75-C ) :   1.4122
B( 74-C , 79-H ) :   0.8715 B( 75-C , 76-N ) :   1.3835 B( 75-C , 80-H ) :   0.9186
B( 76-N , 77-C ) :   1.3444 B( 77-C , 81-H ) :   0.9421 B( 82-C , 83-C ) :   1.9031
B( 82-C , 84-C ) :  -0.2667 B( 82-C , 93-C ) :   0.1163 B( 82-C ,100-C ) :   1.5719
B( 83-C , 84-C ) :   1.4468 B( 83-C , 88-C ) :   0.1069 B( 83-C , 93-C ) :  -0.2355
B( 83-C ,100-C ) :  -0.4026 B( 83-C ,101-C ) :   0.1020 B( 84-C , 85-C ) :   1.5313
B( 84-C , 92-C ) :  -0.1337 B( 84-C , 93-C ) :   0.9911 B( 85-C , 86-C ) :   1.4290
B( 85-C , 94-H ) :   0.8627 B( 86-C , 87-C ) :   1.6180 B( 86-C , 95-H ) :   0.8735
B( 87-C , 88-C ) :   1.3702 B( 87-C , 93-C ) :  -0.1323 B( 87-C , 96-H ) :   0.8610
B( 88-C , 89-C ) :   1.2640 B( 88-C , 92-C ) :  -0.1095 B( 88-C , 93-C ) :   1.0279
B( 89-C , 90-C ) :   1.5980 B( 89-C , 97-H ) :   0.8714 B( 90-C , 91-N ) :   1.2120
B( 90-C , 98-H ) :   0.9086 B( 91-N , 92-C ) :   1.4808 B( 92-C , 93-C ) :   1.3878
B( 92-C , 99-H ) :   0.8975 B(100-C ,101-C ) :   1.2896 B(100-C ,105-C ) :   1.2983
B(101-C ,102-C ) :   1.5278 B(101-C ,106-H ) :   0.9186 B(102-C ,103-C ) :   1.2768
B(102-C ,107-H ) :   0.9134 B(103-C ,104-C ) :   1.3144 B(103-C ,110-C ) :   1.5131
B(103-C ,111-C ) :  -0.4027 B(104-C ,105-C ) :   1.5435 B(104-C ,108-H ) :   0.8887
B(105-C ,109-H ) :   0.9019 B(110-C ,111-C ) :   1.8459 B(110-C ,112-C ) :  -0.3021
B(111-C ,112-C ) :   1.4275 B(112-C ,113-C ) :   1.3522 B(112-C ,117-C ) :   1.3650
B(113-C ,114-C ) :   1.4709 B(113-C ,118-H ) :   0.9066 B(114-C ,115-C ) :   1.4127
B(114-C ,119-H ) :   0.8714 B(115-C ,116-N ) :   1.3841 B(115-C ,120-H ) :   0.9186
B(116-N ,117-C ) :   1.3443 B(117-C ,121-H ) :   0.9417 B(122-C ,123-C ) :   1.9024
B(122-C ,124-C ) :  -0.2662 B(122-C ,133-C ) :   0.1157 B(122-C ,140-C ) :   1.5725
B(123-C ,124-C ) :   1.4492 B(123-C ,128-C ) :   0.1070 B(123-C ,133-C ) :  -0.2369
B(123-C ,140-C ) :  -0.4031 B(123-C ,141-C ) :   0.1025 B(124-C ,125-C ) :   1.5321
B(124-C ,132-C ) :  -0.1334 B(124-C ,133-C ) :   0.9909 B(125-C ,126-C ) :   1.4289
B(125-C ,134-H ) :   0.8624 B(126-C ,127-C ) :   1.6179 B(126-C ,135-H ) :   0.8735
B(127-C ,128-C ) :   1.3707 B(127-C ,133-C ) :  -0.1322 B(127-C ,136-H ) :   0.8609
B(128-C ,129-C ) :   1.2639 B(128-C ,132-C ) :  -0.1099 B(128-C ,133-C ) :   1.0280
B(129-C ,130-C ) :   1.5979 B(129-C ,137-H ) :   0.8712 B(130-C ,131-N ) :   1.2125
B(130-C ,138-H ) :   0.9083 B(131-N ,132-C ) :   1.4805 B(132-C ,133-C ) :   1.3873
B(132-C ,139-H ) :   0.8972 B(140-C ,141-C ) :   1.2894 B(140-C ,145-C ) :   1.3003
B(141-C ,142-C ) :   1.5271 B(141-C ,146-H ) :   0.9181 B(142-C ,143-C ) :   1.2768
B(142-C ,147-H ) :   0.9128 B(143-C ,144-C ) :   1.3151 B(143-C ,150-C ) :   1.5153
B(143-C ,151-C ) :  -0.4042 B(144-C ,145-C ) :   1.5446 B(144-C ,148-H ) :   0.8886
B(145-C ,149-H ) :   0.9015 B(150-C ,151-C ) :   1.8453 B(150-C ,152-C ) :  -0.3007
B(151-C ,152-C ) :   1.4269 B(152-C ,153-C ) :   1.3525 B(152-C ,157-C ) :   1.3658
B(153-C ,154-C ) :   1.4708 B(153-C ,158-H ) :   0.9064 B(154-C ,155-C ) :   1.4129
B(154-C ,159-H ) :   0.8714 B(155-C ,156-N ) :   1.3837 B(155-C ,160-H ) :   0.9186
B(156-N ,157-C ) :   1.3449 B(157-C ,161-H ) :   0.9410

Dispersion correction           -0.600277488
FINAL SINGLE POINT ENERGY     -4383.030873741192

DIPOLE MOMENT
-------------
                                X             Y             Z
Electronic contribution:      0.19424    -138.41323       2.13801
Nuclear contribution   :     -0.13764     135.95949      -2.12560
                        -----------------------------------------
Total Dipole Moment    :      0.05660      -2.45374       0.01242
                        -----------------------------------------
Magnitude (a.u.)       :      2.45443
Magnitude (Debye)      :      6.23865

Rotational constants in cm-1:     0.000629     0.000263     0.000263
Rotational constants in MHz :    18.855025     7.884154     7.877964

                             ****ORCA TERMINATED NORMALLY****
TOTAL RUN TIME: 0 days 0 hours 10 minutes 26 seconds 91 msec
