                         Program Version 4.2.1 -  RELEASE  -
|  1> ! DFT SP B97-3c TightSCF printbasis  Grid6 NOFINALGRID SlowConv
|  2>
|  3> %base "_s_4b1_d_B97-3c"
|  4> %maxcore 3000
|  5> %scf
|  6>    MaxIter 2000
|  7> end
|  8> %pal
|  9>    nprocs 32
| 10> end
| 11>
| 12> * xyzfile 4 1 s_4b1_d.xyz
| 13>
| 14>                          ****END OF INPUT****

CARTESIAN COORDINATES (ANGSTROEM)
---------------------------------
  Pd     1.097000    6.339000   -0.843300
  Pd     0.562500   -4.927700   -0.688200
  C      5.606300   -1.228800   -1.333600
  C      5.692300   -2.434700   -1.375900
  C      5.896600   -3.827000   -1.439400
  C      7.170600   -4.317900   -1.662200
  C      7.414900   -5.693600   -1.719700
  C      6.394500   -6.597800   -1.560000
  C      5.081800   -6.143800   -1.340000
  C      3.988800   -7.025600   -1.177100
  C      2.735100   -6.525100   -0.978900
  N      2.496400   -5.189600   -0.931400
  C      3.487600   -4.335300   -1.070200
  C      4.815700   -4.744800   -1.277500
  H      7.989300   -3.625900   -1.787900
  H      8.422400   -6.040600   -1.891300
  H      6.584900   -7.658600   -1.603200
  H      4.159700   -8.089800   -1.214500
  H      1.873700   -7.187100   -0.850500
  H      3.242100   -3.279700   -1.019300
  C      5.425800    0.169000   -1.282200
  C      6.104100    1.008600   -2.170300
  C      5.879000    2.370300   -2.144300
  C      4.970200    2.921300   -1.239600
  C      4.321700    2.081900   -0.330300
  C      4.546300    0.722500   -0.346800
  H      6.794700    0.586100   -2.883900
  H      6.386800    3.005900   -2.853200
  H      3.661900    2.503000    0.411200
  H      4.053600    0.078600    0.363100
  C      4.668700    4.359600   -1.254500
  C      5.655400    5.336600   -1.425900
  C      5.298500    6.673800   -1.426800
  C      3.966400    7.020400   -1.257900
  N      3.027600    6.090800   -1.104000
  C      3.354000    4.796700   -1.103200
  H      6.688800    5.047300   -1.538100
  H      6.043100    7.443100   -1.551900
  H      3.640200    8.054100   -1.246800
  H      2.531900    4.080900   -0.996500
  C      1.525900    2.439200    4.069600
  C      1.656200    3.635400    4.194300
  C      1.822200    5.011800    4.442500
  C      2.093900    5.443200    5.728600
  C      2.253300    6.802400    6.016200
  C      2.147800    7.749000    5.027700
  C      1.881000    7.355600    3.704100
  C      1.769200    8.282600    2.642500
  C      1.521900    7.839300    1.376000
  N      1.377600    6.519100    1.094800
  C      1.465600    5.624600    2.056000
  C      1.715500    5.974200    3.393900
  H      2.178100    4.717300    6.522800
  H      2.460800    7.102600    7.031900
  H      2.269300    8.797100    5.251500
  H      1.884100    9.335100    2.847200
  H      1.431000    8.537000    0.538300
  H      1.337300    4.584000    1.777200
  C      1.375000    1.055200    3.844200
  C      0.415300    0.598800    2.935600
  C      0.304100   -0.748000    2.666900
  C      1.140600   -1.671200    3.299400
  C      2.068900   -1.216000    4.237100
  C      2.189800    0.132400    4.506400
  H     -0.238700    1.307600    2.454700
  H     -0.455700   -1.093300    1.984200
  H      2.722100   -1.917100    4.733100
  H      2.921600    0.480100    5.219100
  C      1.056600   -3.096500    2.951400
  C      1.142600   -4.113900    3.907900
  C      1.053600   -5.435900    3.507600
  C      0.881400   -5.727100    2.162800
  N      0.808800   -4.759700    1.252800
  C      0.894600   -3.479800    1.621300
  H      1.259300   -3.866300    4.951500
  H      1.111800   -6.235300    4.228300
  H      0.801700   -6.746500    1.802800
  H      0.851900   -2.732500    0.821800
  C     -4.108200   -0.751900   -0.154000
  C     -4.308000   -1.942600   -0.079500
  C     -4.643200   -3.307100    0.021000
  C     -5.958000   -3.669000    0.253400
  C     -6.331400   -5.013400    0.347600
  C     -5.401100   -6.014100    0.215600
  C     -4.051200   -5.692500   -0.013000
  C     -3.046500   -6.677800   -0.148700
  C     -1.751100   -6.303800   -0.357200
  N     -1.387100   -4.998600   -0.440700
  C     -2.293000   -4.050900   -0.327900
  C     -3.654000   -4.327100   -0.112800
  H     -6.707600   -2.899500    0.357700
  H     -7.367200   -5.258700    0.525600
  H     -5.691000   -7.050500    0.287200
  H     -3.317300   -7.719600   -0.082500
  H     -0.956200   -7.047600   -0.465200
  H     -1.948800   -3.025000   -0.406900
  C     -3.796100    0.620600   -0.242800
  C     -2.869400    1.062900   -1.191700
  C     -2.517100    2.394000   -1.244700
  C     -3.081900    3.315300   -0.359100
  C     -4.037400    2.877400    0.559200
  C     -4.390500    1.544300    0.621700
  H     -2.440900    0.356300   -1.883500
  H     -1.821400    2.730500   -1.996500
  H     -4.481700    3.577100    1.250000
  H     -5.116900    1.208600    1.345600
  C     -2.645400    4.718400   -0.382900
  C     -3.535000    5.788700   -0.239000
  C     -3.053100    7.085700   -0.274000
  C     -1.694500    7.299900   -0.450800
  N     -0.848100    6.281800   -0.578400
  C     -1.295500    5.024900   -0.544500
  H     -4.591000    5.601700   -0.120100
  H     -3.721400    7.925100   -0.170600
  H     -1.271900    8.297300   -0.489600
  H     -0.545100    4.231800   -0.630800
  C      0.294400    2.363800   -5.648200
  C      0.277900    3.563000   -5.805700
  C      0.242600    4.941700   -6.091700
  C      0.011300    5.361400   -7.389500
  C     -0.019100    6.721200   -7.714500
  C      0.176900    7.680300   -6.752200
  C      0.407000    7.299900   -5.417900
  C      0.607400    8.240900   -4.382000
  C      0.813100    7.811100   -3.103500
  N      0.832200    6.491400   -2.786000
  C      0.658700    5.583300   -3.722400
  C      0.441400    5.918100   -5.069800
  H     -0.142400    4.625300   -8.163600
  H     -0.198600    7.011800   -8.738300
  H      0.154800    8.728700   -7.004800
  H      0.592300    9.293600   -4.615700
  H      0.970700    8.519800   -2.285200
  H      0.688400    4.543200   -3.414900
  C      0.313900    0.978400   -5.384700
  C     -0.585200    0.119000   -6.022500
  C     -0.592100   -1.227000   -5.716000
  C      0.290000   -1.741900   -4.764800
  C      1.210800   -0.885000   -4.156700
  C      1.227200    0.458500   -4.462500
  H     -1.281700    0.514500   -6.745600
  H     -1.309300   -1.876500   -6.193600
  H      1.935200   -1.281600   -3.463600
  H      1.945800    1.115200   -4.000300
  C      0.239300   -3.158600   -4.377600
  C      0.056600   -4.189400   -5.305900
  C      0.021000   -5.502300   -4.869200
  C      0.166300   -5.771400   -3.516700
  N      0.330800   -4.790400   -2.633600
  C      0.365700   -3.518800   -3.037200
  H     -0.037200   -3.960700   -6.356100
  H     -0.113200   -6.312200   -5.567800
  H      0.149800   -6.783400   -3.128700
  H      0.479600   -2.757100   -2.258500

 Total Charge           Charge          ....    4
 Multiplicity           Mult            ....    1
 Number of Electrons    NEL             ....  672
 Basis Dimension        Dim             .... 2058

ORBITAL ENERGIES
----------------

  NO   OCC          E(Eh)            E(eV)
   0   2.0000     -14.345362      -390.3571
   1   2.0000     -14.345354      -390.3569
   2   2.0000     -14.345352      -390.3569
   3   2.0000     -14.345342      -390.3566
   4   2.0000     -14.336961      -390.1285
   5   2.0000     -14.336955      -390.1284
   6   2.0000     -14.336934      -390.1278
   7   2.0000     -14.336918      -390.1274
   8   2.0000     -10.240509      -278.6584
   9   2.0000     -10.240504      -278.6583
  10   2.0000     -10.240503      -278.6583
  11   2.0000     -10.240497      -278.6581
  12   2.0000     -10.236874      -278.5595
  13   2.0000     -10.236854      -278.5589
  14   2.0000     -10.236823      -278.5581
  15   2.0000     -10.236812      -278.5578
  16   2.0000     -10.236168      -278.5403
  17   2.0000     -10.236149      -278.5398
  18   2.0000     -10.236148      -278.5397
  19   2.0000     -10.236144      -278.5396
  20   2.0000     -10.224969      -278.2356
  21   2.0000     -10.224965      -278.2354
  22   2.0000     -10.224931      -278.2345
  23   2.0000     -10.224925      -278.2344
  24   2.0000     -10.213548      -277.9248
  25   2.0000     -10.213548      -277.9248
  26   2.0000     -10.213544      -277.9247
  27   2.0000     -10.213535      -277.9244
  28   2.0000     -10.204861      -277.6884
  29   2.0000     -10.204855      -277.6882
  30   2.0000     -10.204851      -277.6881
  31   2.0000     -10.204848      -277.6880
  32   2.0000     -10.202623      -277.6275
  33   2.0000     -10.202609      -277.6271
  34   2.0000     -10.202572      -277.6261
  35   2.0000     -10.202562      -277.6258
  36   2.0000     -10.201814      -277.6055
  37   2.0000     -10.201800      -277.6051
  38   2.0000     -10.201759      -277.6040
  39   2.0000     -10.201755      -277.6039
  40   2.0000     -10.199772      -277.5499
  41   2.0000     -10.199770      -277.5498
  42   2.0000     -10.199769      -277.5498
  43   2.0000     -10.199767      -277.5498
  44   2.0000     -10.198149      -277.5057
  45   2.0000     -10.198145      -277.5056
  46   2.0000     -10.198110      -277.5047
  47   2.0000     -10.198106      -277.5046
  48   2.0000     -10.194510      -277.4067
  49   2.0000     -10.194505      -277.4066
  50   2.0000     -10.194437      -277.4047
  51   2.0000     -10.194434      -277.4046
  52   2.0000     -10.191979      -277.3379
  53   2.0000     -10.191968      -277.3375
  54   2.0000     -10.191942      -277.3368
  55   2.0000     -10.191934      -277.3366
  56   2.0000     -10.190421      -277.2955
  57   2.0000     -10.190418      -277.2954
  58   2.0000     -10.190391      -277.2946
  59   2.0000     -10.190390      -277.2946
  60   2.0000     -10.177912      -276.9551
  61   2.0000     -10.177904      -276.9548
  62   2.0000     -10.177836      -276.9530
  63   2.0000     -10.177831      -276.9529
  64   2.0000     -10.176383      -276.9134
  65   2.0000     -10.176366      -276.9130
  66   2.0000     -10.176264      -276.9102
  67   2.0000     -10.176263      -276.9102
  68   2.0000     -10.174301      -276.8568
  69   2.0000     -10.174297      -276.8567
  70   2.0000     -10.174247      -276.8553
  71   2.0000     -10.174246      -276.8553
  72   2.0000     -10.173549      -276.8363
  73   2.0000     -10.173529      -276.8358
  74   2.0000     -10.173523      -276.8356
  75   2.0000     -10.173518      -276.8355
  76   2.0000     -10.171735      -276.7870
  77   2.0000     -10.171717      -276.7865
  78   2.0000     -10.171706      -276.7862
  79   2.0000     -10.171704      -276.7861
  80   2.0000     -10.169964      -276.7388
  81   2.0000     -10.169956      -276.7386
  82   2.0000     -10.169916      -276.7375
  83   2.0000     -10.169913      -276.7374
  84   2.0000     -10.169264      -276.7197
  85   2.0000     -10.169259      -276.7196
  86   2.0000     -10.169225      -276.7187
  87   2.0000     -10.169219      -276.7185
  88   2.0000     -10.168746      -276.7056
  89   2.0000     -10.168728      -276.7052
  90   2.0000     -10.168677      -276.7038
  91   2.0000     -10.168655      -276.7032
  92   2.0000     -10.166376      -276.6412
  93   2.0000     -10.166359      -276.6407
  94   2.0000     -10.166315      -276.6395
  95   2.0000     -10.166294      -276.6389
  96   2.0000      -3.654454       -99.4427
  97   2.0000      -3.654427       -99.4420
  98   2.0000      -2.385883       -64.9232
  99   2.0000      -2.385830       -64.9217
 100   2.0000      -2.385224       -64.9052
 101   2.0000      -2.385223       -64.9052
 102   2.0000      -2.342758       -63.7497
 103   2.0000      -2.342730       -63.7489
 104   2.0000      -1.209456       -32.9110
 105   2.0000      -1.209435       -32.9104
 106   2.0000      -1.204511       -32.7764
 107   2.0000      -1.204492       -32.7759
 108   2.0000      -1.197364       -32.5819
 109   2.0000      -1.197336       -32.5812
 110   2.0000      -1.195151       -32.5217
 111   2.0000      -1.195122       -32.5209
 112   2.0000      -1.083902       -29.4945
 113   2.0000      -1.083393       -29.4806
 114   2.0000      -1.083352       -29.4795
 115   2.0000      -1.083305       -29.4782
 116   2.0000      -1.082059       -29.4443
 117   2.0000      -1.081533       -29.4300
 118   2.0000      -1.081232       -29.4218
 119   2.0000      -1.081195       -29.4208
 120   2.0000      -1.048940       -28.5431
 121   2.0000      -1.048762       -28.5383
 122   2.0000      -1.047561       -28.5056
 123   2.0000      -1.047543       -28.5051
 124   2.0000      -1.025843       -27.9146
 125   2.0000      -1.025037       -27.8927
 126   2.0000      -1.025001       -27.8917
 127   2.0000      -1.024869       -27.8881
 128   2.0000      -1.020680       -27.7741
 129   2.0000      -1.019868       -27.7520
 130   2.0000      -1.019855       -27.7517
 131   2.0000      -1.019413       -27.7396
 132   2.0000      -0.995183       -27.0803
 133   2.0000      -0.994967       -27.0744
 134   2.0000      -0.993712       -27.0403
 135   2.0000      -0.993669       -27.0391
 136   2.0000      -0.992184       -26.9987
 137   2.0000      -0.991662       -26.9845
 138   2.0000      -0.991618       -26.9833
 139   2.0000      -0.990856       -26.9626
 140   2.0000      -0.975561       -26.5464
 141   2.0000      -0.974890       -26.5281
 142   2.0000      -0.974850       -26.5270
 143   2.0000      -0.973928       -26.5019
 144   2.0000      -0.966023       -26.2868
 145   2.0000      -0.965995       -26.2861
 146   2.0000      -0.965946       -26.2847
 147   2.0000      -0.965926       -26.2842
 148   2.0000      -0.934984       -25.4422
 149   2.0000      -0.934625       -25.4324
 150   2.0000      -0.934575       -25.4311
 151   2.0000      -0.933977       -25.4148
 152   2.0000      -0.896427       -24.3930
 153   2.0000      -0.896028       -24.3822
 154   2.0000      -0.896018       -24.3819
 155   2.0000      -0.895994       -24.3812
 156   2.0000      -0.892740       -24.2927
 157   2.0000      -0.890879       -24.2420
 158   2.0000      -0.890840       -24.2410
 159   2.0000      -0.890741       -24.2383
 160   2.0000      -0.884422       -24.0663
 161   2.0000      -0.884301       -24.0630
 162   2.0000      -0.881639       -23.9906
 163   2.0000      -0.881621       -23.9901
 164   2.0000      -0.868927       -23.6447
 165   2.0000      -0.867511       -23.6062
 166   2.0000      -0.866835       -23.5878
 167   2.0000      -0.866799       -23.5868
 168   2.0000      -0.851969       -23.1833
 169   2.0000      -0.851456       -23.1693
 170   2.0000      -0.850963       -23.1559
 171   2.0000      -0.850917       -23.1546
 172   2.0000      -0.834267       -22.7015
 173   2.0000      -0.834120       -22.6975
 174   2.0000      -0.834065       -22.6961
 175   2.0000      -0.833952       -22.6930
 176   2.0000      -0.832841       -22.6627
 177   2.0000      -0.831481       -22.6257
 178   2.0000      -0.829389       -22.5688
 179   2.0000      -0.829339       -22.5675
 180   2.0000      -0.799370       -21.7520
 181   2.0000      -0.797255       -21.6944
 182   2.0000      -0.788378       -21.4528
 183   2.0000      -0.787403       -21.4263
 184   2.0000      -0.787333       -21.4244
 185   2.0000      -0.787325       -21.4242
 186   2.0000      -0.783619       -21.3233
 187   2.0000      -0.783567       -21.3219
 188   2.0000      -0.770562       -20.9681
 189   2.0000      -0.770146       -20.9567
 190   2.0000      -0.767335       -20.8802
 191   2.0000      -0.767297       -20.8792
 192   2.0000      -0.763087       -20.7647
 193   2.0000      -0.762593       -20.7512
 194   2.0000      -0.761569       -20.7233
 195   2.0000      -0.761512       -20.7218
 196   2.0000      -0.759633       -20.6707
 197   2.0000      -0.758263       -20.6334
 198   2.0000      -0.753301       -20.4984
 199   2.0000      -0.753297       -20.4983
 200   2.0000      -0.752073       -20.4650
 201   2.0000      -0.751962       -20.4619
 202   2.0000      -0.746374       -20.3099
 203   2.0000      -0.746341       -20.3090
 204   2.0000      -0.733607       -19.9625
 205   2.0000      -0.731479       -19.9046
 206   2.0000      -0.729033       -19.8380
 207   2.0000      -0.728989       -19.8368
 208   2.0000      -0.719396       -19.5758
 209   2.0000      -0.717763       -19.5313
 210   2.0000      -0.717414       -19.5218
 211   2.0000      -0.717292       -19.5185
 212   2.0000      -0.713625       -19.4187
 213   2.0000      -0.713564       -19.4171
 214   2.0000      -0.711407       -19.3584
 215   2.0000      -0.710108       -19.3230
 216   2.0000      -0.702215       -19.1083
 217   2.0000      -0.701244       -19.0818
 218   2.0000      -0.698832       -19.0162
 219   2.0000      -0.698772       -19.0146
 220   2.0000      -0.697485       -18.9795
 221   2.0000      -0.697470       -18.9791
 222   2.0000      -0.696969       -18.9655
 223   2.0000      -0.695962       -18.9381
 224   2.0000      -0.695831       -18.9345
 225   2.0000      -0.695802       -18.9337
 226   2.0000      -0.694392       -18.8954
 227   2.0000      -0.694312       -18.8932
 228   2.0000      -0.691203       -18.8086
 229   2.0000      -0.690226       -18.7820
 230   2.0000      -0.685938       -18.6653
 231   2.0000      -0.685899       -18.6643
 232   2.0000      -0.684812       -18.6347
 233   2.0000      -0.684785       -18.6340
 234   2.0000      -0.675931       -18.3930
 235   2.0000      -0.675894       -18.3920
 236   2.0000      -0.674231       -18.3468
 237   2.0000      -0.673965       -18.3395
 238   2.0000      -0.673078       -18.3154
 239   2.0000      -0.673028       -18.3140
 240   2.0000      -0.671323       -18.2676
 241   2.0000      -0.671287       -18.2666
 242   2.0000      -0.671282       -18.2665
 243   2.0000      -0.670545       -18.2464
 244   2.0000      -0.667439       -18.1619
 245   2.0000      -0.667196       -18.1553
 246   2.0000      -0.667040       -18.1511
 247   2.0000      -0.667033       -18.1509
 248   2.0000      -0.658812       -17.9272
 249   2.0000      -0.658642       -17.9226
 250   2.0000      -0.658602       -17.9215
 251   2.0000      -0.657865       -17.9014
 252   2.0000      -0.657793       -17.8995
 253   2.0000      -0.657789       -17.8993
 254   2.0000      -0.642368       -17.4797
 255   2.0000      -0.642308       -17.4781
 256   2.0000      -0.642045       -17.4709
 257   2.0000      -0.642026       -17.4704
 258   2.0000      -0.640210       -17.4210
 259   2.0000      -0.640163       -17.4197
 260   2.0000      -0.634174       -17.2568
 261   2.0000      -0.634038       -17.2530
 262   2.0000      -0.630510       -17.1570
 263   2.0000      -0.628837       -17.1115
 264   2.0000      -0.626079       -17.0365
 265   2.0000      -0.625995       -17.0342
 266   2.0000      -0.625518       -17.0212
 267   2.0000      -0.625402       -17.0181
 268   2.0000      -0.621845       -16.9213
 269   2.0000      -0.618045       -16.8179
 270   2.0000      -0.618040       -16.8177
 271   2.0000      -0.617454       -16.8018
 272   2.0000      -0.610561       -16.6142
 273   2.0000      -0.610526       -16.6133
 274   2.0000      -0.605377       -16.4731
 275   2.0000      -0.605347       -16.4723
 276   2.0000      -0.602251       -16.3881
 277   2.0000      -0.601593       -16.3702
 278   2.0000      -0.595935       -16.2162
 279   2.0000      -0.594458       -16.1760
 280   2.0000      -0.594409       -16.1747
 281   2.0000      -0.592147       -16.1131
 282   2.0000      -0.592094       -16.1117
 283   2.0000      -0.589881       -16.0515
 284   2.0000      -0.589818       -16.0498
 285   2.0000      -0.589764       -16.0483
 286   2.0000      -0.589093       -16.0300
 287   2.0000      -0.588928       -16.0255
 288   2.0000      -0.584876       -15.9153
 289   2.0000      -0.584519       -15.9056
 290   2.0000      -0.582927       -15.8622
 291   2.0000      -0.582837       -15.8598
 292   2.0000      -0.576082       -15.6760
 293   2.0000      -0.576010       -15.6740
 294   2.0000      -0.574246       -15.6260
 295   2.0000      -0.570126       -15.5139
 296   2.0000      -0.569989       -15.5102
 297   2.0000      -0.566766       -15.4225
 298   2.0000      -0.564153       -15.3514
 299   2.0000      -0.564098       -15.3499
 300   2.0000      -0.560864       -15.2619
 301   2.0000      -0.556234       -15.1359
 302   2.0000      -0.556178       -15.1344
 303   2.0000      -0.554560       -15.0903
 304   2.0000      -0.551901       -15.0180
 305   2.0000      -0.551858       -15.0168
 306   2.0000      -0.546172       -14.8621
 307   2.0000      -0.546146       -14.8614
 308   2.0000      -0.542304       -14.7568
 309   2.0000      -0.542283       -14.7563
 310   2.0000      -0.536907       -14.6100
 311   2.0000      -0.533485       -14.5169
 312   2.0000      -0.533416       -14.5150
 313   2.0000      -0.532055       -14.4779
 314   2.0000      -0.523568       -14.2470
 315   2.0000      -0.523405       -14.2426
 316   2.0000      -0.523360       -14.2414
 317   2.0000      -0.521910       -14.2019
 318   2.0000      -0.521652       -14.1949
 319   2.0000      -0.521588       -14.1931
 320   2.0000      -0.515966       -14.0402
 321   2.0000      -0.515924       -14.0390
 322   2.0000      -0.510557       -13.8930
 323   2.0000      -0.510487       -13.8910
 324   2.0000      -0.509009       -13.8508
 325   2.0000      -0.508953       -13.8493
 326   2.0000      -0.508876       -13.8472
 327   2.0000      -0.508268       -13.8307
 328   2.0000      -0.495500       -13.4832
 329   2.0000      -0.495056       -13.4712
 330   2.0000      -0.494478       -13.4554
 331   2.0000      -0.493644       -13.4327
 332   2.0000      -0.466946       -12.7062
 333   2.0000      -0.466689       -12.6992
 334   2.0000      -0.466528       -12.6949
 335   2.0000      -0.465429       -12.6650
 336   0.0000      -0.378784       -10.3072
 337   0.0000      -0.378633       -10.3031
 338   0.0000      -0.376715       -10.2509
 339   0.0000      -0.375237       -10.2107
 340   0.0000      -0.372122       -10.1260

MULLIKEN ATOMIC CHARGES
-----------------------
   0 Pd:   -0.100320
   1 Pd:   -0.100934
   2 C :    0.038588
   3 C :    0.053807
   4 C :   -0.221520
   5 C :   -0.070848
   6 C :   -0.183304
   7 C :   -0.210831
   8 C :   -0.065639
   9 C :   -0.078713
  10 C :   -0.178510
  11 N :   -0.061169
  12 C :   -0.117835
  13 C :    0.386288
  14 H :    0.253313
  15 H :    0.231174
  16 H :    0.248328
  17 H :    0.255277
  18 H :    0.163661
  19 H :    0.168846
  20 C :   -0.223720
  21 C :   -0.132187
  22 C :   -0.134918
  23 C :   -0.062909
  24 C :   -0.146712
  25 C :   -0.174617
  26 H :    0.240810
  27 H :    0.242402
  28 H :    0.222877
  29 H :    0.209712
  30 C :    0.081937
  31 C :   -0.168341
  32 C :   -0.066053
  33 C :   -0.102290
  34 N :   -0.071899
  35 C :   -0.177114
  36 H :    0.260352
  37 H :    0.248714
  38 H :    0.202371
  39 H :    0.191039
  40 C :    0.038181
  41 C :    0.051761
  42 C :   -0.218645
  43 C :   -0.072090
  44 C :   -0.182987
  45 C :   -0.210989
  46 C :   -0.065727
  47 C :   -0.078701
  48 C :   -0.178339
  49 N :   -0.061068
  50 C :   -0.118043
  51 C :    0.385282
  52 H :    0.253190
  53 H :    0.231190
  54 H :    0.248344
  55 H :    0.255352
  56 H :    0.163626
  57 H :    0.168757
  58 C :   -0.221284
  59 C :   -0.174638
  60 C :   -0.146887
  61 C :   -0.062820
  62 C :   -0.135446
  63 C :   -0.132111
  64 H :    0.208916
  65 H :    0.223116
  66 H :    0.242520
  67 H :    0.240810
  68 C :    0.082092
  69 C :   -0.168178
  70 C :   -0.066073
  71 C :   -0.102080
  72 N :   -0.071757
  73 C :   -0.176766
  74 H :    0.260342
  75 H :    0.248769
  76 H :    0.202145
  77 H :    0.190865
  78 C :    0.039121
  79 C :    0.053773
  80 C :   -0.221723
  81 C :   -0.070814
  82 C :   -0.183284
  83 C :   -0.210933
  84 C :   -0.065577
  85 C :   -0.078737
  86 C :   -0.178751
  87 N :   -0.061247
  88 C :   -0.118112
  89 C :    0.386756
  90 H :    0.253327
  91 H :    0.231191
  92 H :    0.248345
  93 H :    0.255283
  94 H :    0.163897
  95 H :    0.168773
  96 C :   -0.224235
  97 C :   -0.174558
  98 C :   -0.146856
  99 C :   -0.063282
 100 C :   -0.134970
 101 C :   -0.132131
 102 H :    0.209751
 103 H :    0.223014
 104 H :    0.242444
 105 H :    0.240891
 106 C :    0.082071
 107 C :   -0.168613
 108 C :   -0.065899
 109 C :   -0.102460
 110 N :   -0.071516
 111 C :   -0.177321
 112 H :    0.260338
 113 H :    0.248714
 114 H :    0.202302
 115 H :    0.191380
 116 C :    0.037971
 117 C :    0.051742
 118 C :   -0.218475
 119 C :   -0.072196
 120 C :   -0.182873
 121 C :   -0.211130
 122 C :   -0.065577
 123 C :   -0.078753
 124 C :   -0.178592
 125 N :   -0.061202
 126 C :   -0.118022
 127 C :    0.385072
 128 H :    0.253212
 129 H :    0.231196
 130 H :    0.248304
 131 H :    0.255328
 132 H :    0.164042
 133 H :    0.168696
 134 C :   -0.221492
 135 C :   -0.131945
 136 C :   -0.135272
 137 C :   -0.063103
 138 C :   -0.146914
 139 C :   -0.174284
 140 H :    0.240809
 141 H :    0.242487
 142 H :    0.223155
 143 H :    0.208641
 144 C :    0.081895
 145 C :   -0.168407
 146 C :   -0.066005
 147 C :   -0.102261
 148 N :   -0.071704
 149 C :   -0.176974
 150 H :    0.260323
 151 H :    0.248727
 152 H :    0.202260
 153 H :    0.191231
Sum of atomic charges:    4.0000000

LOEWDIN ATOMIC CHARGES
----------------------
   0 Pd:   -0.093252
   1 Pd:   -0.093228
   2 C :   -0.011901
   3 C :   -0.028397
   4 C :   -0.040132
   5 C :   -0.086569
   6 C :   -0.093424
   7 C :   -0.110993
   8 C :   -0.015271
   9 C :   -0.102607
  10 C :   -0.060886
  11 N :   -0.084319
  12 C :   -0.003876
  13 C :   -0.028365
  14 H :    0.197677
  15 H :    0.197469
  16 H :    0.194896
  17 H :    0.201823
  18 H :    0.188839
  19 H :    0.186941
  20 C :   -0.056902
  21 C :   -0.106177
  22 C :   -0.122903
  23 C :   -0.059806
  24 C :   -0.143191
  25 C :   -0.127638
  26 H :    0.193553
  27 H :    0.186912
  28 H :    0.173733
  29 H :    0.178305
  30 C :   -0.033626
  31 C :   -0.075962
  32 C :   -0.115618
  33 C :   -0.025927
  34 N :   -0.071770
  35 C :   -0.029670
  36 H :    0.200514
  37 H :    0.203506
  38 H :    0.189105
  39 H :    0.189290
  40 C :   -0.011916
  41 C :   -0.028400
  42 C :   -0.040161
  43 C :   -0.086563
  44 C :   -0.093448
  45 C :   -0.110960
  46 C :   -0.015250
  47 C :   -0.102601
  48 C :   -0.060809
  49 N :   -0.084332
  50 C :   -0.003955
  51 C :   -0.028327
  52 H :    0.197639
  53 H :    0.197472
  54 H :    0.194902
  55 H :    0.201828
  56 H :    0.188854
  57 H :    0.186913
  58 C :   -0.056789
  59 C :   -0.127807
  60 C :   -0.143214
  61 C :   -0.059709
  62 C :   -0.122789
  63 C :   -0.106059
  64 H :    0.178017
  65 H :    0.173680
  66 H :    0.186939
  67 H :    0.193579
  68 C :   -0.033662
  69 C :   -0.075968
  70 C :   -0.115615
  71 C :   -0.025904
  72 N :   -0.071750
  73 C :   -0.029580
  74 H :    0.200503
  75 H :    0.203507
  76 H :    0.189069
  77 H :    0.189304
  78 C :   -0.011896
  79 C :   -0.028397
  80 C :   -0.040149
  81 C :   -0.086555
  82 C :   -0.093429
  83 C :   -0.110987
  84 C :   -0.015269
  85 C :   -0.102607
  86 C :   -0.060898
  87 N :   -0.084311
  88 C :   -0.003857
  89 C :   -0.028353
  90 H :    0.197680
  91 H :    0.197463
  92 H :    0.194890
  93 H :    0.201824
  94 H :    0.188852
  95 H :    0.186953
  96 C :   -0.056900
  97 C :   -0.127633
  98 C :   -0.143194
  99 C :   -0.059814
 100 C :   -0.122914
 101 C :   -0.106184
 102 H :    0.178313
 103 H :    0.173741
 104 H :    0.186905
 105 H :    0.193552
 106 C :   -0.033629
 107 C :   -0.075938
 108 C :   -0.115625
 109 C :   -0.025925
 110 N :   -0.071756
 111 C :   -0.029705
 112 H :    0.200514
 113 H :    0.203508
 114 H :    0.189091
 115 H :    0.189292
 116 C :   -0.011916
 117 C :   -0.028404
 118 C :   -0.040151
 119 C :   -0.086559
 120 C :   -0.093453
 121 C :   -0.110946
 122 C :   -0.015270
 123 C :   -0.102574
 124 C :   -0.060858
 125 N :   -0.084324
 126 C :   -0.003954
 127 C :   -0.028327
 128 H :    0.197639
 129 H :    0.197472
 130 H :    0.194896
 131 H :    0.201836
 132 H :    0.188871
 133 H :    0.186892
 134 C :   -0.056800
 135 C :   -0.106051
 136 C :   -0.122776
 137 C :   -0.059755
 138 C :   -0.143210
 139 C :   -0.127785
 140 H :    0.193581
 141 H :    0.186946
 142 H :    0.173687
 143 H :    0.177998
 144 C :   -0.033631
 145 C :   -0.075965
 146 C :   -0.115623
 147 C :   -0.025942
 148 N :   -0.071739
 149 C :   -0.029639
 150 H :    0.200500
 151 H :    0.203502
 152 H :    0.189085
 153 H :    0.189306

  Mayer bond orders larger than 0.100000
B(  0-Pd, 34-N ) :   0.5316 B(  0-Pd, 49-N ) :   0.5370 B(  0-Pd,110-N ) :   0.5317
B(  0-Pd,125-N ) :   0.5370 B(  1-Pd, 11-N ) :   0.5371 B(  1-Pd, 72-N ) :   0.5319
B(  1-Pd, 87-N ) :   0.5372 B(  1-Pd,148-N ) :   0.5318 B(  2-C ,  3-C ) :   1.8635
B(  2-C ,  4-C ) :  -0.2896 B(  2-C , 13-C ) :   0.1020 B(  2-C , 20-C ) :   1.6314
B(  2-C , 21-C ) :  -0.1070 B(  3-C ,  4-C ) :   1.4728 B(  3-C ,  5-C ) :  -0.1018
B(  3-C ,  8-C ) :   0.1043 B(  3-C , 13-C ) :  -0.2444 B(  3-C , 20-C ) :  -0.4186
B(  4-C ,  5-C ) :   1.5593 B(  4-C , 12-C ) :  -0.1095 B(  4-C , 13-C ) :   1.0233
B(  5-C ,  6-C ) :   1.4176 B(  5-C , 14-H ) :   0.8511 B(  6-C ,  7-C ) :   1.6275
B(  6-C , 15-H ) :   0.8702 B(  7-C ,  8-C ) :   1.3700 B(  7-C , 13-C ) :  -0.1300
B(  7-C , 16-H ) :   0.8585 B(  8-C ,  9-C ) :   1.2550 B(  8-C , 10-C ) :   0.1086
B(  8-C , 12-C ) :  -0.1207 B(  8-C , 13-C ) :   1.0432 B(  9-C , 10-C ) :   1.5610
B(  9-C , 17-H ) :   0.8700 B( 10-C , 11-N ) :   1.1942 B( 10-C , 18-H ) :   0.9271
B( 11-N , 12-C ) :   1.4820 B( 12-C , 13-C ) :   1.4073 B( 12-C , 19-H ) :   0.8769
B( 20-C , 21-C ) :   1.3566 B( 20-C , 23-C ) :   0.1074 B( 20-C , 25-C ) :   1.3309
B( 21-C , 22-C ) :   1.5977 B( 21-C , 26-H ) :   0.8800 B( 22-C , 23-C ) :   1.3766
B( 22-C , 27-H ) :   0.8535 B( 23-C , 24-C ) :   1.3313 B( 23-C , 30-C ) :   0.9262
B( 24-C , 25-C ) :   1.5837 B( 24-C , 28-H ) :   0.8626 B( 25-C , 29-H ) :   0.8980
B( 30-C , 31-C ) :   1.4470 B( 30-C , 35-C ) :   1.3258 B( 31-C , 32-C ) :   1.5212
B( 31-C , 36-H ) :   0.8761 B( 32-C , 33-C ) :   1.4401 B( 32-C , 37-H ) :   0.8649
B( 33-C , 34-N ) :   1.4036 B( 33-C , 38-H ) :   0.9078 B( 34-N , 35-C ) :   1.3376
B( 35-C , 39-H ) :   0.9314 B( 40-C , 41-C ) :   1.8643 B( 40-C , 42-C ) :  -0.2904
B( 40-C , 51-C ) :   0.1025 B( 40-C , 58-C ) :   1.6316 B( 40-C , 63-C ) :  -0.1062
B( 41-C , 42-C ) :   1.4716 B( 41-C , 43-C ) :  -0.1010 B( 41-C , 46-C ) :   0.1041
B( 41-C , 51-C ) :  -0.2434 B( 41-C , 58-C ) :  -0.4174 B( 42-C , 43-C ) :   1.5575
B( 42-C , 50-C ) :  -0.1101 B( 42-C , 51-C ) :   1.0223 B( 43-C , 44-C ) :   1.4178
B( 43-C , 52-H ) :   0.8514 B( 44-C , 45-C ) :   1.6275 B( 44-C , 53-H ) :   0.8702
B( 45-C , 46-C ) :   1.3699 B( 45-C , 51-C ) :  -0.1301 B( 45-C , 54-H ) :   0.8585
B( 46-C , 47-C ) :   1.2552 B( 46-C , 48-C ) :   0.1086 B( 46-C , 50-C ) :  -0.1207
B( 46-C , 51-C ) :   1.0430 B( 47-C , 48-C ) :   1.5609 B( 47-C , 55-H ) :   0.8700
B( 48-C , 49-N ) :   1.1943 B( 48-C , 56-H ) :   0.9271 B( 49-N , 50-C ) :   1.4816
B( 50-C , 51-C ) :   1.4072 B( 50-C , 57-H ) :   0.8774 B( 58-C , 59-C ) :   1.3293
B( 58-C , 61-C ) :   0.1076 B( 58-C , 63-C ) :   1.3558 B( 59-C , 60-C ) :   1.5838
B( 59-C , 64-H ) :   0.8988 B( 60-C , 61-C ) :   1.3319 B( 60-C , 65-H ) :   0.8622
B( 61-C , 62-C ) :   1.3770 B( 61-C , 68-C ) :   0.9259 B( 62-C , 63-C ) :   1.5982
B( 62-C , 66-H ) :   0.8532 B( 63-C , 67-H ) :   0.8803 B( 68-C , 69-C ) :   1.4467
B( 68-C , 73-C ) :   1.3261 B( 69-C , 70-C ) :   1.5212 B( 69-C , 74-H ) :   0.8762
B( 70-C , 71-C ) :   1.4403 B( 70-C , 75-H ) :   0.8648 B( 71-C , 72-N ) :   1.4032
B( 71-C , 76-H ) :   0.9079 B( 72-N , 73-C ) :   1.3377 B( 73-C , 77-H ) :   0.9313
B( 78-C , 79-C ) :   1.8632 B( 78-C , 80-C ) :  -0.2898 B( 78-C , 89-C ) :   0.1020
B( 78-C , 96-C ) :   1.6316 B( 78-C ,101-C ) :  -0.1072 B( 79-C , 80-C ) :   1.4736
B( 79-C , 81-C ) :  -0.1019 B( 79-C , 84-C ) :   0.1044 B( 79-C , 89-C ) :  -0.2444
B( 79-C , 96-C ) :  -0.4188 B( 80-C , 81-C ) :   1.5595 B( 80-C , 88-C ) :  -0.1094
B( 80-C , 89-C ) :   1.0235 B( 81-C , 82-C ) :   1.4175 B( 81-C , 90-H ) :   0.8511
B( 82-C , 83-C ) :   1.6276 B( 82-C , 91-H ) :   0.8702 B( 83-C , 84-C ) :   1.3701
B( 83-C , 89-C ) :  -0.1300 B( 83-C , 92-H ) :   0.8585 B( 84-C , 85-C ) :   1.2550
B( 84-C , 86-C ) :   0.1086 B( 84-C , 88-C ) :  -0.1206 B( 84-C , 89-C ) :   1.0432
B( 85-C , 86-C ) :   1.5614 B( 85-C , 93-H ) :   0.8700 B( 86-C , 87-N ) :   1.1940
B( 86-C , 94-H ) :   0.9270 B( 87-N , 88-C ) :   1.4820 B( 88-C , 89-C ) :   1.4062
B( 88-C , 95-H ) :   0.8774 B( 96-C , 97-C ) :   1.3309 B( 96-C , 99-C ) :   0.1073
B( 96-C ,101-C ) :   1.3566 B( 97-C , 98-C ) :   1.5839 B( 97-C ,102-H ) :   0.8979
B( 98-C , 99-C ) :   1.3311 B( 98-C ,103-H ) :   0.8626 B( 99-C ,100-C ) :   1.3765
B( 99-C ,106-C ) :   0.9260 B(100-C ,101-C ) :   1.5977 B(100-C ,104-H ) :   0.8535
B(101-C ,105-H ) :   0.8800 B(106-C ,107-C ) :   1.4472 B(106-C ,111-C ) :   1.3262
B(107-C ,108-C ) :   1.5210 B(107-C ,112-H ) :   0.8761 B(108-C ,109-C ) :   1.4402
B(108-C ,113-H ) :   0.8649 B(109-C ,110-N ) :   1.4035 B(109-C ,114-H ) :   0.9078
B(110-N ,111-C ) :   1.3376 B(111-C ,115-H ) :   0.9311 B(116-C ,117-C ) :   1.8642
B(116-C ,118-C ) :  -0.2904 B(116-C ,127-C ) :   0.1024 B(116-C ,134-C ) :   1.6323
B(116-C ,135-C ) :  -0.1063 B(117-C ,118-C ) :   1.4722 B(117-C ,119-C ) :  -0.1009
B(117-C ,122-C ) :   0.1041 B(117-C ,127-C ) :  -0.2436 B(117-C ,134-C ) :  -0.4176
B(118-C ,119-C ) :   1.5576 B(118-C ,126-C ) :  -0.1101 B(118-C ,127-C ) :   1.0223
B(119-C ,120-C ) :   1.4178 B(119-C ,128-H ) :   0.8514 B(120-C ,121-C ) :   1.6276
B(120-C ,129-H ) :   0.8702 B(121-C ,122-C ) :   1.3699 B(121-C ,127-C ) :  -0.1301
B(121-C ,130-H ) :   0.8586 B(122-C ,123-C ) :   1.2552 B(122-C ,124-C ) :   0.1086
B(122-C ,126-C ) :  -0.1207 B(122-C ,127-C ) :   1.0430 B(123-C ,124-C ) :   1.5613
B(123-C ,131-H ) :   0.8700 B(124-C ,125-N ) :   1.1942 B(124-C ,132-H ) :   0.9269
B(125-N ,126-C ) :   1.4819 B(126-C ,127-C ) :   1.4076 B(126-C ,133-H ) :   0.8771
B(134-C ,135-C ) :   1.3558 B(134-C ,137-C ) :   0.1077 B(134-C ,139-C ) :   1.3296
B(135-C ,136-C ) :   1.5977 B(135-C ,140-H ) :   0.8803 B(136-C ,137-C ) :   1.3769
B(136-C ,141-H ) :   0.8533 B(137-C ,138-C ) :   1.3319 B(137-C ,144-C ) :   0.9260
B(138-C ,139-C ) :   1.5834 B(138-C ,142-H ) :   0.8623 B(139-C ,143-H ) :   0.8989
B(144-C ,145-C ) :   1.4468 B(144-C ,149-C ) :   1.3269 B(145-C ,146-C ) :   1.5213
B(145-C ,150-H ) :   0.8762 B(146-C ,147-C ) :   1.4405 B(146-C ,151-H ) :   0.8648
B(147-C ,148-N ) :   1.4032 B(147-C ,152-H ) :   0.9078 B(148-N ,149-C ) :   1.3377
B(149-C ,153-H ) :   0.9310

Dispersion correction           -0.589439566
FINAL SINGLE POINT ENERGY     -4078.539031684153

DIPOLE MOMENT
-------------
                                X             Y             Z
Electronic contribution:      0.00585       0.03526       0.06787
Nuclear contribution   :     -0.00581      -0.03983      -0.06884
                        -----------------------------------------
Total Dipole Moment    :      0.00004      -0.00457      -0.00097
                        -----------------------------------------
Magnitude (a.u.)       :      0.00467
Magnitude (Debye)      :      0.01188

Rotational constants in cm-1:     0.000707     0.000355     0.000354
Rotational constants in MHz :    21.202377    10.655696    10.627341

                             ****ORCA TERMINATED NORMALLY****
TOTAL RUN TIME: 0 days 0 hours 8 minutes 56 seconds 975 msec
