                         Program Version 4.2.1 -  RELEASE  -
|  1> ! DFT SP RKS PBE0 def2-SVP D3BJ Grid6 NOFINALGRID SlowConv TightSCF printbasis
|  2>
|  3> %base "_s_4b3_a_PBE0"
|  4> %maxcore 3000
|  5> %scf
|  6>    MaxIter 2000
|  7> end
|  8> %pal
|  9>    nprocs 32
| 10> end
| 11>
| 12> * xyzfile 4 1 s_4b3_a.xyz
| 13>
| 14>                          ****END OF INPUT****

CARTESIAN COORDINATES (ANGSTROEM)
---------------------------------
  Pd    -0.119600    7.047600   -0.067900
  Pd     0.028400   -6.744600   -0.001000
  C      4.741200    2.952200    0.055800
  C      4.807400    4.129100    0.331400
  C      5.077500    5.462300    0.691200
  C      6.386500    5.797400    0.999400
  C      6.735500    7.095900    1.377700
  C      5.783400    8.081200    1.458200
  C      4.442800    7.786800    1.154300
  C      3.423500    8.762600    1.218800
  C      2.141900    8.425900    0.901100
  N      1.793300    7.168500    0.521500
  C      2.715400    6.226900    0.458900
  C      4.067400    6.467800    0.762200
  H      7.150100    5.037000    0.942900
  H      7.766100    7.317700    1.608500
  H      6.048200    9.084600    1.751900
  H      3.671100    9.769000    1.516300
  H      1.341400    9.163000    0.948000
  H      2.389000    5.236800    0.154800
  C      4.675800    1.569200   -0.200600
  C      3.568000    0.992600   -0.831200
  C      3.507900   -0.372300   -1.004600
  C      4.553900   -1.188400   -0.554800
  C      5.682900   -0.608700    0.033400
  C      5.741100    0.756400    0.209400
  H      2.761500    1.622100   -1.172000
  H      2.653400   -0.825400   -1.481600
  H      6.496800   -1.235700    0.364400
  H      6.603000    1.206000    0.678500
  C      4.412700   -2.587100   -0.636300
  C      4.228000   -3.782600   -0.651300
  C      3.830400   -5.132900   -0.603800
  C      4.705400   -6.224000   -0.682400
  C      4.183900   -7.503300   -0.593500
  C      2.817800   -7.680900   -0.419700
  N      1.987800   -6.638600   -0.344500
  C      2.469000   -5.400600   -0.439600
  H      5.764600   -6.062500   -0.809300
  H      4.831200   -8.363400   -0.652900
  H      2.370700   -8.666100   -0.337200
  H      1.758800   -4.575100   -0.378900
  C     -0.198400    2.911000    4.765900
  C     -0.494300    4.082600    4.836800
  C     -0.878300    5.407600    5.114300
  C     -1.201700    5.726800    6.423500
  C     -1.603400    7.016000    6.780500
  C     -1.691900    8.007900    5.836000
  C     -1.373300    7.729700    4.495400
  C     -1.445200    8.713000    3.484000
  C     -1.113400    8.392000    2.201900
  N     -0.712600    7.143400    1.845300
  C     -0.641600    6.195300    2.760000
  C     -0.957900    6.420200    4.111800
  H     -1.138800    4.961000    7.181300
  H     -1.845500    7.225400    7.811100
  H     -2.003300    9.004400    6.106800
  H     -1.759700    9.712700    3.737900
  H     -1.165800    9.135500    1.407600
  H     -0.320000    5.212700    2.427700
  C      0.082500    1.533000    4.694500
  C     -0.315300    0.708200    5.755200
  C     -0.114800   -0.653300    5.691300
  C      0.486000   -1.217200    4.561000
  C      0.923600   -0.388400    3.519700
  C      0.725700    0.972800    3.585500
  H     -0.794100    1.145400    6.618200
  H     -0.436300   -1.289800    6.501600
  H      1.410700   -0.829100    2.664500
  H      1.057000    1.612100    2.782800
  C      0.592400   -2.613500    4.412900
  C      0.628500   -3.807500    4.221300
  C      0.604200   -5.155400    3.813700
  C      0.702000   -6.251900    4.679900
  C      0.635000   -7.528300    4.148100
  C      0.463800   -7.697900    2.780500
  N      0.370400   -6.650500    1.958900
  C      0.444400   -5.415000    2.450200
  H      0.826400   -6.096800    5.740300
  H      0.709400   -8.392400    4.788400
  H      0.398100   -8.680900    2.325700
  H      0.369300   -4.584800    1.746700
  C     -4.882700    2.828300   -0.223800
  C     -4.969100    3.999800   -0.516000
  C     -5.264800    5.321900   -0.896200
  C     -6.574100    5.618200   -1.240400
  C     -6.949400    6.903800   -1.637100
  C     -6.023400    7.915000   -1.699500
  C     -4.683300    7.660000   -1.360100
  C     -3.690500    8.663600   -1.405600
  C     -2.407700    8.364100   -1.057100
  N     -2.032700    7.118300   -0.664500
  C     -2.929900    6.152200   -0.616200
  C     -4.281000    6.354300   -0.950500
  H     -7.317600    4.837200   -1.197300
  H     -7.979500    7.095100   -1.895800
  H     -6.308500    8.908900   -2.006200
  H     -3.959000    9.661500   -1.713700
  H     -1.627500    9.123500   -1.088900
  H     -2.583200    5.172900   -0.299600
  C     -4.794200    1.450400    0.053200
  C     -3.700200    0.908400    0.736300
  C     -3.616500   -0.452300    0.932200
  C     -4.624900   -1.298300    0.452500
  C     -5.741600   -0.753100   -0.189500
  C     -5.823300    0.607700   -0.387800
  H     -2.923000    1.561000    1.100700
  H     -2.772700   -0.879000    1.450700
  H     -6.526900   -1.403300   -0.543900
  H     -6.675400    1.030800   -0.897800
  C     -4.455300   -2.692400    0.557200
  C     -4.245400   -3.883300    0.591500
  C     -3.815000   -5.224200    0.564600
  C     -4.663800   -6.335500    0.645300
  C     -4.110100   -7.602400    0.575000
  C     -2.738300   -7.748000    0.416100
  N     -1.933300   -6.686500    0.339000
  C     -2.445800   -5.459800    0.417800
  H     -5.728000   -6.199000    0.759300
  H     -4.736700   -8.477600    0.636700
  H     -2.266600   -8.722800    0.347400
  H     -1.755400   -4.617600    0.357200
  C      0.104000    2.866900   -4.857900
  C      0.377700    4.043300   -4.937600
  C      0.736300    5.373400   -5.224600
  C      1.076000    5.684100   -6.531700
  C      1.451600    6.978600   -6.898100
  C      1.497100    7.984400   -5.965200
  C      1.161900    7.714800   -4.627000
  C      1.190900    8.712200   -3.627300
  C      0.847400    8.398100   -2.346500
  N      0.475300    7.143400   -1.980400
  C      0.442800    6.182900   -2.884200
  C      0.773600    6.399800   -4.233900
  H      1.045900    4.907600   -7.280600
  H      1.707200    7.181200   -7.926800
  H      1.787500    8.985200   -6.243500
  H      1.482600    9.716700   -3.888800
  H      0.866700    9.152200   -1.560800
  H      0.142400    5.196200   -2.544200
  C     -0.150900    1.484200   -4.777400
  C     -0.844400    0.927600   -3.697400
  C     -1.018900   -0.436500   -3.620800
  C     -0.507000   -1.271300   -4.622500
  C      0.145700   -0.712200   -5.726100
  C      0.322600    0.652000   -5.800600
  H     -1.233900    1.571800   -2.925200
  H     -1.545400   -0.874200   -2.787600
  H      0.525200   -1.354100   -6.506500
  H      0.840700    1.086100   -6.642200
  C     -0.590200   -2.667600   -4.459400
  C     -0.606000   -3.860000   -4.255600
  C     -0.558300   -5.203100   -3.834000
  C     -0.618300   -6.309500   -4.691000
  C     -0.527900   -7.579100   -4.146400
  C     -0.369600   -7.731900   -2.775400
  N     -0.312500   -6.675100   -1.962500
  C     -0.411100   -5.446200   -2.466100
  H     -0.731900   -6.167000   -5.754400
  H     -0.573400   -8.450500   -4.779400
  H     -0.285300   -8.708700   -2.310500
  H     -0.366800   -4.608200   -1.769400

 Total Charge           Charge          ....    4
 Multiplicity           Mult            ....    1
 Number of Electrons    NEL             ....  720
 Basis Dimension        Dim             .... 1798

ORBITAL ENERGIES
----------------

  NO   OCC          E(Eh)            E(eV)
   0   2.0000     -14.752025      -401.4230
   1   2.0000     -14.751945      -401.4208
   2   2.0000     -14.751917      -401.4201
   3   2.0000     -14.751878      -401.4190
   4   2.0000     -14.733092      -400.9078
   5   2.0000     -14.733009      -400.9056
   6   2.0000     -14.732974      -400.9046
   7   2.0000     -14.732919      -400.9031
   8   2.0000     -10.583814      -288.0002
   9   2.0000     -10.583760      -287.9987
  10   2.0000     -10.583702      -287.9972
  11   2.0000     -10.583654      -287.9959
  12   2.0000     -10.577306      -287.8231
  13   2.0000     -10.577235      -287.8212
  14   2.0000     -10.577182      -287.8198
  15   2.0000     -10.577127      -287.8182
  16   2.0000     -10.571696      -287.6705
  17   2.0000     -10.571644      -287.6691
  18   2.0000     -10.571603      -287.6679
  19   2.0000     -10.571540      -287.6662
  20   2.0000     -10.562149      -287.4107
  21   2.0000     -10.562113      -287.4097
  22   2.0000     -10.562026      -287.4073
  23   2.0000     -10.561984      -287.4062
  24   2.0000     -10.556221      -287.2494
  25   2.0000     -10.556154      -287.2476
  26   2.0000     -10.556129      -287.2469
  27   2.0000     -10.556086      -287.2457
  28   2.0000     -10.544670      -286.9350
  29   2.0000     -10.544620      -286.9337
  30   2.0000     -10.544533      -286.9313
  31   2.0000     -10.544475      -286.9298
  32   2.0000     -10.536518      -286.7132
  33   2.0000     -10.536476      -286.7121
  34   2.0000     -10.536401      -286.7101
  35   2.0000     -10.536355      -286.7088
  36   2.0000     -10.532382      -286.6007
  37   2.0000     -10.532375      -286.6005
  38   2.0000     -10.532303      -286.5985
  39   2.0000     -10.532266      -286.5975
  40   2.0000     -10.531878      -286.5870
  41   2.0000     -10.531852      -286.5863
  42   2.0000     -10.531795      -286.5847
  43   2.0000     -10.531750      -286.5835
  44   2.0000     -10.528956      -286.5075
  45   2.0000     -10.528949      -286.5073
  46   2.0000     -10.528855      -286.5047
  47   2.0000     -10.528822      -286.5038
  48   2.0000     -10.521855      -286.3142
  49   2.0000     -10.521807      -286.3129
  50   2.0000     -10.521750      -286.3114
  51   2.0000     -10.521717      -286.3105
  52   2.0000     -10.521461      -286.3035
  53   2.0000     -10.521401      -286.3019
  54   2.0000     -10.521386      -286.3015
  55   2.0000     -10.521362      -286.3008
  56   2.0000     -10.521104      -286.2938
  57   2.0000     -10.521018      -286.2915
  58   2.0000     -10.521016      -286.2914
  59   2.0000     -10.521014      -286.2914
  60   2.0000     -10.513275      -286.0808
  61   2.0000     -10.513264      -286.0805
  62   2.0000     -10.513167      -286.0778
  63   2.0000     -10.513154      -286.0775
  64   2.0000     -10.505534      -285.8701
  65   2.0000     -10.505514      -285.8696
  66   2.0000     -10.505430      -285.8673
  67   2.0000     -10.505414      -285.8668
  68   2.0000     -10.505207      -285.8612
  69   2.0000     -10.505199      -285.8610
  70   2.0000     -10.505119      -285.8588
  71   2.0000     -10.505079      -285.8577
  72   2.0000     -10.504619      -285.8452
  73   2.0000     -10.504520      -285.8425
  74   2.0000     -10.504432      -285.8401
  75   2.0000     -10.504389      -285.8390
  76   2.0000     -10.502811      -285.7960
  77   2.0000     -10.502718      -285.7935
  78   2.0000     -10.502648      -285.7916
  79   2.0000     -10.502626      -285.7910
  80   2.0000     -10.501301      -285.7549
  81   2.0000     -10.501287      -285.7545
  82   2.0000     -10.501201      -285.7522
  83   2.0000     -10.501160      -285.7511
  84   2.0000     -10.500598      -285.7358
  85   2.0000     -10.500592      -285.7356
  86   2.0000     -10.500503      -285.7332
  87   2.0000     -10.500469      -285.7323
  88   2.0000     -10.498802      -285.6869
  89   2.0000     -10.498766      -285.6859
  90   2.0000     -10.498731      -285.6850
  91   2.0000     -10.498684      -285.6837
  92   2.0000     -10.498490      -285.6784
  93   2.0000     -10.498468      -285.6778
  94   2.0000     -10.498424      -285.6766
  95   2.0000     -10.498389      -285.6757
  96   2.0000     -10.496559      -285.6259
  97   2.0000     -10.496558      -285.6259
  98   2.0000     -10.496528      -285.6250
  99   2.0000     -10.496472      -285.6235
 100   2.0000     -10.495697      -285.6024
 101   2.0000     -10.495632      -285.6007
 102   2.0000     -10.495607      -285.6000
 103   2.0000     -10.495577      -285.5992
 104   2.0000      -3.849471      -104.7494
 105   2.0000      -3.832532      -104.2885
 106   2.0000      -2.526854       -68.7592
 107   2.0000      -2.526846       -68.7590
 108   2.0000      -2.509611       -68.2900
 109   2.0000      -2.509585       -68.2893
 110   2.0000      -2.490025       -67.7570
 111   2.0000      -2.472999       -67.2937
 112   2.0000      -1.305448       -35.5230
 113   2.0000      -1.297853       -35.3164
 114   2.0000      -1.297847       -35.3162
 115   2.0000      -1.297056       -35.2947
 116   2.0000      -1.284716       -34.9589
 117   2.0000      -1.277360       -34.7587
 118   2.0000      -1.277331       -34.7580
 119   2.0000      -1.276265       -34.7289
 120   2.0000      -1.163812       -31.6689
 121   2.0000      -1.162721       -31.6392
 122   2.0000      -1.162664       -31.6377
 123   2.0000      -1.162616       -31.6364
 124   2.0000      -1.155049       -31.4305
 125   2.0000      -1.154950       -31.4278
 126   2.0000      -1.154909       -31.4267
 127   2.0000      -1.154894       -31.4263
 128   2.0000      -1.141210       -31.0539
 129   2.0000      -1.138945       -30.9923
 130   2.0000      -1.138490       -30.9799
 131   2.0000      -1.138476       -30.9795
 132   2.0000      -1.102839       -30.0098
 133   2.0000      -1.101229       -29.9660
 134   2.0000      -1.101219       -29.9657
 135   2.0000      -1.100561       -29.9478
 136   2.0000      -1.100525       -29.9468
 137   2.0000      -1.099458       -29.9178
 138   2.0000      -1.099450       -29.9175
 139   2.0000      -1.098402       -29.8890
 140   2.0000      -1.082640       -29.4601
 141   2.0000      -1.082334       -29.4518
 142   2.0000      -1.082302       -29.4509
 143   2.0000      -1.081919       -29.4405
 144   2.0000      -1.068738       -29.0818
 145   2.0000      -1.066187       -29.0124
 146   2.0000      -1.066175       -29.0121
 147   2.0000      -1.065987       -29.0070
 148   2.0000      -1.054413       -28.6920
 149   2.0000      -1.053551       -28.6686
 150   2.0000      -1.053533       -28.6681
 151   2.0000      -1.052413       -28.6376
 152   2.0000      -1.031120       -28.0582
 153   2.0000      -1.030966       -28.0540
 154   2.0000      -1.030925       -28.0529
 155   2.0000      -1.030806       -28.0497
 156   2.0000      -1.029867       -28.0241
 157   2.0000      -1.029375       -28.0107
 158   2.0000      -1.029342       -28.0098
 159   2.0000      -1.028508       -27.9871
 160   2.0000      -0.999726       -27.2039
 161   2.0000      -0.999210       -27.1899
 162   2.0000      -0.999191       -27.1894
 163   2.0000      -0.998392       -27.1676
 164   2.0000      -0.968166       -26.3451
 165   2.0000      -0.966883       -26.3102
 166   2.0000      -0.966869       -26.3098
 167   2.0000      -0.964127       -26.2352
 168   2.0000      -0.956421       -26.0255
 169   2.0000      -0.952841       -25.9281
 170   2.0000      -0.952840       -25.9281
 171   2.0000      -0.952813       -25.9274
 172   2.0000      -0.951747       -25.8984
 173   2.0000      -0.949208       -25.8293
 174   2.0000      -0.947971       -25.7956
 175   2.0000      -0.947961       -25.7953
 176   2.0000      -0.934573       -25.4310
 177   2.0000      -0.932199       -25.3664
 178   2.0000      -0.932189       -25.3661
 179   2.0000      -0.931803       -25.3556
 180   2.0000      -0.920600       -25.0508
 181   2.0000      -0.919225       -25.0134
 182   2.0000      -0.919176       -25.0121
 183   2.0000      -0.919126       -25.0107
 184   2.0000      -0.899927       -24.4882
 185   2.0000      -0.898413       -24.4470
 186   2.0000      -0.898379       -24.4461
 187   2.0000      -0.898320       -24.4445
 188   2.0000      -0.889880       -24.2149
 189   2.0000      -0.889789       -24.2124
 190   2.0000      -0.889755       -24.2115
 191   2.0000      -0.889709       -24.2102
 192   2.0000      -0.878838       -23.9144
 193   2.0000      -0.869109       -23.6497
 194   2.0000      -0.862002       -23.4563
 195   2.0000      -0.861991       -23.4560
 196   2.0000      -0.847593       -23.0642
 197   2.0000      -0.840261       -22.8647
 198   2.0000      -0.839398       -22.8412
 199   2.0000      -0.839378       -22.8406
 200   2.0000      -0.826459       -22.4891
 201   2.0000      -0.825501       -22.4630
 202   2.0000      -0.824472       -22.4350
 203   2.0000      -0.824447       -22.4343
 204   2.0000      -0.822933       -22.3932
 205   2.0000      -0.821716       -22.3600
 206   2.0000      -0.821706       -22.3598
 207   2.0000      -0.821068       -22.3424
 208   2.0000      -0.817872       -22.2554
 209   2.0000      -0.817817       -22.2539
 210   2.0000      -0.817784       -22.2530
 211   2.0000      -0.816146       -22.2085
 212   2.0000      -0.811884       -22.0925
 213   2.0000      -0.809464       -22.0266
 214   2.0000      -0.807227       -21.9658
 215   2.0000      -0.805626       -21.9222
 216   2.0000      -0.805611       -21.9218
 217   2.0000      -0.803328       -21.8597
 218   2.0000      -0.798549       -21.7296
 219   2.0000      -0.798543       -21.7295
 220   2.0000      -0.786748       -21.4085
 221   2.0000      -0.784579       -21.3495
 222   2.0000      -0.784548       -21.3486
 223   2.0000      -0.784037       -21.3347
 224   2.0000      -0.781575       -21.2677
 225   2.0000      -0.770393       -20.9634
 226   2.0000      -0.769425       -20.9371
 227   2.0000      -0.766313       -20.8524
 228   2.0000      -0.763118       -20.7655
 229   2.0000      -0.762745       -20.7553
 230   2.0000      -0.762727       -20.7549
 231   2.0000      -0.760316       -20.6892
 232   2.0000      -0.755769       -20.5655
 233   2.0000      -0.751225       -20.4419
 234   2.0000      -0.751219       -20.4417
 235   2.0000      -0.750273       -20.4160
 236   2.0000      -0.749824       -20.4038
 237   2.0000      -0.749346       -20.3907
 238   2.0000      -0.749317       -20.3899
 239   2.0000      -0.748090       -20.3566
 240   2.0000      -0.747285       -20.3347
 241   2.0000      -0.747248       -20.3336
 242   2.0000      -0.746959       -20.3258
 243   2.0000      -0.745951       -20.2984
 244   2.0000      -0.745940       -20.2981
 245   2.0000      -0.744438       -20.2572
 246   2.0000      -0.739640       -20.1266
 247   2.0000      -0.738233       -20.0883
 248   2.0000      -0.733699       -19.9650
 249   2.0000      -0.733640       -19.9634
 250   2.0000      -0.727084       -19.7850
 251   2.0000      -0.724310       -19.7095
 252   2.0000      -0.724256       -19.7080
 253   2.0000      -0.722900       -19.6711
 254   2.0000      -0.722893       -19.6709
 255   2.0000      -0.721516       -19.6334
 256   2.0000      -0.720121       -19.5955
 257   2.0000      -0.719550       -19.5799
 258   2.0000      -0.719524       -19.5792
 259   2.0000      -0.714645       -19.4465
 260   2.0000      -0.711154       -19.3515
 261   2.0000      -0.710876       -19.3439
 262   2.0000      -0.710819       -19.3424
 263   2.0000      -0.710697       -19.3390
 264   2.0000      -0.703134       -19.1332
 265   2.0000      -0.699733       -19.0407
 266   2.0000      -0.699583       -19.0366
 267   2.0000      -0.699526       -19.0351
 268   2.0000      -0.699426       -19.0324
 269   2.0000      -0.696260       -18.9462
 270   2.0000      -0.692557       -18.8454
 271   2.0000      -0.689961       -18.7748
 272   2.0000      -0.689954       -18.7746
 273   2.0000      -0.688603       -18.7378
 274   2.0000      -0.684395       -18.6233
 275   2.0000      -0.684381       -18.6230
 276   2.0000      -0.678516       -18.4634
 277   2.0000      -0.678510       -18.4632
 278   2.0000      -0.677263       -18.4293
 279   2.0000      -0.676296       -18.4029
 280   2.0000      -0.674703       -18.3596
 281   2.0000      -0.672627       -18.3031
 282   2.0000      -0.672473       -18.2989
 283   2.0000      -0.672415       -18.2973
 284   2.0000      -0.671028       -18.2596
 285   2.0000      -0.664018       -18.0688
 286   2.0000      -0.663108       -18.0441
 287   2.0000      -0.663066       -18.0429
 288   2.0000      -0.654097       -17.7989
 289   2.0000      -0.652384       -17.7523
 290   2.0000      -0.652363       -17.7517
 291   2.0000      -0.651377       -17.7249
 292   2.0000      -0.651172       -17.7193
 293   2.0000      -0.650853       -17.7106
 294   2.0000      -0.650828       -17.7099
 295   2.0000      -0.643728       -17.5167
 296   2.0000      -0.643712       -17.5163
 297   2.0000      -0.636971       -17.3329
 298   2.0000      -0.634796       -17.2737
 299   2.0000      -0.634632       -17.2692
 300   2.0000      -0.631611       -17.1870
 301   2.0000      -0.631580       -17.1862
 302   2.0000      -0.630793       -17.1647
 303   2.0000      -0.630380       -17.1535
 304   2.0000      -0.630373       -17.1533
 305   2.0000      -0.630288       -17.1510
 306   2.0000      -0.628033       -17.0897
 307   2.0000      -0.626257       -17.0413
 308   2.0000      -0.626031       -17.0352
 309   2.0000      -0.625981       -17.0338
 310   2.0000      -0.625664       -17.0252
 311   2.0000      -0.617527       -16.8038
 312   2.0000      -0.617515       -16.8034
 313   2.0000      -0.615415       -16.7463
 314   2.0000      -0.614449       -16.7200
 315   2.0000      -0.614435       -16.7196
 316   2.0000      -0.611460       -16.6387
 317   2.0000      -0.609766       -16.5926
 318   2.0000      -0.609759       -16.5924
 319   2.0000      -0.600577       -16.3425
 320   2.0000      -0.598880       -16.2964
 321   2.0000      -0.598858       -16.2958
 322   2.0000      -0.595414       -16.2020
 323   2.0000      -0.595407       -16.2019
 324   2.0000      -0.593744       -16.1566
 325   2.0000      -0.589428       -16.0392
 326   2.0000      -0.586920       -15.9709
 327   2.0000      -0.586859       -15.9692
 328   2.0000      -0.584079       -15.8936
 329   2.0000      -0.582697       -15.8560
 330   2.0000      -0.571207       -15.5433
 331   2.0000      -0.561098       -15.2682
 332   2.0000      -0.559139       -15.2149
 333   2.0000      -0.559127       -15.2146
 334   2.0000      -0.558357       -15.1937
 335   2.0000      -0.555186       -15.1074
 336   2.0000      -0.551946       -15.0192
 337   2.0000      -0.551930       -15.0188
 338   2.0000      -0.550806       -14.9882
 339   2.0000      -0.549425       -14.9506
 340   2.0000      -0.548877       -14.9357
 341   2.0000      -0.548856       -14.9351
 342   2.0000      -0.547726       -14.9044
 343   2.0000      -0.546206       -14.8630
 344   2.0000      -0.545280       -14.8378
 345   2.0000      -0.544961       -14.8291
 346   2.0000      -0.544836       -14.8257
 347   2.0000      -0.543273       -14.7832
 348   2.0000      -0.531901       -14.4738
 349   2.0000      -0.531840       -14.4721
 350   2.0000      -0.531802       -14.4711
 351   2.0000      -0.531747       -14.4696
 352   2.0000      -0.517762       -14.0890
 353   2.0000      -0.516390       -14.0517
 354   2.0000      -0.516335       -14.0502
 355   2.0000      -0.514483       -13.9998
 356   2.0000      -0.479652       -13.0520
 357   2.0000      -0.479173       -13.0389
 358   2.0000      -0.479162       -13.0387
 359   2.0000      -0.478180       -13.0119
 360   0.0000      -0.348687        -9.4883
 361   0.0000      -0.347727        -9.4621
 362   0.0000      -0.347663        -9.4604
 363   0.0000      -0.343567        -9.3489
 364   0.0000      -0.339395        -9.2354

MULLIKEN ATOMIC CHARGES
-----------------------
   0 Pd:    0.418787
   1 Pd:    0.425870
   2 C :    0.027072
   3 C :   -0.075448
   4 C :   -0.008377
   5 C :    0.022419
   6 C :    0.032874
   7 C :    0.018557
   8 C :    0.027784
   9 C :   -0.000184
  10 C :    0.115574
  11 N :   -0.312328
  12 C :    0.161783
  13 C :   -0.002639
  14 H :    0.051326
  15 H :    0.074973
  16 H :    0.052649
  17 H :    0.058781
  18 H :    0.070810
  19 H :    0.055189
  20 C :   -0.053149
  21 C :    0.018306
  22 C :    0.016569
  23 C :   -0.070915
  24 C :    0.040970
  25 C :    0.027832
  26 H :    0.011340
  27 H :    0.014779
  28 H :    0.049796
  29 H :    0.048281
  30 C :    0.042686
  31 C :   -0.015555
  32 C :   -0.105538
  33 C :    0.122400
  34 C :   -0.026933
  35 C :    0.133011
  36 N :   -0.300412
  37 C :    0.151292
  38 H :    0.079725
  39 H :    0.089615
  40 H :    0.091696
  41 H :    0.052096
  42 C :    0.027262
  43 C :   -0.075823
  44 C :   -0.008138
  45 C :    0.022233
  46 C :    0.032927
  47 C :    0.018548
  48 C :    0.027850
  49 C :   -0.000339
  50 C :    0.115857
  51 N :   -0.312135
  52 C :    0.162043
  53 C :   -0.002817
  54 H :    0.051334
  55 H :    0.074963
  56 H :    0.052683
  57 H :    0.058843
  58 H :    0.070246
  59 H :    0.055232
  60 C :   -0.053219
  61 C :    0.027671
  62 C :    0.040989
  63 C :   -0.070987
  64 C :    0.016819
  65 C :    0.018522
  66 H :    0.048311
  67 H :    0.049845
  68 H :    0.014556
  69 H :    0.011176
  70 C :    0.042893
  71 C :   -0.015682
  72 C :   -0.105411
  73 C :    0.122623
  74 C :   -0.026986
  75 C :    0.133047
  76 N :   -0.300112
  77 C :    0.150899
  78 H :    0.079742
  79 H :    0.089625
  80 H :    0.091728
  81 H :    0.052296
  82 C :    0.027406
  83 C :   -0.075988
  84 C :   -0.008278
  85 C :    0.022253
  86 C :    0.032888
  87 C :    0.018586
  88 C :    0.027764
  89 C :   -0.000483
  90 C :    0.116259
  91 N :   -0.312187
  92 C :    0.161632
  93 C :   -0.002554
  94 H :    0.051310
  95 H :    0.074964
  96 H :    0.052652
  97 H :    0.058866
  98 H :    0.070110
  99 H :    0.055348
 100 C :   -0.054025
 101 C :    0.018568
 102 C :    0.016866
 103 C :   -0.071567
 104 C :    0.040607
 105 C :    0.027449
 106 H :    0.011848
 107 H :    0.015542
 108 H :    0.049662
 109 H :    0.048157
 110 C :    0.043107
 111 C :   -0.015639
 112 C :   -0.105716
 113 C :    0.122685
 114 C :   -0.027061
 115 C :    0.133167
 116 N :   -0.300159
 117 C :    0.151025
 118 H :    0.079872
 119 H :    0.089722
 120 H :    0.091780
 121 H :    0.052453
 122 C :    0.027371
 123 C :   -0.075820
 124 C :   -0.008341
 125 C :    0.022253
 126 C :    0.032850
 127 C :    0.018387
 128 C :    0.027778
 129 C :   -0.000278
 130 C :    0.115957
 131 N :   -0.312405
 132 C :    0.161219
 133 C :   -0.002362
 134 H :    0.051395
 135 H :    0.074951
 136 H :    0.052669
 137 H :    0.058731
 138 H :    0.070840
 139 H :    0.055373
 140 C :   -0.054189
 141 C :    0.018346
 142 C :    0.016744
 143 C :   -0.071826
 144 C :    0.040497
 145 C :    0.027493
 146 H :    0.012340
 147 H :    0.016156
 148 H :    0.049495
 149 H :    0.048058
 150 C :    0.042978
 151 C :   -0.015363
 152 C :   -0.106167
 153 C :    0.122619
 154 C :   -0.026854
 155 C :    0.133100
 156 N :   -0.300382
 157 C :    0.151447
 158 H :    0.079834
 159 H :    0.089604
 160 H :    0.091788
 161 H :    0.052341
Sum of atomic charges:    4.0000000

LOEWDIN ATOMIC CHARGES
----------------------
   0 Pd:   -0.342400
   1 Pd:   -0.335311
   2 C :   -0.003588
   3 C :   -0.033834
   4 C :   -0.025929
   5 C :    0.036282
   6 C :    0.031138
   7 C :    0.010620
   8 C :    0.009193
   9 C :    0.015357
  10 C :    0.036855
  11 N :    0.059456
  12 C :    0.096162
  13 C :   -0.021589
  14 H :    0.056437
  15 H :    0.061116
  16 H :    0.054349
  17 H :    0.061244
  18 H :    0.052854
  19 H :    0.051383
  20 C :   -0.038034
  21 C :   -0.004968
  22 C :    0.000344
  23 C :   -0.051466
  24 C :    0.021799
  25 C :    0.019036
  26 H :    0.037109
  27 H :    0.037787
  28 H :    0.053745
  29 H :    0.052800
  30 C :    0.030684
  31 C :   -0.051506
  32 C :   -0.030886
  33 C :    0.070591
  34 C :    0.007753
  35 C :    0.071320
  36 N :    0.071336
  37 C :    0.076863
  38 H :    0.067313
  39 H :    0.068930
  40 H :    0.059522
  41 H :    0.051641
  42 C :   -0.003600
  43 C :   -0.033909
  44 C :   -0.025898
  45 C :    0.036284
  46 C :    0.031153
  47 C :    0.010659
  48 C :    0.009173
  49 C :    0.015415
  50 C :    0.036742
  51 N :    0.059540
  52 C :    0.096233
  53 C :   -0.021575
  54 H :    0.056444
  55 H :    0.061125
  56 H :    0.054365
  57 H :    0.061269
  58 H :    0.052811
  59 H :    0.051402
  60 C :   -0.038066
  61 C :    0.018991
  62 C :    0.021783
  63 C :   -0.051451
  64 C :    0.000396
  65 C :   -0.004972
  66 H :    0.052801
  67 H :    0.053766
  68 H :    0.037705
  69 H :    0.037060
  70 C :    0.030693
  71 C :   -0.051445
  72 C :   -0.030841
  73 C :    0.070634
  74 C :    0.007839
  75 C :    0.071381
  76 N :    0.071470
  77 C :    0.076868
  78 H :    0.067328
  79 H :    0.068925
  80 H :    0.059542
  81 H :    0.051665
  82 C :   -0.003695
  83 C :   -0.034094
  84 C :   -0.025929
  85 C :    0.036272
  86 C :    0.031147
  87 C :    0.010671
  88 C :    0.009171
  89 C :    0.015461
  90 C :    0.036790
  91 N :    0.059640
  92 C :    0.096163
  93 C :   -0.021611
  94 H :    0.056431
  95 H :    0.061118
  96 H :    0.054352
  97 H :    0.061283
  98 H :    0.052750
  99 H :    0.051439
 100 C :   -0.038396
 101 C :   -0.004781
 102 C :    0.000590
 103 C :   -0.051564
 104 C :    0.021422
 105 C :    0.018740
 106 H :    0.037329
 107 H :    0.038090
 108 H :    0.053656
 109 H :    0.052721
 110 C :    0.030647
 111 C :   -0.051441
 112 C :   -0.030844
 113 C :    0.070691
 114 C :    0.007837
 115 C :    0.071507
 116 N :    0.071415
 117 C :    0.077001
 118 H :    0.067388
 119 H :    0.068968
 120 H :    0.059564
 121 H :    0.051714
 122 C :   -0.003632
 123 C :   -0.034147
 124 C :   -0.025917
 125 C :    0.036219
 126 C :    0.031147
 127 C :    0.010570
 128 C :    0.009125
 129 C :    0.015469
 130 C :    0.036841
 131 N :    0.059590
 132 C :    0.096062
 133 C :   -0.021610
 134 H :    0.056470
 135 H :    0.061106
 136 H :    0.054358
 137 H :    0.061221
 138 H :    0.052811
 139 H :    0.051445
 140 C :   -0.038459
 141 C :   -0.004702
 142 C :    0.000599
 143 C :   -0.051629
 144 C :    0.021317
 145 C :    0.018705
 146 H :    0.037515
 147 H :    0.038337
 148 H :    0.053571
 149 H :    0.052678
 150 C :    0.030730
 151 C :   -0.051567
 152 C :   -0.030880
 153 C :    0.070728
 154 C :    0.007802
 155 C :    0.071486
 156 N :    0.071257
 157 C :    0.077018
 158 H :    0.067356
 159 H :    0.068915
 160 H :    0.059553
 161 H :    0.051722

  Mayer bond orders larger than 0.100000
B(  0-Pd, 11-N ) :   0.5414 B(  0-Pd, 51-N ) :   0.5415 B(  0-Pd, 91-N ) :   0.5412
B(  0-Pd,131-N ) :   0.5410 B(  1-Pd, 36-N ) :   0.5386 B(  1-Pd, 76-N ) :   0.5391
B(  1-Pd,116-N ) :   0.5391 B(  1-Pd,156-N ) :   0.5387 B(  2-C ,  3-C ) :   2.5890
B(  2-C , 20-C ) :   1.0197 B(  3-C ,  4-C ) :   1.0159 B(  4-C ,  5-C ) :   1.4542
B(  4-C , 13-C ) :   1.2045 B(  5-C ,  6-C ) :   1.2728 B(  5-C , 14-H ) :   0.9922
B(  6-C ,  7-C ) :   1.4476 B(  6-C , 15-H ) :   0.9820 B(  7-C ,  8-C ) :   1.2713
B(  7-C , 16-H ) :   0.9953 B(  8-C ,  9-C ) :   1.2482 B(  8-C , 13-C ) :   1.2154
B(  9-C , 10-C ) :   1.5618 B(  9-C , 17-H ) :   0.9735 B( 10-C , 11-N ) :   1.1865
B( 10-C , 18-H ) :   0.9372 B( 11-N , 12-C ) :   1.4272 B( 12-C , 13-C ) :   1.3228
B( 12-C , 19-H ) :   0.9445 B( 20-C , 21-C ) :   1.3165 B( 20-C , 25-C ) :   1.3227
B( 21-C , 22-C ) :   1.4036 B( 21-C , 26-H ) :   0.9953 B( 22-C , 23-C ) :   1.3196
B( 22-C , 27-H ) :   0.9931 B( 23-C , 24-C ) :   1.3154 B( 23-C , 30-C ) :   1.0298
B( 24-C , 25-C ) :   1.4046 B( 24-C , 28-H ) :   0.9953 B( 25-C , 29-H ) :   0.9934
B( 30-C , 31-C ) :   2.5814 B( 31-C , 32-C ) :   1.0293 B( 32-C , 33-C ) :   1.3295
B( 32-C , 37-C ) :   1.3903 B( 33-C , 34-C ) :   1.4008 B( 33-C , 38-H ) :   0.9871
B( 34-C , 35-C ) :   1.4171 B( 34-C , 39-H ) :   0.9713 B( 35-C , 36-N ) :   1.3265
B( 35-C , 40-H ) :   0.9568 B( 36-N , 37-C ) :   1.3202 B( 37-C , 41-H ) :   0.9537
B( 42-C , 43-C ) :   2.5893 B( 42-C , 60-C ) :   1.0197 B( 43-C , 44-C ) :   1.0160
B( 44-C , 45-C ) :   1.4544 B( 44-C , 53-C ) :   1.2043 B( 45-C , 46-C ) :   1.2729
B( 45-C , 54-H ) :   0.9921 B( 46-C , 47-C ) :   1.4476 B( 46-C , 55-H ) :   0.9820
B( 47-C , 48-C ) :   1.2714 B( 47-C , 56-H ) :   0.9953 B( 48-C , 49-C ) :   1.2484
B( 48-C , 53-C ) :   1.2154 B( 49-C , 50-C ) :   1.5621 B( 49-C , 57-H ) :   0.9734
B( 50-C , 51-N ) :   1.1863 B( 50-C , 58-H ) :   0.9372 B( 51-N , 52-C ) :   1.4276
B( 52-C , 53-C ) :   1.3228 B( 52-C , 59-H ) :   0.9446 B( 60-C , 61-C ) :   1.3227
B( 60-C , 65-C ) :   1.3165 B( 61-C , 62-C ) :   1.4045 B( 61-C , 66-H ) :   0.9934
B( 62-C , 63-C ) :   1.3155 B( 62-C , 67-H ) :   0.9953 B( 63-C , 64-C ) :   1.3196
B( 63-C , 70-C ) :   1.0299 B( 64-C , 65-C ) :   1.4037 B( 64-C , 68-H ) :   0.9930
B( 65-C , 69-H ) :   0.9953 B( 70-C , 71-C ) :   2.5813 B( 71-C , 72-C ) :   1.0297
B( 72-C , 73-C ) :   1.3294 B( 72-C , 77-C ) :   1.3904 B( 73-C , 74-C ) :   1.4008
B( 73-C , 78-H ) :   0.9871 B( 74-C , 75-C ) :   1.4171 B( 74-C , 79-H ) :   0.9712
B( 75-C , 76-N ) :   1.3267 B( 75-C , 80-H ) :   0.9568 B( 76-N , 77-C ) :   1.3200
B( 77-C , 81-H ) :   0.9536 B( 82-C , 83-C ) :   2.5892 B( 82-C ,100-C ) :   1.0194
B( 83-C , 84-C ) :   1.0159 B( 84-C , 85-C ) :   1.4546 B( 84-C , 93-C ) :   1.2044
B( 85-C , 86-C ) :   1.2729 B( 85-C , 94-H ) :   0.9921 B( 86-C , 87-C ) :   1.4476
B( 86-C , 95-H ) :   0.9820 B( 87-C , 88-C ) :   1.2714 B( 87-C , 96-H ) :   0.9953
B( 88-C , 89-C ) :   1.2485 B( 88-C , 93-C ) :   1.2154 B( 89-C , 90-C ) :   1.5623
B( 89-C , 97-H ) :   0.9734 B( 90-C , 91-N ) :   1.1863 B( 90-C , 98-H ) :   0.9372
B( 91-N , 92-C ) :   1.4278 B( 92-C , 93-C ) :   1.3225 B( 92-C , 99-H ) :   0.9446
B(100-C ,101-C ) :   1.3166 B(100-C ,105-C ) :   1.3228 B(101-C ,102-C ) :   1.4034
B(101-C ,106-H ) :   0.9954 B(102-C ,103-C ) :   1.3197 B(102-C ,107-H ) :   0.9932
B(103-C ,104-C ) :   1.3159 B(103-C ,110-C ) :   1.0294 B(104-C ,105-C ) :   1.4046
B(104-C ,108-H ) :   0.9953 B(105-C ,109-H ) :   0.9934 B(110-C ,111-C ) :   2.5819
B(111-C ,112-C ) :   1.0295 B(112-C ,113-C ) :   1.3296 B(112-C ,117-C ) :   1.3908
B(113-C ,114-C ) :   1.4007 B(113-C ,118-H ) :   0.9871 B(114-C ,115-C ) :   1.4172
B(114-C ,119-H ) :   0.9712 B(115-C ,116-N ) :   1.3268 B(115-C ,120-H ) :   0.9568
B(116-N ,117-C ) :   1.3197 B(117-C ,121-H ) :   0.9536 B(122-C ,123-C ) :   2.5895
B(122-C ,140-C ) :   1.0191 B(123-C ,124-C ) :   1.0155 B(124-C ,125-C ) :   1.4546
B(124-C ,133-C ) :   1.2046 B(125-C ,126-C ) :   1.2728 B(125-C ,134-H ) :   0.9921
B(126-C ,127-C ) :   1.4476 B(126-C ,135-H ) :   0.9820 B(127-C ,128-C ) :   1.2715
B(127-C ,136-H ) :   0.9953 B(128-C ,129-C ) :   1.2484 B(128-C ,133-C ) :   1.2154
B(129-C ,130-C ) :   1.5620 B(129-C ,137-H ) :   0.9735 B(130-C ,131-N ) :   1.1864
B(130-C ,138-H ) :   0.9370 B(131-N ,132-C ) :   1.4277 B(132-C ,133-C ) :   1.3224
B(132-C ,139-H ) :   0.9445 B(140-C ,141-C ) :   1.3167 B(140-C ,145-C ) :   1.3230
B(141-C ,142-C ) :   1.4031 B(141-C ,146-H ) :   0.9955 B(142-C ,143-C ) :   1.3198
B(142-C ,147-H ) :   0.9933 B(143-C ,144-C ) :   1.3161 B(143-C ,150-C ) :   1.0292
B(144-C ,145-C ) :   1.4046 B(144-C ,148-H ) :   0.9953 B(145-C ,149-H ) :   0.9934
B(150-C ,151-C ) :   2.5820 B(151-C ,152-C ) :   1.0291 B(152-C ,153-C ) :   1.3300
B(152-C ,157-C ) :   1.3909 B(153-C ,154-C ) :   1.4004 B(153-C ,158-H ) :   0.9871
B(154-C ,155-C ) :   1.4173 B(154-C ,159-H ) :   0.9713 B(155-C ,156-N ) :   1.3266
B(155-C ,160-H ) :   0.9568 B(156-N ,157-C ) :   1.3200 B(157-C ,161-H ) :   0.9537

Dispersion correction           -0.254833181
FINAL SINGLE POINT ENERGY     -4376.847052208293

DIPOLE MOMENT
-------------
                                X             Y             Z
Electronic contribution:      0.20085    -138.90876       2.13952
Nuclear contribution   :     -0.13764     135.95949      -2.12560
                        -----------------------------------------
Total Dipole Moment    :      0.06321      -2.94927       0.01392
                        -----------------------------------------
Magnitude (a.u.)       :      2.94998
Magnitude (Debye)      :      7.49824

Rotational constants in cm-1:     0.000629     0.000263     0.000263
Rotational constants in MHz :    18.855025     7.884154     7.877964

                             ****ORCA TERMINATED NORMALLY****
TOTAL RUN TIME: 0 days 0 hours 14 minutes 40 seconds 412 msec
