                         Program Version 4.2.1 -  RELEASE  -
|  1> ! DFT SP B97-3c TightSCF printbasis  Grid6 NOFINALGRID SlowConv
|  2>
|  3> %base "_s_4b3_b_B97-3c"
|  4> %maxcore 3000
|  5> %scf
|  6>    MaxIter 2000
|  7> end
|  8> %pal
|  9>    nprocs 32
| 10> end
| 11>
| 12> * xyzfile 4 1 s_4b3_b.xyz
| 13>
| 14>                          ****END OF INPUT****

CARTESIAN COORDINATES (ANGSTROEM)
---------------------------------
  Pd    -0.781200    6.460500    0.771100
  Pd     2.971300   -6.917600   -0.294200
  C      6.599600   -2.427600    1.250800
  C      7.099200   -3.528200    1.191900
  C      7.713100   -4.793100    1.134800
  C      9.059700   -4.929500    1.419900
  C      9.682100   -6.181500    1.373600
  C      8.977000   -7.312400    1.043400
  C      7.605900   -7.222600    0.741100
  C      6.820600   -8.344700    0.389800
  C      5.495200   -8.185700    0.103100
  N      4.896000   -6.969900    0.141800
  C      5.593100   -5.900300    0.467200
  C      6.958900   -5.953500    0.783200
  H      9.636900   -4.056900    1.684900
  H     10.734300   -6.251000    1.603700
  H      9.462100   -8.275300    1.011000
  H      7.279500   -9.319700    0.351000
  H      4.857000   -9.025500   -0.170900
  H      5.070200   -4.946100    0.482500
  C      6.006100   -1.151400    1.302500
  C      4.612900   -1.021600    1.347400
  C      4.032300    0.226200    1.378700
  C      4.833500    1.374000    1.366000
  C      6.226900    1.246200    1.334400
  C      6.806900   -0.003300    1.302900
  H      4.000400   -1.909300    1.363300
  H      2.959000    0.330500    1.414900
  H      6.845200    2.131000    1.330700
  H      7.881300   -0.104100    1.274300
  C      4.237800    2.649500    1.381200
  C      3.701100    3.733200    1.385100
  C      3.108000    5.009800    1.397400
  C      3.869300    6.160300    1.651200
  C      3.243000    7.392800    1.656300
  C      1.880200    7.462200    1.406500
  N      1.159300    6.366500    1.161100
  C      1.740100    5.166600    1.155200
  H      4.927900    6.074000    1.840700
  H      3.801400    8.294100    1.850900
  H      1.351300    8.410800    1.401900
  H      1.095900    4.310300    0.951400
  C     -1.218100    1.759000    4.973700
  C     -1.584200    2.891200    5.193600
  C     -1.980300    4.174200    5.617600
  C     -2.499900    4.322800    6.892100
  C     -2.830800    5.583800    7.396200
  C     -2.633800    6.715400    6.644400
  C     -2.124400    6.609700    5.338200
  C     -1.893000    7.737600    4.518600
  C     -1.430700    7.567900    3.247700
  N     -1.204300    6.336600    2.717900
  C     -1.376300    5.262700    3.461700
  C     -1.814200    5.328200    4.795900
  H     -2.635900    3.449200    7.511100
  H     -3.230900    5.661100    8.395500
  H     -2.866100    7.690800    7.041800
  H     -2.086500    8.724100    4.908600
  H     -1.221900    8.421200    2.600100
  H     -1.174900    4.301200    2.999200
  C     -0.762100    0.446100    4.740500
  C      0.479200    0.227500    4.132400
  C      0.937400   -1.057100    3.941500
  C      0.162100   -2.149100    4.349900
  C     -1.074700   -1.930600    4.966100
  C     -1.531800   -0.645000    5.159700
  H      1.079100    1.072900    3.833800
  H      1.900900   -1.230600    3.488000
  H     -1.669100   -2.772900    5.285900
  H     -2.485100   -0.472700    5.635700
  C      0.616100   -3.458100    4.096700
  C      0.999300   -4.574800    3.834000
  C      1.420900   -5.839700    3.380500
  C      1.121100   -7.038100    4.043400
  C      1.518100   -8.234500    3.473300
  C      2.171200   -8.227400    2.247800
  N      2.459500   -7.085400    1.622500
  C      2.122200   -5.919900    2.175400
  H      0.584900   -7.018600    4.979400
  H      1.307800   -9.171800    3.962600
  H      2.472500   -9.143900    1.752200
  H      2.410100   -5.013300    1.639700
  C     -4.341700    1.751000   -0.505800
  C     -4.819900    2.861900   -0.462500
  C     -5.470300    4.108600   -0.434300
  C     -6.829800    4.167900   -0.688200
  C     -7.517300    5.385100   -0.667200
  C     -6.862200    6.559900   -0.393700
  C     -5.480100    6.548900   -0.132100
  C     -4.748900    7.722800    0.154300
  C     -3.408800    7.645900    0.397600
  N     -2.737000    6.469600    0.373400
  C     -3.384800    5.349900    0.110500
  C     -4.763700    5.316400   -0.150700
  H     -7.366800    3.256900   -0.903900
  H     -8.577400    5.392200   -0.869300
  H     -7.393500    7.498400   -0.376700
  H     -5.258400    8.672700    0.178100
  H     -2.823800    8.532900    0.621700
  H     -2.801900    4.430400    0.100100
  C     -3.799200    0.453800   -0.572200
  C     -4.585400   -0.594200   -1.068400
  C     -4.070700   -1.869200   -1.151100
  C     -2.757500   -2.121400   -0.739100
  C     -1.974100   -1.075500   -0.234900
  C     -2.488800    0.198500   -0.151900
  H     -5.596900   -0.394500   -1.388300
  H     -4.675900   -2.675900   -1.536200
  H     -0.966200   -1.281200    0.087000
  H     -1.890100    1.005300    0.239600
  C     -2.206400   -3.412800   -0.831400
  C     -1.703500   -4.510000   -0.908600
  C     -1.037600   -5.747400   -0.973900
  C     -1.679800   -6.948800   -1.303100
  C     -0.938500   -8.117000   -1.337200
  C      0.416700   -8.075600   -1.045500
  N      1.025600   -6.927300   -0.734000
  C      0.331400   -5.792900   -0.697500
  H     -2.735800   -6.954200   -1.524000
  H     -1.405200   -9.056200   -1.586800
  H      1.038800   -8.967100   -1.057600
  H      0.872400   -4.884600   -0.442200
  C      0.885800    3.056700   -4.335400
  C      0.589900    4.230100   -4.363600
  C      0.341900    5.602100   -4.551600
  C      0.438400    6.120700   -5.832700
  C      0.274300    7.486400   -6.077000
  C      0.028600    8.359200   -5.046100
  C     -0.088300    7.876000   -3.731200
  C     -0.326500    8.728300   -2.629300
  C     -0.453900    8.199800   -1.379700
  N     -0.387100    6.861700   -1.147800
  C     -0.140500    6.037500   -2.146200
  C      0.042900    6.480900   -3.467600
  H      0.656400    5.455800   -6.654300
  H      0.357000    7.853100   -7.088600
  H     -0.076500    9.416800   -5.229900
  H     -0.403600    9.791800   -2.789700
  H     -0.615500    8.837600   -0.508600
  H     -0.089400    4.978500   -1.913800
  C      1.264200    1.701100   -4.302200
  C      1.563100    1.070100   -3.089300
  C      1.965400   -0.245600   -3.078500
  C      2.075000   -0.962200   -4.277400
  C      1.775200   -0.333300   -5.490300
  C      1.374700    0.985300   -5.501400
  H      1.485900    1.626500   -2.169400
  H      2.204400   -0.737500   -2.149800
  H      1.860200   -0.883300   -6.415300
  H      1.145200    1.474400   -6.436000
  C      2.467400   -2.312700   -4.223900
  C      2.787100   -3.474200   -4.114200
  C      3.075100   -4.829000   -3.864800
  C      3.215600   -5.792000   -4.874100
  C      3.423600   -7.111600   -4.514300
  C      3.459700   -7.459000   -3.170300
  N      3.336100   -6.539100   -2.212600
  C      3.172200   -5.256800   -2.537900
  H      3.153900   -5.501400   -5.911300
  H      3.539400   -7.873900   -5.267700
  H      3.590900   -8.485900   -2.846500
  H      3.111600   -4.537200   -1.719200

 Total Charge           Charge          ....    4
 Multiplicity           Mult            ....    1
 Number of Electrons    NEL             ....  720
 Basis Dimension        Dim             .... 2210

ORBITAL ENERGIES
----------------

  NO   OCC          E(Eh)            E(eV)
   0   2.0000     -14.335339      -390.0844
   1   2.0000     -14.335230      -390.0814
   2   2.0000     -14.334377      -390.0582
   3   2.0000     -14.334337      -390.0571
   4   2.0000     -14.325672      -389.8214
   5   2.0000     -14.322898      -389.7459
   6   2.0000     -14.322312      -389.7299
   7   2.0000     -14.321499      -389.7078
   8   2.0000     -10.232186      -278.4319
   9   2.0000     -10.231695      -278.4186
  10   2.0000     -10.231022      -278.4003
  11   2.0000     -10.230011      -278.3728
  12   2.0000     -10.225901      -278.2609
  13   2.0000     -10.225285      -278.2441
  14   2.0000     -10.224397      -278.2200
  15   2.0000     -10.223355      -278.1916
  16   2.0000     -10.222855      -278.1780
  17   2.0000     -10.222786      -278.1762
  18   2.0000     -10.222176      -278.1596
  19   2.0000     -10.221135      -278.1312
  20   2.0000     -10.214859      -277.9604
  21   2.0000     -10.214768      -277.9580
  22   2.0000     -10.214451      -277.9493
  23   2.0000     -10.212650      -277.9003
  24   2.0000     -10.210803      -277.8501
  25   2.0000     -10.210782      -277.8495
  26   2.0000     -10.210496      -277.8417
  27   2.0000     -10.208738      -277.7939
  28   2.0000     -10.195702      -277.4391
  29   2.0000     -10.195432      -277.4318
  30   2.0000     -10.194699      -277.4119
  31   2.0000     -10.193323      -277.3744
  32   2.0000     -10.189665      -277.2749
  33   2.0000     -10.189126      -277.2602
  34   2.0000     -10.188856      -277.2529
  35   2.0000     -10.188655      -277.2474
  36   2.0000     -10.188556      -277.2447
  37   2.0000     -10.188372      -277.2397
  38   2.0000     -10.188358      -277.2393
  39   2.0000     -10.188187      -277.2347
  40   2.0000     -10.188165      -277.2341
  41   2.0000     -10.188055      -277.2311
  42   2.0000     -10.187657      -277.2203
  43   2.0000     -10.187296      -277.2104
  44   2.0000     -10.184937      -277.1462
  45   2.0000     -10.184842      -277.1436
  46   2.0000     -10.184250      -277.1275
  47   2.0000     -10.184139      -277.1245
  48   2.0000     -10.181946      -277.0648
  49   2.0000     -10.181630      -277.0562
  50   2.0000     -10.179451      -276.9969
  51   2.0000     -10.179005      -276.9848
  52   2.0000     -10.178953      -276.9834
  53   2.0000     -10.178575      -276.9731
  54   2.0000     -10.178456      -276.9699
  55   2.0000     -10.178285      -276.9652
  56   2.0000     -10.177782      -276.9515
  57   2.0000     -10.177208      -276.9359
  58   2.0000     -10.177152      -276.9344
  59   2.0000     -10.176896      -276.9274
  60   2.0000     -10.168681      -276.7039
  61   2.0000     -10.167779      -276.6793
  62   2.0000     -10.167276      -276.6657
  63   2.0000     -10.166091      -276.6334
  64   2.0000     -10.165286      -276.6115
  65   2.0000     -10.164840      -276.5994
  66   2.0000     -10.162736      -276.5421
  67   2.0000     -10.162008      -276.5223
  68   2.0000     -10.161361      -276.5047
  69   2.0000     -10.161315      -276.5034
  70   2.0000     -10.161305      -276.5032
  71   2.0000     -10.161219      -276.5008
  72   2.0000     -10.161038      -276.4959
  73   2.0000     -10.160708      -276.4869
  74   2.0000     -10.160617      -276.4845
  75   2.0000     -10.160579      -276.4834
  76   2.0000     -10.160041      -276.4688
  77   2.0000     -10.159477      -276.4534
  78   2.0000     -10.158825      -276.4357
  79   2.0000     -10.158461      -276.4258
  80   2.0000     -10.158236      -276.4197
  81   2.0000     -10.157347      -276.3955
  82   2.0000     -10.156873      -276.3826
  83   2.0000     -10.156860      -276.3822
  84   2.0000     -10.156850      -276.3819
  85   2.0000     -10.156701      -276.3779
  86   2.0000     -10.156372      -276.3689
  87   2.0000     -10.156335      -276.3679
  88   2.0000     -10.156301      -276.3670
  89   2.0000     -10.156202      -276.3643
  90   2.0000     -10.156011      -276.3591
  91   2.0000     -10.155695      -276.3505
  92   2.0000     -10.155624      -276.3486
  93   2.0000     -10.154376      -276.3146
  94   2.0000     -10.154359      -276.3142
  95   2.0000     -10.154320      -276.3131
  96   2.0000     -10.153777      -276.2983
  97   2.0000     -10.153766      -276.2980
  98   2.0000     -10.153468      -276.2899
  99   2.0000     -10.153358      -276.2869
 100   2.0000     -10.152150      -276.2541
 101   2.0000     -10.151959      -276.2488
 102   2.0000     -10.151792      -276.2443
 103   2.0000     -10.150707      -276.2148
 104   2.0000      -3.643723       -99.1507
 105   2.0000      -3.636674       -98.9589
 106   2.0000      -2.374468       -64.6126
 107   2.0000      -2.374054       -64.6013
 108   2.0000      -2.367493       -64.4228
 109   2.0000      -2.366703       -64.4013
 110   2.0000      -2.332054       -63.4584
 111   2.0000      -2.324989       -63.2662
 112   2.0000      -1.199626       -32.6435
 113   2.0000      -1.194165       -32.4949
 114   2.0000      -1.193076       -32.4652
 115   2.0000      -1.192046       -32.4372
 116   2.0000      -1.183124       -32.1944
 117   2.0000      -1.182891       -32.1881
 118   2.0000      -1.178985       -32.0818
 119   2.0000      -1.178035       -32.0560
 120   2.0000      -1.068881       -29.0857
 121   2.0000      -1.068771       -29.0827
 122   2.0000      -1.068017       -29.0622
 123   2.0000      -1.067742       -29.0547
 124   2.0000      -1.064574       -28.9685
 125   2.0000      -1.061783       -28.8926
 126   2.0000      -1.061666       -28.8894
 127   2.0000      -1.059857       -28.8402
 128   2.0000      -1.046619       -28.4799
 129   2.0000      -1.045252       -28.4427
 130   2.0000      -1.045247       -28.4426
 131   2.0000      -1.043342       -28.3908
 132   2.0000      -1.012536       -27.5525
 133   2.0000      -1.012005       -27.5381
 134   2.0000      -1.011461       -27.5232
 135   2.0000      -1.011095       -27.5133
 136   2.0000      -1.010499       -27.4971
 137   2.0000      -1.008870       -27.4527
 138   2.0000      -1.008493       -27.4425
 139   2.0000      -1.007331       -27.4109
 140   2.0000      -0.997109       -27.1327
 141   2.0000      -0.995536       -27.0899
 142   2.0000      -0.995087       -27.0777
 143   2.0000      -0.993643       -27.0384
 144   2.0000      -0.981169       -26.6990
 145   2.0000      -0.980455       -26.6795
 146   2.0000      -0.979531       -26.6544
 147   2.0000      -0.978995       -26.6398
 148   2.0000      -0.969166       -26.3723
 149   2.0000      -0.968937       -26.3661
 150   2.0000      -0.968256       -26.3476
 151   2.0000      -0.967315       -26.3220
 152   2.0000      -0.951778       -25.8992
 153   2.0000      -0.948461       -25.8089
 154   2.0000      -0.948209       -25.8021
 155   2.0000      -0.947426       -25.7808
 156   2.0000      -0.946647       -25.7596
 157   2.0000      -0.946424       -25.7535
 158   2.0000      -0.945874       -25.7385
 159   2.0000      -0.944395       -25.6983
 160   2.0000      -0.919789       -25.0287
 161   2.0000      -0.918920       -25.0051
 162   2.0000      -0.918245       -24.9867
 163   2.0000      -0.917035       -24.9538
 164   2.0000      -0.888651       -24.1814
 165   2.0000      -0.887681       -24.1550
 166   2.0000      -0.886896       -24.1337
 167   2.0000      -0.884995       -24.0819
 168   2.0000      -0.878323       -23.9004
 169   2.0000      -0.877011       -23.8647
 170   2.0000      -0.876159       -23.8415
 171   2.0000      -0.874329       -23.7917
 172   2.0000      -0.872107       -23.7312
 173   2.0000      -0.870106       -23.6768
 174   2.0000      -0.869607       -23.6632
 175   2.0000      -0.867896       -23.6167
 176   2.0000      -0.857943       -23.3458
 177   2.0000      -0.856769       -23.3139
 178   2.0000      -0.855848       -23.2888
 179   2.0000      -0.855319       -23.2744
 180   2.0000      -0.846565       -23.0362
 181   2.0000      -0.845430       -23.0053
 182   2.0000      -0.844641       -22.9838
 183   2.0000      -0.843758       -22.9598
 184   2.0000      -0.826314       -22.4851
 185   2.0000      -0.825478       -22.4624
 186   2.0000      -0.824696       -22.4411
 187   2.0000      -0.824021       -22.4228
 188   2.0000      -0.821719       -22.3601
 189   2.0000      -0.818495       -22.2724
 190   2.0000      -0.818329       -22.2679
 191   2.0000      -0.816585       -22.2204
 192   2.0000      -0.799566       -21.7573
 193   2.0000      -0.793619       -21.5955
 194   2.0000      -0.792297       -21.5595
 195   2.0000      -0.786432       -21.3999
 196   2.0000      -0.774273       -21.0690
 197   2.0000      -0.771819       -21.0023
 198   2.0000      -0.769611       -20.9422
 199   2.0000      -0.768759       -20.9190
 200   2.0000      -0.758313       -20.6347
 201   2.0000      -0.757352       -20.6086
 202   2.0000      -0.755356       -20.5543
 203   2.0000      -0.754513       -20.5313
 204   2.0000      -0.753945       -20.5159
 205   2.0000      -0.752820       -20.4853
 206   2.0000      -0.752717       -20.4825
 207   2.0000      -0.750757       -20.4291
 208   2.0000      -0.747696       -20.3458
 209   2.0000      -0.746904       -20.3243
 210   2.0000      -0.746206       -20.3053
 211   2.0000      -0.745407       -20.2836
 212   2.0000      -0.743482       -20.2312
 213   2.0000      -0.741221       -20.1697
 214   2.0000      -0.739968       -20.1356
 215   2.0000      -0.738663       -20.1000
 216   2.0000      -0.737467       -20.0675
 217   2.0000      -0.737347       -20.0642
 218   2.0000      -0.735701       -20.0194
 219   2.0000      -0.732417       -19.9301
 220   2.0000      -0.722158       -19.6509
 221   2.0000      -0.721185       -19.6244
 222   2.0000      -0.719830       -19.5876
 223   2.0000      -0.718769       -19.5587
 224   2.0000      -0.706690       -19.2300
 225   2.0000      -0.704288       -19.1646
 226   2.0000      -0.702306       -19.1107
 227   2.0000      -0.700737       -19.0680
 228   2.0000      -0.700013       -19.0483
 229   2.0000      -0.699144       -19.0247
 230   2.0000      -0.696386       -18.9496
 231   2.0000      -0.693049       -18.8588
 232   2.0000      -0.690652       -18.7936
 233   2.0000      -0.688848       -18.7445
 234   2.0000      -0.687712       -18.7136
 235   2.0000      -0.686269       -18.6743
 236   2.0000      -0.685182       -18.6448
 237   2.0000      -0.685109       -18.6428
 238   2.0000      -0.684196       -18.6179
 239   2.0000      -0.683935       -18.6108
 240   2.0000      -0.683017       -18.5858
 241   2.0000      -0.682926       -18.5834
 242   2.0000      -0.681275       -18.5384
 243   2.0000      -0.681129       -18.5345
 244   2.0000      -0.680568       -18.5192
 245   2.0000      -0.676397       -18.4057
 246   2.0000      -0.674469       -18.3532
 247   2.0000      -0.674012       -18.3408
 248   2.0000      -0.672138       -18.2898
 249   2.0000      -0.668984       -18.2040
 250   2.0000      -0.662605       -18.0304
 251   2.0000      -0.661932       -18.0121
 252   2.0000      -0.659949       -17.9581
 253   2.0000      -0.659195       -17.9376
 254   2.0000      -0.658542       -17.9198
 255   2.0000      -0.657969       -17.9042
 256   2.0000      -0.657730       -17.8977
 257   2.0000      -0.656436       -17.8625
 258   2.0000      -0.656202       -17.8562
 259   2.0000      -0.655257       -17.8304
 260   2.0000      -0.653324       -17.7778
 261   2.0000      -0.652916       -17.7668
 262   2.0000      -0.652675       -17.7602
 263   2.0000      -0.651451       -17.7269
 264   2.0000      -0.645752       -17.5718
 265   2.0000      -0.642282       -17.4774
 266   2.0000      -0.641698       -17.4615
 267   2.0000      -0.640396       -17.4261
 268   2.0000      -0.639620       -17.4049
 269   2.0000      -0.634791       -17.2735
 270   2.0000      -0.632466       -17.2103
 271   2.0000      -0.631116       -17.1736
 272   2.0000      -0.629372       -17.1261
 273   2.0000      -0.629105       -17.1188
 274   2.0000      -0.628081       -17.0910
 275   2.0000      -0.626908       -17.0590
 276   2.0000      -0.619859       -16.8672
 277   2.0000      -0.619687       -16.8626
 278   2.0000      -0.618342       -16.8259
 279   2.0000      -0.618192       -16.8219
 280   2.0000      -0.615552       -16.7500
 281   2.0000      -0.615433       -16.7468
 282   2.0000      -0.613557       -16.6957
 283   2.0000      -0.612046       -16.6546
 284   2.0000      -0.611185       -16.6312
 285   2.0000      -0.607969       -16.5437
 286   2.0000      -0.604103       -16.4385
 287   2.0000      -0.600989       -16.3537
 288   2.0000      -0.599446       -16.3118
 289   2.0000      -0.597055       -16.2467
 290   2.0000      -0.596627       -16.2350
 291   2.0000      -0.596030       -16.2188
 292   2.0000      -0.595830       -16.2134
 293   2.0000      -0.594667       -16.1817
 294   2.0000      -0.592293       -16.1171
 295   2.0000      -0.589184       -16.0325
 296   2.0000      -0.585997       -15.9458
 297   2.0000      -0.583079       -15.8664
 298   2.0000      -0.580854       -15.8058
 299   2.0000      -0.579948       -15.7812
 300   2.0000      -0.578334       -15.7373
 301   2.0000      -0.577055       -15.7025
 302   2.0000      -0.576800       -15.6955
 303   2.0000      -0.576720       -15.6934
 304   2.0000      -0.576065       -15.6755
 305   2.0000      -0.575617       -15.6633
 306   2.0000      -0.575276       -15.6541
 307   2.0000      -0.573776       -15.6132
 308   2.0000      -0.571714       -15.5571
 309   2.0000      -0.570325       -15.5193
 310   2.0000      -0.565639       -15.3918
 311   2.0000      -0.563277       -15.3275
 312   2.0000      -0.561957       -15.2916
 313   2.0000      -0.560153       -15.2425
 314   2.0000      -0.558845       -15.2069
 315   2.0000      -0.557883       -15.1808
 316   2.0000      -0.555839       -15.1252
 317   2.0000      -0.549677       -14.9575
 318   2.0000      -0.547993       -14.9116
 319   2.0000      -0.545141       -14.8340
 320   2.0000      -0.544218       -14.8089
 321   2.0000      -0.542412       -14.7598
 322   2.0000      -0.541271       -14.7287
 323   2.0000      -0.538128       -14.6432
 324   2.0000      -0.536503       -14.5990
 325   2.0000      -0.535533       -14.5726
 326   2.0000      -0.534463       -14.5435
 327   2.0000      -0.533655       -14.5215
 328   2.0000      -0.531139       -14.4530
 329   2.0000      -0.529230       -14.4011
 330   2.0000      -0.514117       -13.9898
 331   2.0000      -0.513162       -13.9639
 332   2.0000      -0.511482       -13.9181
 333   2.0000      -0.510359       -13.8876
 334   2.0000      -0.509295       -13.8586
 335   2.0000      -0.508825       -13.8458
 336   2.0000      -0.508772       -13.8444
 337   2.0000      -0.507965       -13.8224
 338   2.0000      -0.507101       -13.7989
 339   2.0000      -0.505954       -13.7677
 340   2.0000      -0.505510       -13.7556
 341   2.0000      -0.503838       -13.7101
 342   2.0000      -0.501964       -13.6591
 343   2.0000      -0.500962       -13.6319
 344   2.0000      -0.500438       -13.6176
 345   2.0000      -0.499406       -13.5895
 346   2.0000      -0.498460       -13.5638
 347   2.0000      -0.495569       -13.4851
 348   2.0000      -0.494308       -13.4508
 349   2.0000      -0.491114       -13.3639
 350   2.0000      -0.491013       -13.3611
 351   2.0000      -0.488690       -13.2979
 352   2.0000      -0.479523       -13.0485
 353   2.0000      -0.478230       -13.0133
 354   2.0000      -0.476504       -12.9663
 355   2.0000      -0.472980       -12.8704
 356   2.0000      -0.448845       -12.2137
 357   2.0000      -0.447458       -12.1760
 358   2.0000      -0.445763       -12.1298
 359   2.0000      -0.444216       -12.0877
 360   0.0000      -0.374669       -10.1953
 361   0.0000      -0.370423       -10.0797
 362   0.0000      -0.367863       -10.0101
 363   0.0000      -0.367162        -9.9910
 364   0.0000      -0.364334        -9.9140

MULLIKEN ATOMIC CHARGES
-----------------------
   0 Pd:   -0.035125
   1 Pd:   -0.040931
   2 C :    0.041526
   3 C :    0.050805
   4 C :   -0.163228
   5 C :   -0.093399
   6 C :   -0.175511
   7 C :   -0.205704
   8 C :   -0.052543
   9 C :   -0.110777
  10 C :   -0.192048
  11 N :   -0.039407
  12 C :   -0.099348
  13 C :    0.347796
  14 H :    0.251263
  15 H :    0.228651
  16 H :    0.246562
  17 H :    0.252457
  18 H :    0.184452
  19 H :    0.138300
  20 C :   -0.182101
  21 C :   -0.113374
  22 C :   -0.166148
  23 C :   -0.124262
  24 C :   -0.138243
  25 C :   -0.107834
  26 H :    0.156993
  27 H :    0.181529
  28 H :    0.232292
  29 H :    0.237838
  30 C :    0.037120
  31 C :    0.001196
  32 C :    0.101772
  33 C :   -0.204455
  34 C :   -0.023772
  35 C :   -0.109426
  36 N :   -0.020838
  37 C :   -0.198449
  38 H :    0.249064
  39 H :    0.247382
  40 H :    0.189501
  41 H :    0.182861
  42 C :    0.025528
  43 C :    0.075477
  44 C :   -0.199750
  45 C :   -0.080458
  46 C :   -0.193567
  47 C :   -0.204178
  48 C :   -0.051897
  49 C :   -0.097868
  50 C :   -0.175151
  51 N :   -0.076827
  52 C :   -0.130443
  53 C :    0.396008
  54 H :    0.248402
  55 H :    0.226578
  56 H :    0.244326
  57 H :    0.251426
  58 H :    0.171066
  59 H :    0.179352
  60 C :   -0.216976
  61 C :   -0.164496
  62 C :   -0.130155
  63 C :   -0.163581
  64 C :   -0.104082
  65 C :   -0.133453
  66 H :    0.208364
  67 H :    0.181307
  68 H :    0.233447
  69 H :    0.233164
  70 C :    0.035645
  71 C :    0.022407
  72 C :    0.057209
  73 C :   -0.162025
  74 C :   -0.045869
  75 C :   -0.110992
  76 N :   -0.071260
  77 C :   -0.159544
  78 H :    0.251959
  79 H :    0.248887
  80 H :    0.203543
  81 H :    0.182665
  82 C :    0.030794
  83 C :    0.044474
  84 C :   -0.160513
  85 C :   -0.100332
  86 C :   -0.183349
  87 C :   -0.213480
  88 C :   -0.050552
  89 C :   -0.145444
  90 C :   -0.141783
  91 N :   -0.057102
  92 C :   -0.124312
  93 C :    0.392583
  94 H :    0.247484
  95 H :    0.226585
  96 H :    0.244422
  97 H :    0.250450
  98 H :    0.166000
  99 H :    0.161236
 100 C :   -0.170456
 101 C :   -0.129590
 102 C :   -0.128868
 103 C :   -0.139338
 104 C :   -0.144035
 105 C :   -0.127687
 106 H :    0.232259
 107 H :    0.233044
 108 H :    0.178248
 109 H :    0.165055
 110 C :    0.036411
 111 C :    0.019495
 112 C :    0.058574
 113 C :   -0.199784
 114 C :   -0.014646
 115 C :   -0.121326
 116 N :   -0.054970
 117 C :   -0.134910
 118 H :    0.250908
 119 H :    0.247712
 120 H :    0.204103
 121 H :    0.176898
 122 C :    0.029063
 123 C :    0.024900
 124 C :   -0.132822
 125 C :   -0.098387
 126 C :   -0.190272
 127 C :   -0.206070
 128 C :   -0.057281
 129 C :   -0.092508
 130 C :   -0.184430
 131 N :   -0.074655
 132 C :   -0.103953
 133 C :    0.352390
 134 H :    0.245316
 135 H :    0.226412
 136 H :    0.244037
 137 H :    0.251061
 138 H :    0.170269
 139 H :    0.176166
 140 C :   -0.168797
 141 C :   -0.139373
 142 C :   -0.142343
 143 C :   -0.139803
 144 C :   -0.115482
 145 C :   -0.131858
 146 H :    0.174672
 147 H :    0.174096
 148 H :    0.234713
 149 H :    0.230701
 150 C :    0.029905
 151 C :    0.020017
 152 C :    0.086985
 153 C :   -0.173035
 154 C :   -0.043548
 155 C :   -0.115452
 156 N :   -0.066261
 157 C :   -0.173274
 158 H :    0.250455
 159 H :    0.247696
 160 H :    0.202212
 161 H :    0.187651
Sum of atomic charges:    4.0000000

LOEWDIN ATOMIC CHARGES
----------------------
   0 Pd:   -0.067983
   1 Pd:   -0.061370
   2 C :   -0.013159
   3 C :   -0.023330
   4 C :   -0.038943
   5 C :   -0.087716
   6 C :   -0.094620
   7 C :   -0.111309
   8 C :   -0.014110
   9 C :   -0.102297
  10 C :   -0.056578
  11 N :   -0.084219
  12 C :   -0.002931
  13 C :   -0.026582
  14 H :    0.196666
  15 H :    0.196327
  16 H :    0.194409
  17 H :    0.202349
  18 H :    0.186628
  19 H :    0.187363
  20 C :   -0.050361
  21 C :   -0.136833
  22 C :   -0.132615
  23 C :   -0.064391
  24 C :   -0.102274
  25 C :   -0.104223
  26 H :    0.166469
  27 H :    0.171266
  28 H :    0.191992
  29 H :    0.193928
  30 C :    0.017634
  31 C :   -0.050757
  32 C :   -0.045478
  33 C :   -0.067065
  34 C :   -0.118731
  35 C :   -0.030417
  36 N :   -0.072506
  37 C :   -0.019544
  38 H :    0.202904
  39 H :    0.202649
  40 H :    0.187668
  41 H :    0.188873
  42 C :   -0.008699
  43 C :   -0.031651
  44 C :   -0.038210
  45 C :   -0.089727
  46 C :   -0.096267
  47 C :   -0.114404
  48 C :   -0.015340
  49 C :   -0.105770
  50 C :   -0.059729
  51 N :   -0.084095
  52 C :   -0.001242
  53 C :   -0.029647
  54 H :    0.196190
  55 H :    0.195537
  56 H :    0.193253
  57 H :    0.200489
  58 H :    0.184094
  59 H :    0.188971
  60 C :   -0.055034
  61 C :   -0.130752
  62 C :   -0.128115
  63 C :   -0.065323
  64 C :   -0.105901
  65 C :   -0.108898
  66 H :    0.177326
  67 H :    0.176438
  68 H :    0.190786
  69 H :    0.191541
  70 C :    0.022023
  71 C :   -0.049818
  72 C :   -0.042954
  73 C :   -0.066123
  74 C :   -0.117618
  75 C :   -0.030533
  76 N :   -0.073656
  77 C :   -0.020286
  78 H :    0.204488
  79 H :    0.203665
  80 H :    0.190313
  81 H :    0.187077
  82 C :   -0.010253
  83 C :   -0.028060
  84 C :   -0.038806
  85 C :   -0.090750
  86 C :   -0.097301
  87 C :   -0.114252
  88 C :   -0.015093
  89 C :   -0.106766
  90 C :   -0.056163
  91 N :   -0.083249
  92 C :   -0.000914
  93 C :   -0.028845
  94 H :    0.195156
  95 H :    0.195239
  96 H :    0.193210
  97 H :    0.200398
  98 H :    0.180898
  99 H :    0.190564
 100 C :   -0.051281
 101 C :   -0.106775
 102 C :   -0.103680
 103 C :   -0.064759
 104 C :   -0.123153
 105 C :   -0.130236
 106 H :    0.192181
 107 H :    0.191830
 108 H :    0.172737
 109 H :    0.170145
 110 C :    0.023542
 111 C :   -0.050828
 112 C :   -0.043442
 113 C :   -0.068219
 114 C :   -0.119363
 115 C :   -0.035820
 116 N :   -0.076769
 117 C :   -0.019573
 118 H :    0.203628
 119 H :    0.202955
 120 H :    0.190341
 121 H :    0.185821
 122 C :   -0.006041
 123 C :   -0.031707
 124 C :   -0.037381
 125 C :   -0.089979
 126 C :   -0.096705
 127 C :   -0.114808
 128 C :   -0.015423
 129 C :   -0.106265
 130 C :   -0.061132
 131 N :   -0.084727
 132 C :    0.000139
 133 C :   -0.029709
 134 H :    0.195332
 135 H :    0.195396
 136 H :    0.193114
 137 H :    0.200301
 138 H :    0.183607
 139 H :    0.189129
 140 C :   -0.051692
 141 C :   -0.128990
 142 C :   -0.124172
 143 C :   -0.063507
 144 C :   -0.103193
 145 C :   -0.106412
 146 H :    0.171352
 147 H :    0.171644
 148 H :    0.192315
 149 H :    0.191872
 150 C :    0.023813
 151 C :   -0.049633
 152 C :   -0.042605
 153 C :   -0.066952
 154 C :   -0.118209
 155 C :   -0.033327
 156 N :   -0.073610
 157 C :   -0.020390
 158 H :    0.204108
 159 H :    0.203353
 160 H :    0.189630
 161 H :    0.187986

  Mayer bond orders larger than 0.100000
B(  0-Pd, 36-N ) :   0.5185 B(  0-Pd, 51-N ) :   0.5395 B(  0-Pd, 91-N ) :   0.5299
B(  0-Pd,131-N ) :   0.5343 B(  1-Pd, 11-N ) :   0.5493 B(  1-Pd, 76-N ) :   0.5516
B(  1-Pd,116-N ) :   0.4983 B(  1-Pd,156-N ) :   0.5547 B(  2-C ,  3-C ) :   1.8526
B(  2-C ,  4-C ) :  -0.3002 B(  2-C , 20-C ) :   1.5754 B(  3-C ,  4-C ) :   1.4591
B(  3-C ,  8-C ) :   0.1104 B(  3-C , 13-C ) :  -0.2355 B(  3-C , 20-C ) :  -0.4193
B(  3-C , 21-C ) :   0.1005 B(  4-C ,  5-C ) :   1.5332 B(  4-C , 12-C ) :  -0.1211
B(  4-C , 13-C ) :   1.0401 B(  5-C ,  6-C ) :   1.4141 B(  5-C , 14-H ) :   0.8544
B(  6-C ,  7-C ) :   1.6308 B(  6-C , 15-H ) :   0.8714 B(  7-C ,  8-C ) :   1.3599
B(  7-C , 13-C ) :  -0.1212 B(  7-C , 16-H ) :   0.8574 B(  8-C ,  9-C ) :   1.2890
B(  8-C , 12-C ) :  -0.1402 B(  8-C , 13-C ) :   1.0570 B(  9-C , 10-C ) :   1.5622
B(  9-C , 17-H ) :   0.8758 B( 10-C , 11-N ) :   1.2439 B( 10-C , 18-H ) :   0.9195
B( 11-N , 12-C ) :   1.4243 B( 11-N ,116-N ) :   0.1079 B( 12-C , 13-C ) :   1.4441
B( 12-C , 19-H ) :   0.8838 B( 20-C , 21-C ) :   1.2712 B( 20-C , 25-C ) :   1.3004
B( 21-C , 22-C ) :   1.4994 B( 21-C , 26-H ) :   0.9374 B( 22-C , 23-C ) :   1.3020
B( 22-C , 27-H ) :   0.9093 B( 23-C , 24-C ) :   1.3102 B( 23-C , 30-C ) :   1.5401
B( 23-C , 31-C ) :  -0.4203 B( 24-C , 25-C ) :   1.5344 B( 24-C , 28-H ) :   0.8937
B( 25-C , 29-H ) :   0.8926 B( 30-C , 31-C ) :   1.8449 B( 30-C , 32-C ) :  -0.3087
B( 31-C , 32-C ) :   1.4317 B( 32-C , 33-C ) :   1.3545 B( 32-C , 37-C ) :   1.2575
B( 33-C , 34-C ) :   1.4870 B( 33-C , 38-H ) :   0.9164 B( 34-C , 35-C ) :   1.4235
B( 34-C , 39-H ) :   0.8697 B( 35-C , 36-N ) :   1.3595 B( 35-C , 40-H ) :   0.9215
B( 36-N , 37-C ) :   1.3784 B( 36-N , 91-N ) :   0.1008 B( 37-C , 41-H ) :   0.9645
B( 42-C , 43-C ) :   1.8801 B( 42-C , 44-C ) :  -0.2566 B( 42-C , 53-C ) :   0.1004
B( 42-C , 60-C ) :   1.5999 B( 43-C , 44-C ) :   1.4527 B( 43-C , 53-C ) :  -0.2440
B( 43-C , 60-C ) :  -0.4481 B( 44-C , 45-C ) :   1.5608 B( 44-C , 52-C ) :  -0.1051
B( 44-C , 53-C ) :   1.0082 B( 45-C , 46-C ) :   1.4189 B( 45-C , 54-H ) :   0.8561
B( 46-C , 47-C ) :   1.6214 B( 46-C , 55-H ) :   0.8737 B( 47-C , 48-C ) :   1.3698
B( 47-C , 53-C ) :  -0.1270 B( 47-C , 56-H ) :   0.8615 B( 48-C , 49-C ) :   1.2655
B( 48-C , 52-C ) :  -0.1113 B( 48-C , 53-C ) :   1.0362 B( 49-C , 50-C ) :   1.5806
B( 49-C , 57-H ) :   0.8702 B( 50-C , 51-N ) :   1.2170 B( 50-C , 58-H ) :   0.9185
B( 51-N , 52-C ) :   1.4753 B( 52-C , 53-C ) :   1.3873 B( 52-C , 59-H ) :   0.8924
B( 60-C , 61-C ) :   1.3227 B( 60-C , 65-C ) :   1.3259 B( 61-C , 62-C ) :   1.5294
B( 61-C , 66-H ) :   0.8981 B( 62-C , 63-C ) :   1.2662 B( 62-C , 67-H ) :   0.9209
B( 63-C , 64-C ) :   1.3093 B( 63-C , 70-C ) :   1.5468 B( 63-C , 71-C ) :  -0.4158
B( 64-C , 65-C ) :   1.5463 B( 64-C , 68-H ) :   0.8879 B( 65-C , 69-H ) :   0.8905
B( 70-C , 71-C ) :   1.8503 B( 70-C , 72-C ) :  -0.2922 B( 71-C , 72-C ) :   1.4248
B( 72-C , 73-C ) :   1.3515 B( 72-C , 77-C ) :   1.3170 B( 73-C , 74-C ) :   1.4757
B( 73-C , 78-H ) :   0.9119 B( 74-C , 75-C ) :   1.4223 B( 74-C , 79-H ) :   0.8707
B( 75-C , 76-N ) :   1.3893 B( 75-C , 80-H ) :   0.9160 B( 76-N , 77-C ) :   1.3553
B( 77-C , 81-H ) :   0.9499 B( 82-C , 83-C ) :   1.8679 B( 82-C , 84-C ) :  -0.2833
B( 82-C , 93-C ) :   0.1082 B( 82-C ,100-C ) :   1.5771 B( 83-C , 84-C ) :   1.4662
B( 83-C , 88-C ) :   0.1076 B( 83-C , 93-C ) :  -0.2477 B( 83-C ,100-C ) :  -0.4253
B( 83-C ,105-C ) :   0.1032 B( 84-C , 85-C ) :   1.5219 B( 84-C , 92-C ) :  -0.1339
B( 84-C , 93-C ) :   1.0047 B( 85-C , 86-C ) :   1.4202 B( 85-C , 94-H ) :   0.8588
B( 86-C , 87-C ) :   1.6266 B( 86-C , 95-H ) :   0.8731 B( 87-C , 88-C ) :   1.3638
B( 87-C , 93-C ) :  -0.1276 B( 87-C , 96-H ) :   0.8598 B( 88-C , 89-C ) :   1.2849
B( 88-C , 92-C ) :  -0.1269 B( 88-C , 93-C ) :   1.0471 B( 89-C , 90-C ) :   1.6215
B( 89-C , 97-H ) :   0.8712 B( 90-C , 91-N ) :   1.2567 B( 90-C , 98-H ) :   0.8981
B( 91-N , 92-C ) :   1.4275 B( 92-C , 93-C ) :   1.3776 B( 92-C , 99-H ) :   0.9087
B(100-C ,101-C ) :   1.2873 B(100-C ,105-C ) :   1.2651 B(101-C ,102-C ) :   1.5363
B(101-C ,106-H ) :   0.9011 B(102-C ,103-C ) :   1.2978 B(102-C ,107-H ) :   0.8947
B(103-C ,104-C ) :   1.2866 B(103-C ,110-C ) :   1.5319 B(103-C ,111-C ) :  -0.4331
B(104-C ,105-C ) :   1.5065 B(104-C ,108-H ) :   0.9224 B(105-C ,109-H ) :   0.9354
B(110-C ,111-C ) :   1.8213 B(110-C ,112-C ) :  -0.3068 B(111-C ,112-C ) :   1.4447
B(112-C ,113-C ) :   1.3396 B(112-C ,117-C ) :   1.3461 B(113-C ,114-C ) :   1.4664
B(113-C ,117-C ) :  -0.1007 B(113-C ,118-H ) :   0.9135 B(114-C ,115-C ) :   1.4094
B(114-C ,119-H ) :   0.8713 B(115-C ,116-N ) :   1.3528 B(115-C ,120-H ) :   0.9240
B(116-N ,117-C ) :   1.3799 B(117-C ,121-H ) :   0.9315 B(122-C ,123-C ) :   1.8954
B(122-C ,124-C ) :  -0.2644 B(122-C ,133-C ) :   0.1106 B(122-C ,140-C ) :   1.5673
B(123-C ,124-C ) :   1.4280 B(123-C ,128-C ) :   0.1012 B(123-C ,133-C ) :  -0.2266
B(123-C ,140-C ) :  -0.4148 B(124-C ,125-C ) :   1.5234 B(124-C ,132-C ) :  -0.1320
B(124-C ,133-C ) :   0.9894 B(125-C ,126-C ) :   1.4264 B(125-C ,134-H ) :   0.8627
B(126-C ,127-C ) :   1.6176 B(126-C ,135-H ) :   0.8735 B(127-C ,128-C ) :   1.3670
B(127-C ,133-C ) :  -0.1294 B(127-C ,136-H ) :   0.8618 B(128-C ,129-C ) :   1.2619
B(128-C ,132-C ) :  -0.1123 B(128-C ,133-C ) :   1.0322 B(129-C ,130-C ) :   1.5814
B(129-C ,137-H ) :   0.8708 B(130-C ,131-N ) :   1.2154 B(130-C ,138-H ) :   0.9175
B(131-N ,132-C ) :   1.4730 B(132-C ,133-C ) :   1.4087 B(132-C ,139-H ) :   0.8935
B(140-C ,141-C ) :   1.2948 B(140-C ,145-C ) :   1.2911 B(141-C ,142-C ) :   1.5230
B(141-C ,146-H ) :   0.9236 B(142-C ,143-C ) :   1.2853 B(142-C ,147-H ) :   0.9245
B(143-C ,144-C ) :   1.2936 B(143-C ,150-C ) :   1.5217 B(143-C ,151-C ) :  -0.4174
B(144-C ,145-C ) :   1.5321 B(144-C ,148-H ) :   0.8923 B(144-C ,151-C ) :   0.1024
B(145-C ,149-H ) :   0.9000 B(150-C ,151-C ) :   1.8677 B(150-C ,152-C ) :  -0.2896
B(151-C ,152-C ) :   1.4102 B(152-C ,153-C ) :   1.3479 B(152-C ,157-C ) :   1.2940
B(153-C ,154-C ) :   1.4748 B(153-C ,158-H ) :   0.9137 B(154-C ,155-C ) :   1.4194
B(154-C ,159-H ) :   0.8721 B(155-C ,156-N ) :   1.3843 B(155-C ,160-H ) :   0.9162
B(156-N ,157-C ) :   1.3549 B(157-C ,161-H ) :   0.9506

Dispersion correction           -0.602769467
FINAL SINGLE POINT ENERGY     -4383.039007150819

DIPOLE MOMENT
-------------
                                X             Y             Z
Electronic contribution:     39.69977     -63.23784      -3.97413
Nuclear contribution   :    -39.63200      62.19122       3.58745
                        -----------------------------------------
Total Dipole Moment    :      0.06778      -1.04662      -0.38669
                        -----------------------------------------
Magnitude (a.u.)       :      1.11783
Magnitude (Debye)      :      2.84129

Rotational constants in cm-1:     0.000679     0.000252     0.000247
Rotational constants in MHz :    20.357554     7.543599     7.406589

                             ****ORCA TERMINATED NORMALLY****
TOTAL RUN TIME: 0 days 0 hours 10 minutes 26 seconds 90 msec
