                         Program Version 4.2.1 -  RELEASE  -
|  1> ! DFT SP B97-3c TightSCF printbasis  Grid6 NOFINALGRID SlowConv
|  2>
|  3> %base "_s_4b1_c_B97-3c"
|  4> %maxcore 3000
|  5> %scf
|  6>    MaxIter 2000
|  7> end
|  8> %pal
|  9>    nprocs 32
| 10> end
| 11>
| 12> * xyzfile 4 1 s_4b1_c.xyz
| 13>
| 14>                          ****END OF INPUT****

CARTESIAN COORDINATES (ANGSTROEM)
---------------------------------
  Pd    -0.379200    4.463500    0.546700
  Pd    -0.066700   -6.845800    1.250600
  C      4.578400   -3.065300    1.687900
  C      4.822100   -4.249800    1.716600
  C      5.166200   -5.614900    1.709400
  C      6.494800   -5.993200    1.773400
  C      6.863200   -7.342200    1.729400
  C      5.917700   -8.329100    1.602800
  C      4.553800   -7.991200    1.530300
  C      3.532800   -8.955700    1.374900
  C      2.228300   -8.560200    1.308400
  N      1.865600   -7.258000    1.410500
  C      2.789300   -6.327100    1.548900
  C      4.160700   -6.623000    1.601000
  H      7.258500   -5.235200    1.857300
  H      7.909300   -7.601500    1.787000
  H      6.206400   -9.367300    1.554200
  H      3.796500   -9.998800    1.303600
  H      1.420500   -9.276000    1.169100
  H      2.448700   -5.296800    1.627400
  C      4.256700   -1.694700    1.615000
  C      5.179500   -0.782200    1.094800
  C      4.847100    0.552500    0.987500
  C      3.589700    1.005900    1.390400
  C      2.677400    0.093500    1.926700
  C      3.004500   -1.240500    2.039900
  H      6.148700   -1.128500    0.770800
  H      5.558100    1.243100    0.561100
  H      1.720000    0.438100    2.285900
  H      2.301800   -1.939900    2.463000
  C      3.224300    2.422100    1.256400
  C      4.126100    3.453100    1.539000
  C      3.716700    4.770700    1.423400
  C      2.411000    5.041700    1.048800
  N      1.551800    4.059000    0.772400
  C      1.940700    2.785700    0.854700
  H      5.128100    3.220900    1.864900
  H      4.396500    5.579800    1.636200
  H      2.035400    6.057900    0.962900
  H      1.200900    2.038800    0.569600
  C     -0.624300   -2.882600    5.815300
  C     -0.621900   -4.066100    6.064400
  C     -0.676900   -5.425400    6.434400
  C     -0.836000   -5.765400    7.764600
  C     -0.949400   -7.103400    8.158700
  C     -0.917600   -8.116500    7.233800
  C     -0.746700   -7.817600    5.869700
  C     -0.713700   -8.813200    4.867400
  C     -0.527400   -8.458200    3.563100
  N     -0.348100   -7.167600    3.187300
  C     -0.391200   -6.207300    4.089900
  C     -0.605400   -6.461100    5.454900
  H     -0.884300   -4.985400    8.509000
  H     -1.074000   -7.331900    9.206100
  H     -1.021800   -9.146000    7.538300
  H     -0.838100   -9.847700    5.144700
  H     -0.513400   -9.199300    2.765800
  H     -0.245400   -5.187700    3.739200
  C     -0.627500   -1.512400    5.475900
  C      0.322300   -0.645200    6.022400
  C      0.333400    0.685600    5.657700
  C     -0.595100    1.176600    4.738100
  C     -1.561200    0.313300    4.217600
  C     -1.582000   -1.016300    4.582900
  H      1.051000   -1.023100    6.722600
  H      1.086700    1.341700    6.065400
  H     -2.318700    0.695600    3.552500
  H     -2.340600   -1.676400    4.193700
  C     -0.531300    2.578300    4.300700
  C     -0.281100    3.626600    5.191500
  C     -0.195700    4.923400    4.713400
  C     -0.330900    5.152100    3.354000
  N     -0.562200    4.151300    2.502000
  C     -0.678900    2.901700    2.953900
  H     -0.172300    3.425100    6.245800
  H     -0.017000    5.747600    5.384600
  H     -0.255000    6.148800    2.927300
  H     -0.884000    2.137500    2.205100
  C     -5.023400    0.683400    0.105000
  C     -5.268300    1.867900    0.084700
  C     -5.613300    3.232700    0.102300
  C     -6.942100    3.610700    0.044400
  C     -7.311200    4.959100    0.099500
  C     -6.366000    5.945700    0.231100
  C     -5.001600    5.608000    0.297400
  C     -3.980700    6.572000    0.456800
  C     -2.675800    6.176800    0.516200
  N     -2.312800    4.875600    0.403700
  C     -3.236400    3.945200    0.261400
  C     -4.608000    4.240600    0.215500
  H     -7.705700    2.853000   -0.043200
  H     -8.357500    5.218300    0.046600
  H     -6.655100    6.983300    0.288300
  H     -4.244800    7.614400    0.536500
  H     -1.867700    6.891900    0.658000
  H     -2.895400    2.915600    0.174200
  C     -4.700800   -0.687300    0.170300
  C     -3.445000   -1.137500   -0.248400
  C     -3.116900   -2.471700   -0.140500
  C     -4.031900   -3.388300    0.383700
  C     -5.293100   -2.939100    0.779500
  C     -5.626300   -1.604200    0.677800
  H     -2.740200   -0.434800   -0.662300
  H     -2.156500   -2.813000   -0.494700
  H     -6.006400   -3.633200    1.196200
  H     -6.598500   -1.261100    0.996600
  C     -3.665500   -4.804700    0.513400
  C     -4.562800   -5.835400    0.216000
  C     -4.152700   -7.153000    0.329200
  C     -2.850700   -7.424000    0.716300
  N     -1.995800   -6.441500    1.006600
  C     -2.385600   -5.168300    0.926500
  H     -5.561600   -5.602800   -0.119000
  H     -4.829000   -7.961900    0.105100
  H     -2.474500   -8.440100    0.801300
  H     -1.649900   -4.421900    1.223100
  C      0.132800    0.498400   -4.020400
  C      0.118100    1.681500   -4.271200
  C      0.157300    3.040600   -4.643800
  C      0.287300    3.380000   -5.977400
  C      0.384500    4.718200   -6.375100
  C      0.365400    5.732200   -5.450800
  C      0.223800    5.433900   -4.083200
  C      0.204700    6.430400   -3.081400
  C      0.045200    6.076000   -1.773400
  N     -0.119800    4.784900   -1.393100
  C     -0.088100    3.823700   -2.295300
  C      0.098800    4.077000   -3.664300
  H      0.325400    2.599500   -6.721800
  H      0.486300    4.946300   -7.425100
  H      0.457300    6.762000   -5.758400
  H      0.317900    7.465400   -3.362100
  H      0.042300    6.817800   -0.976700
  H     -0.221000    2.803800   -1.940700
  C      0.149200   -0.871400   -3.679900
  C     -0.795000   -1.746900   -4.223000
  C     -0.793600   -3.077500   -3.857700
  C      0.141700   -3.560000   -2.940600
  C      1.101900   -2.688300   -2.423100
  C      1.110500   -1.358900   -2.789500
  H     -1.529100   -1.375600   -4.921000
  H     -1.542300   -3.740400   -4.262900
  H      1.864200   -3.064000   -1.759600
  H      1.864900   -0.692300   -2.403200
  C      0.090700   -4.962100   -2.502600
  C     -0.149900   -6.012800   -3.393300
  C     -0.224600   -7.310100   -2.914900
  C     -0.089600   -7.537000   -1.555200
  N      0.132300   -6.534000   -0.703300
  C      0.240000   -5.283700   -1.155600
  H     -0.259800   -5.812400   -4.447700
  H     -0.395400   -8.136000   -3.586100
  H     -0.157800   -8.534100   -1.128100
  H      0.438900   -4.517800   -0.406900

 Total Charge           Charge          ....    4
 Multiplicity           Mult            ....    1
 Number of Electrons    NEL             ....  672
 Basis Dimension        Dim             .... 2058

ORBITAL ENERGIES
----------------

  NO   OCC          E(Eh)            E(eV)
   0   2.0000     -14.346675      -390.3929
   1   2.0000     -14.346636      -390.3918
   2   2.0000     -14.346586      -390.3905
   3   2.0000     -14.346558      -390.3897
   4   2.0000     -14.336570      -390.1179
   5   2.0000     -14.336535      -390.1169
   6   2.0000     -14.336361      -390.1122
   7   2.0000     -14.336346      -390.1118
   8   2.0000     -10.242769      -278.7199
   9   2.0000     -10.242733      -278.7189
  10   2.0000     -10.242319      -278.7077
  11   2.0000     -10.242251      -278.7058
  12   2.0000     -10.238805      -278.6120
  13   2.0000     -10.238776      -278.6113
  14   2.0000     -10.238749      -278.6105
  15   2.0000     -10.238706      -278.6093
  16   2.0000     -10.234999      -278.5085
  17   2.0000     -10.234917      -278.5063
  18   2.0000     -10.234748      -278.5017
  19   2.0000     -10.234745      -278.5016
  20   2.0000     -10.222537      -278.1694
  21   2.0000     -10.222454      -278.1671
  22   2.0000     -10.222029      -278.1555
  23   2.0000     -10.222005      -278.1549
  24   2.0000     -10.216158      -277.9958
  25   2.0000     -10.216148      -277.9955
  26   2.0000     -10.216110      -277.9945
  27   2.0000     -10.216102      -277.9943
  28   2.0000     -10.207658      -277.7645
  29   2.0000     -10.207571      -277.7621
  30   2.0000     -10.207312      -277.7551
  31   2.0000     -10.207267      -277.7538
  32   2.0000     -10.202281      -277.6182
  33   2.0000     -10.202189      -277.6157
  34   2.0000     -10.202163      -277.6150
  35   2.0000     -10.202134      -277.6142
  36   2.0000     -10.201294      -277.5913
  37   2.0000     -10.201204      -277.5889
  38   2.0000     -10.201004      -277.5834
  39   2.0000     -10.200911      -277.5809
  40   2.0000     -10.200547      -277.5710
  41   2.0000     -10.200531      -277.5706
  42   2.0000     -10.200077      -277.5582
  43   2.0000     -10.200041      -277.5572
  44   2.0000     -10.197094      -277.4770
  45   2.0000     -10.196984      -277.4741
  46   2.0000     -10.196674      -277.4656
  47   2.0000     -10.196609      -277.4638
  48   2.0000     -10.196311      -277.4557
  49   2.0000     -10.196278      -277.4548
  50   2.0000     -10.195095      -277.4227
  51   2.0000     -10.195025      -277.4207
  52   2.0000     -10.192497      -277.3519
  53   2.0000     -10.192450      -277.3507
  54   2.0000     -10.191605      -277.3277
  55   2.0000     -10.191556      -277.3263
  56   2.0000     -10.190226      -277.2901
  57   2.0000     -10.190140      -277.2878
  58   2.0000     -10.189681      -277.2753
  59   2.0000     -10.189671      -277.2750
  60   2.0000     -10.180834      -277.0346
  61   2.0000     -10.180799      -277.0336
  62   2.0000     -10.179244      -276.9913
  63   2.0000     -10.179171      -276.9893
  64   2.0000     -10.178020      -276.9580
  65   2.0000     -10.177946      -276.9560
  66   2.0000     -10.176299      -276.9112
  67   2.0000     -10.176213      -276.9088
  68   2.0000     -10.175232      -276.8821
  69   2.0000     -10.175197      -276.8812
  70   2.0000     -10.175181      -276.8807
  71   2.0000     -10.175149      -276.8799
  72   2.0000     -10.173941      -276.8470
  73   2.0000     -10.173856      -276.8447
  74   2.0000     -10.173232      -276.8277
  75   2.0000     -10.173168      -276.8260
  76   2.0000     -10.172850      -276.8173
  77   2.0000     -10.172795      -276.8158
  78   2.0000     -10.172774      -276.8153
  79   2.0000     -10.172724      -276.8139
  80   2.0000     -10.169431      -276.7243
  81   2.0000     -10.169324      -276.7214
  82   2.0000     -10.169136      -276.7163
  83   2.0000     -10.169030      -276.7134
  84   2.0000     -10.168484      -276.6985
  85   2.0000     -10.168387      -276.6959
  86   2.0000     -10.168191      -276.6905
  87   2.0000     -10.168148      -276.6894
  88   2.0000     -10.167941      -276.6837
  89   2.0000     -10.167874      -276.6819
  90   2.0000     -10.167632      -276.6753
  91   2.0000     -10.167592      -276.6742
  92   2.0000     -10.167369      -276.6682
  93   2.0000     -10.167262      -276.6653
  94   2.0000     -10.165808      -276.6257
  95   2.0000     -10.165739      -276.6238
  96   2.0000      -3.653576       -99.4189
  97   2.0000      -3.653571       -99.4187
  98   2.0000      -2.384910       -64.8967
  99   2.0000      -2.384900       -64.8964
 100   2.0000      -2.383214       -64.8506
 101   2.0000      -2.383196       -64.8501
 102   2.0000      -2.341919       -63.7268
 103   2.0000      -2.341913       -63.7267
 104   2.0000      -1.210600       -32.9421
 105   2.0000      -1.210544       -32.9406
 106   2.0000      -1.204244       -32.7691
 107   2.0000      -1.204231       -32.7688
 108   2.0000      -1.195303       -32.5259
 109   2.0000      -1.195223       -32.5237
 110   2.0000      -1.192587       -32.4520
 111   2.0000      -1.192566       -32.4514
 112   2.0000      -1.085612       -29.5410
 113   2.0000      -1.085441       -29.5364
 114   2.0000      -1.084461       -29.5097
 115   2.0000      -1.084363       -29.5070
 116   2.0000      -1.080940       -29.4139
 117   2.0000      -1.080706       -29.4075
 118   2.0000      -1.079915       -29.3860
 119   2.0000      -1.079800       -29.3829
 120   2.0000      -1.050981       -28.5986
 121   2.0000      -1.050762       -28.5927
 122   2.0000      -1.049710       -28.5641
 123   2.0000      -1.049636       -28.5620
 124   2.0000      -1.025501       -27.9053
 125   2.0000      -1.024686       -27.8831
 126   2.0000      -1.023952       -27.8631
 127   2.0000      -1.023693       -27.8561
 128   2.0000      -1.022171       -27.8147
 129   2.0000      -1.021354       -27.7925
 130   2.0000      -1.020410       -27.7668
 131   2.0000      -1.019846       -27.7514
 132   2.0000      -0.993221       -27.0269
 133   2.0000      -0.993069       -27.0228
 134   2.0000      -0.992515       -27.0077
 135   2.0000      -0.992400       -27.0046
 136   2.0000      -0.991557       -26.9816
 137   2.0000      -0.991509       -26.9803
 138   2.0000      -0.991404       -26.9775
 139   2.0000      -0.990618       -26.9561
 140   2.0000      -0.975190       -26.5363
 141   2.0000      -0.975042       -26.5322
 142   2.0000      -0.974075       -26.5059
 143   2.0000      -0.973284       -26.4844
 144   2.0000      -0.968332       -26.3496
 145   2.0000      -0.968274       -26.3481
 146   2.0000      -0.966716       -26.3057
 147   2.0000      -0.966636       -26.3035
 148   2.0000      -0.935516       -25.4567
 149   2.0000      -0.935435       -25.4545
 150   2.0000      -0.934299       -25.4236
 151   2.0000      -0.933833       -25.4109
 152   2.0000      -0.898152       -24.4400
 153   2.0000      -0.898074       -24.4378
 154   2.0000      -0.895693       -24.3731
 155   2.0000      -0.895651       -24.3719
 156   2.0000      -0.890203       -24.2236
 157   2.0000      -0.889663       -24.2090
 158   2.0000      -0.887511       -24.1504
 159   2.0000      -0.886945       -24.1350
 160   2.0000      -0.885973       -24.1086
 161   2.0000      -0.885915       -24.1070
 162   2.0000      -0.884448       -24.0671
 163   2.0000      -0.884327       -24.0638
 164   2.0000      -0.867827       -23.6148
 165   2.0000      -0.866590       -23.5811
 166   2.0000      -0.865648       -23.5555
 167   2.0000      -0.865553       -23.5529
 168   2.0000      -0.851312       -23.1654
 169   2.0000      -0.851234       -23.1632
 170   2.0000      -0.850128       -23.1332
 171   2.0000      -0.849726       -23.1222
 172   2.0000      -0.836208       -22.7544
 173   2.0000      -0.836086       -22.7511
 174   2.0000      -0.834926       -22.7195
 175   2.0000      -0.834832       -22.7169
 176   2.0000      -0.832809       -22.6619
 177   2.0000      -0.830973       -22.6119
 178   2.0000      -0.830638       -22.6028
 179   2.0000      -0.829838       -22.5811
 180   2.0000      -0.800132       -21.7727
 181   2.0000      -0.798384       -21.7251
 182   2.0000      -0.792407       -21.5625
 183   2.0000      -0.791810       -21.5463
 184   2.0000      -0.785100       -21.3637
 185   2.0000      -0.783857       -21.3298
 186   2.0000      -0.783542       -21.3213
 187   2.0000      -0.782747       -21.2996
 188   2.0000      -0.767425       -20.8827
 189   2.0000      -0.765830       -20.8393
 190   2.0000      -0.764579       -20.8052
 191   2.0000      -0.763920       -20.7873
 192   2.0000      -0.763868       -20.7859
 193   2.0000      -0.762967       -20.7614
 194   2.0000      -0.762896       -20.7595
 195   2.0000      -0.761756       -20.7284
 196   2.0000      -0.754942       -20.5430
 197   2.0000      -0.754863       -20.5409
 198   2.0000      -0.753682       -20.5087
 199   2.0000      -0.753638       -20.5075
 200   2.0000      -0.752825       -20.4854
 201   2.0000      -0.752187       -20.4680
 202   2.0000      -0.751939       -20.4613
 203   2.0000      -0.751564       -20.4511
 204   2.0000      -0.732884       -19.9428
 205   2.0000      -0.732407       -19.9298
 206   2.0000      -0.730857       -19.8876
 207   2.0000      -0.729341       -19.8464
 208   2.0000      -0.718748       -19.5581
 209   2.0000      -0.718403       -19.5487
 210   2.0000      -0.716903       -19.5079
 211   2.0000      -0.715994       -19.4832
 212   2.0000      -0.714499       -19.4425
 213   2.0000      -0.712223       -19.3806
 214   2.0000      -0.706723       -19.2309
 215   2.0000      -0.704366       -19.1668
 216   2.0000      -0.703557       -19.1447
 217   2.0000      -0.701961       -19.1013
 218   2.0000      -0.699911       -19.0456
 219   2.0000      -0.699298       -19.0289
 220   2.0000      -0.698103       -18.9964
 221   2.0000      -0.697653       -18.9841
 222   2.0000      -0.697183       -18.9713
 223   2.0000      -0.697090       -18.9688
 224   2.0000      -0.696163       -18.9436
 225   2.0000      -0.696046       -18.9404
 226   2.0000      -0.695445       -18.9240
 227   2.0000      -0.695120       -18.9152
 228   2.0000      -0.693201       -18.8630
 229   2.0000      -0.693125       -18.8609
 230   2.0000      -0.685098       -18.6425
 231   2.0000      -0.684874       -18.6364
 232   2.0000      -0.682491       -18.5715
 233   2.0000      -0.681675       -18.5493
 234   2.0000      -0.676701       -18.4140
 235   2.0000      -0.676465       -18.4075
 236   2.0000      -0.674976       -18.3670
 237   2.0000      -0.674505       -18.3542
 238   2.0000      -0.672569       -18.3015
 239   2.0000      -0.672038       -18.2871
 240   2.0000      -0.671945       -18.2846
 241   2.0000      -0.671341       -18.2681
 242   2.0000      -0.669858       -18.2278
 243   2.0000      -0.669668       -18.2226
 244   2.0000      -0.668630       -18.1943
 245   2.0000      -0.668387       -18.1877
 246   2.0000      -0.666371       -18.1329
 247   2.0000      -0.666293       -18.1307
 248   2.0000      -0.661153       -17.9909
 249   2.0000      -0.661082       -17.9890
 250   2.0000      -0.658724       -17.9248
 251   2.0000      -0.658573       -17.9207
 252   2.0000      -0.648278       -17.6406
 253   2.0000      -0.646478       -17.5916
 254   2.0000      -0.644855       -17.5474
 255   2.0000      -0.644534       -17.5387
 256   2.0000      -0.643406       -17.5080
 257   2.0000      -0.643056       -17.4984
 258   2.0000      -0.643014       -17.4973
 259   2.0000      -0.641754       -17.4630
 260   2.0000      -0.632517       -17.2117
 261   2.0000      -0.632113       -17.2007
 262   2.0000      -0.630558       -17.1584
 263   2.0000      -0.630479       -17.1562
 264   2.0000      -0.629308       -17.1244
 265   2.0000      -0.627334       -17.0706
 266   2.0000      -0.626447       -17.0465
 267   2.0000      -0.624261       -16.9870
 268   2.0000      -0.623991       -16.9797
 269   2.0000      -0.621381       -16.9086
 270   2.0000      -0.614859       -16.7312
 271   2.0000      -0.613404       -16.6916
 272   2.0000      -0.608608       -16.5611
 273   2.0000      -0.607524       -16.5316
 274   2.0000      -0.607160       -16.5217
 275   2.0000      -0.606190       -16.4953
 276   2.0000      -0.600814       -16.3490
 277   2.0000      -0.600661       -16.3448
 278   2.0000      -0.599502       -16.3133
 279   2.0000      -0.598971       -16.2988
 280   2.0000      -0.596935       -16.2434
 281   2.0000      -0.593346       -16.1458
 282   2.0000      -0.591674       -16.1003
 283   2.0000      -0.591078       -16.0840
 284   2.0000      -0.589185       -16.0325
 285   2.0000      -0.588842       -16.0232
 286   2.0000      -0.588000       -16.0003
 287   2.0000      -0.587842       -15.9960
 288   2.0000      -0.587583       -15.9889
 289   2.0000      -0.586429       -15.9575
 290   2.0000      -0.580352       -15.7922
 291   2.0000      -0.577885       -15.7250
 292   2.0000      -0.576054       -15.6752
 293   2.0000      -0.574780       -15.6406
 294   2.0000      -0.574159       -15.6237
 295   2.0000      -0.570631       -15.5277
 296   2.0000      -0.569159       -15.4876
 297   2.0000      -0.565775       -15.3955
 298   2.0000      -0.565410       -15.3856
 299   2.0000      -0.564058       -15.3488
 300   2.0000      -0.563157       -15.3243
 301   2.0000      -0.559876       -15.2350
 302   2.0000      -0.553907       -15.0726
 303   2.0000      -0.552472       -15.0335
 304   2.0000      -0.551897       -15.0179
 305   2.0000      -0.550324       -14.9751
 306   2.0000      -0.550046       -14.9675
 307   2.0000      -0.549071       -14.9410
 308   2.0000      -0.546651       -14.8751
 309   2.0000      -0.546103       -14.8602
 310   2.0000      -0.537884       -14.6366
 311   2.0000      -0.534668       -14.5491
 312   2.0000      -0.533194       -14.5090
 313   2.0000      -0.531974       -14.4758
 314   2.0000      -0.524171       -14.2634
 315   2.0000      -0.523572       -14.2471
 316   2.0000      -0.521138       -14.1809
 317   2.0000      -0.520971       -14.1763
 318   2.0000      -0.520530       -14.1644
 319   2.0000      -0.520340       -14.1592
 320   2.0000      -0.516651       -14.0588
 321   2.0000      -0.516575       -14.0567
 322   2.0000      -0.513956       -13.9855
 323   2.0000      -0.513866       -13.9830
 324   2.0000      -0.512182       -13.9372
 325   2.0000      -0.511356       -13.9147
 326   2.0000      -0.509748       -13.8709
 327   2.0000      -0.508984       -13.8502
 328   2.0000      -0.499351       -13.5880
 329   2.0000      -0.498901       -13.5758
 330   2.0000      -0.488437       -13.2910
 331   2.0000      -0.488058       -13.2807
 332   2.0000      -0.468644       -12.7525
 333   2.0000      -0.468190       -12.7401
 334   2.0000      -0.465253       -12.6602
 335   2.0000      -0.465188       -12.6584
 336   0.0000      -0.381309       -10.3760
 337   0.0000      -0.381003       -10.3676
 338   0.0000      -0.380628       -10.3574
 339   0.0000      -0.376574       -10.2471
 340   0.0000      -0.375631       -10.2214

MULLIKEN ATOMIC CHARGES
-----------------------
   0 Pd:   -0.027260
   1 Pd:   -0.027415
   2 C :    0.032657
   3 C :    0.072023
   4 C :   -0.194910
   5 C :   -0.084764
   6 C :   -0.178469
   7 C :   -0.209519
   8 C :   -0.050285
   9 C :   -0.120507
  10 C :   -0.174808
  11 N :   -0.055547
  12 C :   -0.127216
  13 C :    0.380062
  14 H :    0.251708
  15 H :    0.230957
  16 H :    0.248122
  17 H :    0.254023
  18 H :    0.178676
  19 H :    0.150439
  20 C :   -0.196322
  21 C :   -0.151847
  22 C :   -0.104799
  23 C :   -0.086194
  24 C :   -0.107273
  25 C :   -0.197135
  26 H :    0.241868
  27 H :    0.246718
  28 H :    0.199246
  29 H :    0.192769
  30 C :    0.005146
  31 C :   -0.171251
  32 C :   -0.060948
  33 C :   -0.111378
  34 N :   -0.068214
  35 C :   -0.136462
  36 H :    0.260727
  37 H :    0.248387
  38 H :    0.199841
  39 H :    0.209461
  40 C :    0.025441
  41 C :    0.103175
  42 C :   -0.258039
  43 C :   -0.065403
  44 C :   -0.185726
  45 C :   -0.206976
  46 C :   -0.052403
  47 C :   -0.116665
  48 C :   -0.177357
  49 N :   -0.059560
  50 C :   -0.153199
  51 C :    0.434750
  52 H :    0.253915
  53 H :    0.230566
  54 H :    0.247886
  55 H :    0.254202
  56 H :    0.176395
  57 H :    0.165363
  58 C :   -0.247160
  59 C :   -0.145306
  60 C :   -0.133793
  61 C :   -0.085945
  62 C :   -0.127349
  63 C :   -0.166533
  64 H :    0.239324
  65 H :    0.238420
  66 H :    0.232414
  67 H :    0.215143
  68 C :    0.029034
  69 C :   -0.159899
  70 C :   -0.066635
  71 C :   -0.103136
  72 N :   -0.065621
  73 C :   -0.168764
  74 H :    0.260867
  75 H :    0.250093
  76 H :    0.197422
  77 H :    0.203432
  78 C :    0.032239
  79 C :    0.070349
  80 C :   -0.193320
  81 C :   -0.085082
  82 C :   -0.178379
  83 C :   -0.209840
  84 C :   -0.050620
  85 C :   -0.120280
  86 C :   -0.175303
  87 N :   -0.056432
  88 C :   -0.126962
  89 C :    0.380234
  90 H :    0.251668
  91 H :    0.230965
  92 H :    0.248163
  93 H :    0.254067
  94 H :    0.179617
  95 H :    0.150338
  96 C :   -0.194927
  97 C :   -0.196983
  98 C :   -0.106836
  99 C :   -0.086597
 100 C :   -0.105341
 101 C :   -0.151860
 102 H :    0.192074
 103 H :    0.199208
 104 H :    0.246738
 105 H :    0.241764
 106 C :    0.004412
 107 C :   -0.170967
 108 C :   -0.061443
 109 C :   -0.110278
 110 N :   -0.069066
 111 C :   -0.135951
 112 H :    0.260825
 113 H :    0.248444
 114 H :    0.199618
 115 H :    0.210500
 116 C :    0.025479
 117 C :    0.102622
 118 C :   -0.257826
 119 C :   -0.065978
 120 C :   -0.185530
 121 C :   -0.207081
 122 C :   -0.052772
 123 C :   -0.116528
 124 C :   -0.176622
 125 N :   -0.059227
 126 C :   -0.154230
 127 C :    0.435788
 128 H :    0.253850
 129 H :    0.230555
 130 H :    0.247874
 131 H :    0.254190
 132 H :    0.176362
 133 H :    0.164933
 134 C :   -0.245248
 135 C :   -0.146142
 136 C :   -0.132336
 137 C :   -0.087582
 138 C :   -0.126197
 139 C :   -0.167167
 140 H :    0.239260
 141 H :    0.238412
 142 H :    0.232391
 143 H :    0.214839
 144 C :    0.026171
 145 C :   -0.158389
 146 C :   -0.067437
 147 C :   -0.102860
 148 N :   -0.065822
 149 C :   -0.166957
 150 H :    0.260750
 151 H :    0.250089
 152 H :    0.197500
 153 H :    0.203431
Sum of atomic charges:    4.0000000

LOEWDIN ATOMIC CHARGES
----------------------
   0 Pd:   -0.060600
   1 Pd:   -0.060586
   2 C :   -0.016872
   3 C :   -0.022869
   4 C :   -0.040919
   5 C :   -0.087061
   6 C :   -0.093879
   7 C :   -0.109703
   8 C :   -0.014216
   9 C :   -0.102340
  10 C :   -0.057302
  11 N :   -0.084231
  12 C :   -0.003745
  13 C :   -0.027350
  14 H :    0.197039
  15 H :    0.197324
  16 H :    0.195199
  17 H :    0.202619
  18 H :    0.183530
  19 H :    0.188048
  20 C :   -0.054721
  21 C :   -0.104767
  22 C :   -0.122181
  23 C :   -0.060641
  24 C :   -0.143010
  25 C :   -0.130334
  26 H :    0.194212
  27 H :    0.187515
  28 H :    0.172520
  29 H :    0.174457
  30 C :   -0.034757
  31 C :   -0.077000
  32 C :   -0.117631
  33 C :   -0.029233
  34 N :   -0.075323
  35 C :   -0.030422
  36 H :    0.200176
  37 H :    0.203171
  38 H :    0.189792
  39 H :    0.186020
  40 C :   -0.015179
  41 C :   -0.025142
  42 C :   -0.040847
  43 C :   -0.086960
  44 C :   -0.093595
  45 C :   -0.110717
  46 C :   -0.014360
  47 C :   -0.102598
  48 C :   -0.058305
  49 N :   -0.084460
  50 C :   -0.003164
  51 C :   -0.027979
  52 H :    0.197693
  53 H :    0.197235
  54 H :    0.194944
  55 H :    0.202442
  56 H :    0.183519
  57 H :    0.188874
  58 C :   -0.057438
  59 C :   -0.108892
  60 C :   -0.127140
  61 C :   -0.064391
  62 C :   -0.140918
  63 C :   -0.124477
  64 H :    0.192851
  65 H :    0.185347
  66 H :    0.177805
  67 H :    0.181775
  68 C :   -0.035192
  69 C :   -0.076184
  70 C :   -0.116968
  71 C :   -0.028943
  72 N :   -0.075304
  73 C :   -0.032300
  74 H :    0.201201
  75 H :    0.203267
  76 H :    0.189558
  77 H :    0.184551
  78 C :   -0.016860
  79 C :   -0.022911
  80 C :   -0.040927
  81 C :   -0.087111
  82 C :   -0.093900
  83 C :   -0.109717
  84 C :   -0.014203
  85 C :   -0.102369
  86 C :   -0.057281
  87 N :   -0.084247
  88 C :   -0.003838
  89 C :   -0.027381
  90 H :    0.197027
  91 H :    0.197316
  92 H :    0.195200
  93 H :    0.202624
  94 H :    0.183606
  95 H :    0.188050
  96 C :   -0.054726
  97 C :   -0.130308
  98 C :   -0.142979
  99 C :   -0.060631
 100 C :   -0.122197
 101 C :   -0.104734
 102 H :    0.174359
 103 H :    0.172579
 104 H :    0.187529
 105 H :    0.194204
 106 C :   -0.034807
 107 C :   -0.077053
 108 C :   -0.117700
 109 C :   -0.029209
 110 N :   -0.075284
 111 C :   -0.030364
 112 H :    0.200172
 113 H :    0.203142
 114 H :    0.189767
 115 H :    0.186126
 116 C :   -0.015246
 117 C :   -0.025106
 118 C :   -0.040856
 119 C :   -0.086960
 120 C :   -0.093624
 121 C :   -0.110685
 122 C :   -0.014351
 123 C :   -0.102592
 124 C :   -0.058190
 125 N :   -0.084514
 126 C :   -0.003222
 127 C :   -0.027974
 128 H :    0.197667
 129 H :    0.197236
 130 H :    0.194952
 131 H :    0.202448
 132 H :    0.183601
 133 H :    0.188811
 134 C :   -0.057435
 135 C :   -0.108811
 136 C :   -0.127179
 137 C :   -0.064482
 138 C :   -0.140912
 139 C :   -0.124583
 140 H :    0.192849
 141 H :    0.185332
 142 H :    0.177879
 143 H :    0.181680
 144 C :   -0.035243
 145 C :   -0.076171
 146 C :   -0.117022
 147 C :   -0.028930
 148 N :   -0.075336
 149 C :   -0.032166
 150 H :    0.201224
 151 H :    0.203263
 152 H :    0.189597
 153 H :    0.184554

  Mayer bond orders larger than 0.100000
B(  0-Pd, 34-N ) :   0.5209 B(  0-Pd, 72-N ) :   0.5208 B(  0-Pd, 87-N ) :   0.5437
B(  0-Pd,125-N ) :   0.5453 B(  1-Pd, 11-N ) :   0.5437 B(  1-Pd, 49-N ) :   0.5457
B(  1-Pd,110-N ) :   0.5205 B(  1-Pd,148-N ) :   0.5219 B(  2-C ,  3-C ) :   1.8530
B(  2-C ,  4-C ) :  -0.2982 B(  2-C , 20-C ) :   1.6425 B(  2-C , 21-C ) :  -0.1078
B(  2-C , 25-C ) :  -0.1017 B(  3-C ,  4-C ) :   1.4622 B(  3-C ,  8-C ) :   0.1019
B(  3-C , 13-C ) :  -0.2282 B(  3-C , 20-C ) :  -0.4379 B(  4-C ,  5-C ) :   1.5435
B(  4-C , 12-C ) :  -0.1150 B(  4-C , 13-C ) :   1.0420 B(  5-C ,  6-C ) :   1.4134
B(  5-C , 14-H ) :   0.8533 B(  6-C ,  7-C ) :   1.6320 B(  6-C , 15-H ) :   0.8706
B(  7-C ,  8-C ) :   1.3625 B(  7-C , 13-C ) :  -0.1247 B(  7-C , 16-H ) :   0.8578
B(  8-C ,  9-C ) :   1.2866 B(  8-C , 12-C ) :  -0.1179 B(  8-C , 13-C ) :   1.0582
B(  9-C , 10-C ) :   1.5949 B(  9-C , 17-H ) :   0.8720 B( 10-C , 11-N ) :   1.2435
B( 10-C , 18-H ) :   0.9106 B( 11-N , 12-C ) :   1.4348 B( 11-N ,110-N ) :   0.1006
B( 12-C , 13-C ) :   1.3906 B( 12-C , 19-H ) :   0.9033 B( 20-C , 21-C ) :   1.3548
B( 20-C , 23-C ) :   0.1054 B( 20-C , 25-C ) :   1.3135 B( 21-C , 22-C ) :   1.6013
B( 21-C , 26-H ) :   0.8772 B( 22-C , 23-C ) :   1.3651 B( 22-C , 27-H ) :   0.8495
B( 23-C , 24-C ) :   1.3058 B( 23-C , 30-C ) :   0.9416 B( 24-C , 25-C ) :   1.5798
B( 24-C , 28-H ) :   0.8852 B( 25-C , 29-H ) :   0.9087 B( 30-C , 31-C ) :   1.4501
B( 30-C , 35-C ) :   1.3800 B( 31-C , 32-C ) :   1.5127 B( 31-C , 36-H ) :   0.8748
B( 32-C , 33-C ) :   1.4457 B( 32-C , 37-H ) :   0.8650 B( 33-C , 34-N ) :   1.3669
B( 33-C , 38-H ) :   0.9179 B( 34-N , 35-C ) :   1.3866 B( 34-N , 87-N ) :   0.1005
B( 35-C , 39-H ) :   0.9067 B( 40-C , 41-C ) :   1.8556 B( 40-C , 42-C ) :  -0.2759
B( 40-C , 58-C ) :   1.6451 B( 40-C , 59-C ) :  -0.1058 B( 41-C , 42-C ) :   1.4727
B( 41-C , 43-C ) :  -0.1005 B( 41-C , 51-C ) :  -0.2530 B( 41-C , 58-C ) :  -0.4356
B( 42-C , 43-C ) :   1.5771 B( 42-C , 51-C ) :   1.0437 B( 43-C , 44-C ) :   1.4092
B( 43-C , 52-H ) :   0.8483 B( 44-C , 45-C ) :   1.6326 B( 44-C , 53-H ) :   0.8710
B( 45-C , 46-C ) :   1.3679 B( 45-C , 51-C ) :  -0.1235 B( 45-C , 54-H ) :   0.8575
B( 46-C , 47-C ) :   1.2820 B( 46-C , 50-C ) :  -0.1145 B( 46-C , 51-C ) :   1.0474
B( 47-C , 48-C ) :   1.5914 B( 47-C , 55-H ) :   0.8720 B( 48-C , 49-N ) :   1.2379
B( 48-C , 56-H ) :   0.9131 B( 49-N , 50-C ) :   1.4398 B( 50-C , 51-C ) :   1.3714
B( 50-C , 57-H ) :   0.9018 B( 58-C , 59-C ) :   1.3690 B( 58-C , 61-C ) :   0.1036
B( 58-C , 63-C ) :   1.3495 B( 59-C , 60-C ) :   1.6018 B( 59-C , 64-H ) :   0.8811
B( 60-C , 61-C ) :   1.3752 B( 60-C , 65-H ) :   0.8536 B( 61-C , 62-C ) :   1.3414
B( 61-C , 68-C ) :   0.9053 B( 62-C , 63-C ) :   1.5746 B( 62-C , 66-H ) :   0.8578
B( 63-C , 67-H ) :   0.8901 B( 68-C , 69-C ) :   1.4470 B( 68-C , 73-C ) :   1.3822
B( 69-C , 70-C ) :   1.5008 B( 69-C , 74-H ) :   0.8778 B( 70-C , 71-C ) :   1.4464
B( 70-C , 75-H ) :   0.8614 B( 71-C , 72-N ) :   1.3682 B( 71-C , 76-H ) :   0.9206
B( 72-N , 73-C ) :   1.3906 B( 73-C , 77-H ) :   0.9078 B( 78-C , 79-C ) :   1.8540
B( 78-C , 80-C ) :  -0.2978 B( 78-C , 96-C ) :   1.6424 B( 78-C , 97-C ) :  -0.1020
B( 78-C ,101-C ) :  -0.1074 B( 79-C , 80-C ) :   1.4617 B( 79-C , 84-C ) :   0.1019
B( 79-C , 89-C ) :  -0.2278 B( 79-C , 96-C ) :  -0.4372 B( 80-C , 81-C ) :   1.5427
B( 80-C , 88-C ) :  -0.1156 B( 80-C , 89-C ) :   1.0412 B( 81-C , 82-C ) :   1.4134
B( 81-C , 90-H ) :   0.8534 B( 82-C , 83-C ) :   1.6321 B( 82-C , 91-H ) :   0.8706
B( 83-C , 84-C ) :   1.3627 B( 83-C , 89-C ) :  -0.1248 B( 83-C , 92-H ) :   0.8578
B( 84-C , 85-C ) :   1.2865 B( 84-C , 88-C ) :  -0.1182 B( 84-C , 89-C ) :   1.0583
B( 85-C , 86-C ) :   1.5948 B( 85-C , 93-H ) :   0.8719 B( 86-C , 87-N ) :   1.2436
B( 86-C , 94-H ) :   0.9104 B( 87-N , 88-C ) :   1.4344 B( 88-C , 89-C ) :   1.3907
B( 88-C , 95-H ) :   0.9031 B( 96-C , 97-C ) :   1.3121 B( 96-C , 99-C ) :   0.1054
B( 96-C ,101-C ) :   1.3543 B( 97-C , 98-C ) :   1.5791 B( 97-C ,102-H ) :   0.9094
B( 98-C , 99-C ) :   1.3063 B( 98-C ,103-H ) :   0.8851 B( 99-C ,100-C ) :   1.3655
B( 99-C ,106-C ) :   0.9416 B(100-C ,101-C ) :   1.6014 B(100-C ,104-H ) :   0.8494
B(101-C ,105-H ) :   0.8773 B(106-C ,107-C ) :   1.4500 B(106-C ,111-C ) :   1.3803
B(107-C ,108-C ) :   1.5125 B(107-C ,112-H ) :   0.8749 B(108-C ,109-C ) :   1.4462
B(108-C ,113-H ) :   0.8648 B(109-C ,110-N ) :   1.3667 B(109-C ,114-H ) :   0.9179
B(110-N ,111-C ) :   1.3868 B(111-C ,115-H ) :   0.9062 B(116-C ,117-C ) :   1.8561
B(116-C ,118-C ) :  -0.2765 B(116-C ,134-C ) :   1.6446 B(116-C ,135-C ) :  -0.1055
B(117-C ,118-C ) :   1.4727 B(117-C ,119-C ) :  -0.1003 B(117-C ,127-C ) :  -0.2532
B(117-C ,134-C ) :  -0.4350 B(118-C ,119-C ) :   1.5761 B(118-C ,127-C ) :   1.0429
B(119-C ,120-C ) :   1.4094 B(119-C ,128-H ) :   0.8484 B(120-C ,121-C ) :   1.6326
B(120-C ,129-H ) :   0.8710 B(121-C ,122-C ) :   1.3677 B(121-C ,127-C ) :  -0.1235
B(121-C ,130-H ) :   0.8575 B(122-C ,123-C ) :   1.2820 B(122-C ,126-C ) :  -0.1146
B(122-C ,127-C ) :   1.0474 B(123-C ,124-C ) :   1.5906 B(123-C ,131-H ) :   0.8720
B(124-C ,125-N ) :   1.2383 B(124-C ,132-H ) :   0.9132 B(125-N ,126-C ) :   1.4396
B(126-C ,127-C ) :   1.3708 B(126-C ,133-H ) :   0.9021 B(134-C ,135-C ) :   1.3694
B(134-C ,137-C ) :   0.1036 B(134-C ,139-C ) :   1.3481 B(135-C ,136-C ) :   1.6019
B(135-C ,140-H ) :   0.8811 B(136-C ,137-C ) :   1.3757 B(136-C ,141-H ) :   0.8534
B(137-C ,138-C ) :   1.3411 B(137-C ,144-C ) :   0.9054 B(138-C ,139-C ) :   1.5739
B(138-C ,142-H ) :   0.8582 B(139-C ,143-H ) :   0.8905 B(144-C ,145-C ) :   1.4463
B(144-C ,149-C ) :   1.3831 B(145-C ,146-C ) :   1.5007 B(145-C ,150-H ) :   0.8782
B(146-C ,147-C ) :   1.4466 B(146-C ,151-H ) :   0.8613 B(147-C ,148-N ) :   1.3685
B(147-C ,152-H ) :   0.9205 B(148-N ,149-C ) :   1.3913 B(149-C ,153-H ) :   0.9074

Dispersion correction           -0.592444504
FINAL SINGLE POINT ENERGY     -4078.569134780430

DIPOLE MOMENT
-------------
                                X             Y             Z
Electronic contribution:      0.98094       0.05972       0.19217
Nuclear contribution   :     -0.99112      -0.06248      -0.19450
                        -----------------------------------------
Total Dipole Moment    :     -0.01018      -0.00276      -0.00234
                        -----------------------------------------
Magnitude (a.u.)       :      0.01081
Magnitude (Debye)      :      0.02747

Rotational constants in cm-1:     0.000767     0.000348     0.000342
Rotational constants in MHz :    22.994053    10.447361    10.255492

                             ****ORCA TERMINATED NORMALLY****
TOTAL RUN TIME: 0 days 0 hours 8 minutes 32 seconds 488 msec
