                         Program Version 4.2.1 -  RELEASE  -
|  1> ! DFT SP B97-3c TightSCF printbasis  Grid6 NOFINALGRID SlowConv
|  2>
|  3> %base "_s_4b3_c_B97-3c"
|  4> %maxcore 3000
|  5> %scf
|  6>    MaxIter 2000
|  7> end
|  8> %pal
|  9>    nprocs 32
| 10> end
| 11>
| 12> * xyzfile 4 1 s_4b3_c.xyz
| 13>
| 14>                          ****END OF INPUT****

CARTESIAN COORDINATES (ANGSTROEM)
---------------------------------
  Pd    -0.821500    8.043600   -1.508000
  Pd     1.129700   -5.601400    0.128300
  C      5.269600   -1.278300    0.898100
  C      5.618600   -2.432600    1.000800
  C      6.105600   -3.749900    1.082000
  C      7.447700   -3.970500    1.337800
  C      7.971600   -5.266400    1.376400
  C      7.172400   -6.359100    1.147600
  C      5.801500   -6.184200    0.885900
  C      4.927500   -7.264400    0.627400
  C      3.605100   -7.026600    0.389400
  N      3.085000   -5.774700    0.409000
  C      3.870300   -4.739300    0.632600
  C      5.247800   -4.870700    0.866500
  H      8.100100   -3.127100    1.504900
  H      9.022900   -5.400400    1.580500
  H      7.582700   -7.356500    1.163600
  H      5.316800   -8.269900    0.618400
  H      2.908000   -7.833400    0.171200
  H      3.407600   -3.754500    0.635400
  C      4.880900    0.063600    0.722800
  C      3.531900    0.405900    0.572800
  C      3.172100    1.714000    0.338800
  C      4.153100    2.710300    0.260500
  C      5.500100    2.374300    0.436800
  C      5.859800    1.063600    0.662200
  H      2.777900   -0.361900    0.639900
  H      2.135800    1.982100    0.208200
  H      6.255500    3.143600    0.384900
  H      6.899000    0.798600    0.786100
  C      3.771200    4.039500   -0.000900
  C      3.410500    5.168500   -0.241200
  C      2.941200    6.472200   -0.486700
  C      3.727200    7.608500   -0.248900
  C      3.180200    8.860000   -0.468000
  C      1.866300    8.962800   -0.900300
  N      1.123500    7.878000   -1.135400
  C      1.637400    6.662900   -0.952800
  H      4.740200    7.498900    0.106100
  H      3.760500    9.751800   -0.294600
  H      1.390500    9.925700   -1.065200
  H      0.993100    5.815100   -1.181200
  C      0.041900   -1.504300    4.519800
  C      0.208200   -2.668100    4.806000
  C      0.332600   -4.003600    5.236700
  C      0.244600   -4.293100    6.586400
  C      0.302100   -5.612500    7.047200
  C      0.437100   -6.660700    6.171400
  C      0.544300   -6.413000    4.791000
  C      0.681800   -7.447000    3.837400
  C      0.806100   -7.138400    2.514400
  N      0.822300   -5.855800    2.073100
  C      0.673600   -4.863600    2.928600
  C      0.511500   -5.072100    4.307800
  H      0.116900   -3.487200    7.292800
  H      0.227100   -5.800700    8.107200
  H      0.463700   -7.678500    6.527600
  H      0.688100   -8.473700    4.166900
  H      0.900400   -7.910900    1.752800
  H      0.688100   -3.852800    2.526500
  C     -0.168800   -0.152300    4.179100
  C     -1.061900    0.184800    3.155700
  C     -1.275900    1.506600    2.832900
  C     -0.599000    2.517600    3.524700
  C      0.283500    2.182000    4.557100
  C      0.496200    0.859300    4.881000
  H     -1.594000   -0.595900    2.635300
  H     -1.973100    1.772800    2.054200
  H      0.799400    2.962600    5.095100
  H      1.177300    0.596500    5.676100
  C     -0.784500    3.863600    3.152500
  C     -0.924700    5.008400    2.789300
  C     -1.021600    6.332400    2.319300
  C     -0.979000    7.438300    3.179100
  C     -1.022900    8.710800    2.637400
  C     -1.078600    8.862900    1.259900
  N     -1.120600    7.806600    0.443500
  C     -1.114700    6.573300    0.945900
  H     -0.909900    7.290200    4.245600
  H     -0.998500    9.580300    3.274100
  H     -1.089400    9.843500    0.791300
  H     -1.179600    5.750800    0.235700
  C     -4.936300    3.709400   -2.355100
  C     -5.281300    4.862600   -2.481700
  C     -5.765300    6.178700   -2.592800
  C     -7.098100    6.396100   -2.895600
  C     -7.620700    7.691300   -2.964500
  C     -6.830000    8.786500   -2.719100
  C     -5.468600    8.614900   -2.409800
  C     -4.604200    9.698100   -2.132000
  C     -3.290200    9.463400   -1.848600
  N     -2.769100    8.212000   -1.840500
  C     -3.546100    7.173900   -2.080000
  C     -4.915400    7.302100   -2.359800
  H     -7.744300    5.550800   -3.076400
  H     -8.664600    7.822700   -3.205200
  H     -7.239800    9.783500   -2.758200
  H     -4.994100   10.703300   -2.144700
  H     -2.601200   10.272700   -1.614500
  H     -3.083100    6.189400   -2.058500
  C     -4.553300    2.369600   -2.153500
  C     -3.208700    2.028600   -1.965400
  C     -2.855700    0.723100   -1.708600
  C     -3.839000   -0.272100   -1.644000
  C     -5.181000    0.062600   -1.856700
  C     -5.534200    1.370700   -2.106000
  H     -2.453100    2.795500   -2.021800
  H     -1.823200    0.456100   -1.549200
  H     -5.938000   -0.705800   -1.815100
  H     -6.569700    1.634700   -2.258700
  C     -3.463900   -1.598800   -1.361200
  C     -3.109200   -2.726000   -1.104100
  C     -2.644200   -4.027800   -0.841700
  C     -3.439700   -5.163800   -1.047100
  C     -2.895700   -6.414300   -0.814800
  C     -1.575200   -6.516700   -0.402600
  N     -0.823200   -5.432000   -0.198500
  C     -1.334100   -4.217500   -0.392900
  H     -4.457600   -5.055100   -1.388000
  H     -3.483300   -7.305800   -0.963000
  H     -1.101700   -7.479200   -0.229000
  H     -0.682200   -3.369300   -0.189200
  C      0.317800    3.960200   -5.896600
  C      0.175100    5.127600   -6.180800
  C      0.079300    6.467200   -6.606100
  C      0.205000    6.764000   -7.951200
  C      0.175800    8.086900   -8.404600
  C      0.031300    9.131200   -7.525700
  C     -0.113700    8.876300   -6.150100
  C     -0.263500    9.905900   -5.193600
  C     -0.424400    9.590700   -3.876100
  N     -0.465300    8.305700   -3.443600
  C     -0.307000    7.317000   -4.301400
  C     -0.109100    7.532100   -5.675000
  H      0.340200    5.960900   -8.659500
  H      0.280100    8.280700   -9.461200
  H      0.026100   10.151400   -7.875800
  H     -0.250000   10.934600   -5.516600
  H     -0.529400   10.359400   -3.112200
  H     -0.342800    6.304100   -3.906200
  C      0.503300    2.604200   -5.557200
  C     -0.168300    1.604300   -6.269400
  C      0.021300    0.277700   -5.946700
  C      0.887000   -0.073400   -4.905300
  C      1.569900    0.925900   -4.202500
  C      1.378900    2.251600   -4.523900
  H     -0.836100    1.879000   -7.071700
  H     -0.499500   -0.493800   -6.493000
  H      2.253800    0.647600   -3.416400
  H      1.915700    3.023200   -3.994900
  C      1.051700   -1.422700   -4.535600
  C      1.177100   -2.569500   -4.173400
  C      1.261100   -3.894700   -3.704600
  C      1.178800   -5.000100   -4.562400
  C      1.214700   -6.273000   -4.021100
  C      1.302100   -6.425700   -2.645400
  N      1.381200   -5.370100   -1.830900
  C      1.383200   -4.136800   -2.333700
  H      1.086300   -4.851100   -5.626900
  H      1.160300   -7.142100   -4.656500
  H      1.308500   -7.406200   -2.176500
  H      1.478900   -3.315400   -1.625700

 Total Charge           Charge          ....    4
 Multiplicity           Mult            ....    1
 Number of Electrons    NEL             ....  720
 Basis Dimension        Dim             .... 2210

ORBITAL ENERGIES
----------------

  NO   OCC          E(Eh)            E(eV)
   0   2.0000     -14.334700      -390.0670
   1   2.0000     -14.334564      -390.0633
   2   2.0000     -14.334018      -390.0485
   3   2.0000     -14.333956      -390.0468
   4   2.0000     -14.323991      -389.7756
   5   2.0000     -14.323957      -389.7747
   6   2.0000     -14.323776      -389.7698
   7   2.0000     -14.323692      -389.7675
   8   2.0000     -10.231488      -278.4130
   9   2.0000     -10.231368      -278.4097
  10   2.0000     -10.230977      -278.3990
  11   2.0000     -10.230940      -278.3980
  12   2.0000     -10.225488      -278.2497
  13   2.0000     -10.225343      -278.2457
  14   2.0000     -10.225246      -278.2431
  15   2.0000     -10.225172      -278.2411
  16   2.0000     -10.222441      -278.1668
  17   2.0000     -10.222386      -278.1653
  18   2.0000     -10.222322      -278.1635
  19   2.0000     -10.222209      -278.1605
  20   2.0000     -10.214890      -277.9613
  21   2.0000     -10.214792      -277.9586
  22   2.0000     -10.214207      -277.9427
  23   2.0000     -10.214175      -277.9418
  24   2.0000     -10.210444      -277.8403
  25   2.0000     -10.210431      -277.8400
  26   2.0000     -10.210169      -277.8328
  27   2.0000     -10.210029      -277.8290
  28   2.0000     -10.195625      -277.4371
  29   2.0000     -10.195524      -277.4343
  30   2.0000     -10.194943      -277.4185
  31   2.0000     -10.194923      -277.4180
  32   2.0000     -10.189264      -277.2640
  33   2.0000     -10.189157      -277.2611
  34   2.0000     -10.188833      -277.2523
  35   2.0000     -10.188815      -277.2518
  36   2.0000     -10.188804      -277.2515
  37   2.0000     -10.188781      -277.2508
  38   2.0000     -10.188515      -277.2436
  39   2.0000     -10.188477      -277.2426
  40   2.0000     -10.188039      -277.2306
  41   2.0000     -10.187920      -277.2274
  42   2.0000     -10.187661      -277.2203
  43   2.0000     -10.187551      -277.2174
  44   2.0000     -10.185013      -277.1483
  45   2.0000     -10.184979      -277.1474
  46   2.0000     -10.184367      -277.1307
  47   2.0000     -10.184241      -277.1273
  48   2.0000     -10.180298      -277.0200
  49   2.0000     -10.180282      -277.0196
  50   2.0000     -10.180266      -277.0191
  51   2.0000     -10.180261      -277.0190
  52   2.0000     -10.178251      -276.9643
  53   2.0000     -10.178220      -276.9634
  54   2.0000     -10.177938      -276.9558
  55   2.0000     -10.177801      -276.9520
  56   2.0000     -10.177626      -276.9473
  57   2.0000     -10.177574      -276.9459
  58   2.0000     -10.177085      -276.9326
  59   2.0000     -10.176988      -276.9299
  60   2.0000     -10.168123      -276.6887
  61   2.0000     -10.168082      -276.6876
  62   2.0000     -10.166452      -276.6432
  63   2.0000     -10.166442      -276.6430
  64   2.0000     -10.163286      -276.5571
  65   2.0000     -10.163256      -276.5562
  66   2.0000     -10.162058      -276.5237
  67   2.0000     -10.162053      -276.5235
  68   2.0000     -10.161800      -276.5166
  69   2.0000     -10.161768      -276.5158
  70   2.0000     -10.161582      -276.5107
  71   2.0000     -10.161551      -276.5099
  72   2.0000     -10.160340      -276.4769
  73   2.0000     -10.160221      -276.4737
  74   2.0000     -10.159831      -276.4631
  75   2.0000     -10.159825      -276.4629
  76   2.0000     -10.158675      -276.4316
  77   2.0000     -10.158579      -276.4290
  78   2.0000     -10.157301      -276.3942
  79   2.0000     -10.157291      -276.3939
  80   2.0000     -10.157258      -276.3931
  81   2.0000     -10.157223      -276.3921
  82   2.0000     -10.156922      -276.3839
  83   2.0000     -10.156914      -276.3837
  84   2.0000     -10.156797      -276.3805
  85   2.0000     -10.156764      -276.3796
  86   2.0000     -10.156465      -276.3715
  87   2.0000     -10.156344      -276.3682
  88   2.0000     -10.156001      -276.3588
  89   2.0000     -10.155880      -276.3555
  90   2.0000     -10.155271      -276.3390
  91   2.0000     -10.155226      -276.3378
  92   2.0000     -10.154997      -276.3315
  93   2.0000     -10.154933      -276.3298
  94   2.0000     -10.154932      -276.3297
  95   2.0000     -10.154917      -276.3294
  96   2.0000     -10.153374      -276.2873
  97   2.0000     -10.153275      -276.2847
  98   2.0000     -10.152982      -276.2767
  99   2.0000     -10.152979      -276.2766
 100   2.0000     -10.152936      -276.2754
 101   2.0000     -10.152916      -276.2749
 102   2.0000     -10.150755      -276.2161
 103   2.0000     -10.150651      -276.2133
 104   2.0000      -3.640750       -99.0699
 105   2.0000      -3.640681       -99.0680
 106   2.0000      -2.372305       -64.5537
 107   2.0000      -2.372236       -64.5518
 108   2.0000      -2.370167       -64.4955
 109   2.0000      -2.370098       -64.4936
 110   2.0000      -2.329056       -63.3768
 111   2.0000      -2.328983       -63.3748
 112   2.0000      -1.197843       -32.5950
 113   2.0000      -1.197769       -32.5929
 114   2.0000      -1.191767       -32.4296
 115   2.0000      -1.191655       -32.4266
 116   2.0000      -1.183154       -32.1952
 117   2.0000      -1.183046       -32.1923
 118   2.0000      -1.179992       -32.1092
 119   2.0000      -1.179903       -32.1068
 120   2.0000      -1.068878       -29.0857
 121   2.0000      -1.068829       -29.0843
 122   2.0000      -1.067869       -29.0582
 123   2.0000      -1.067754       -29.0551
 124   2.0000      -1.062962       -28.9247
 125   2.0000      -1.062926       -28.9237
 126   2.0000      -1.060071       -28.8460
 127   2.0000      -1.059998       -28.8440
 128   2.0000      -1.046197       -28.4685
 129   2.0000      -1.046108       -28.4660
 130   2.0000      -1.044671       -28.4269
 131   2.0000      -1.044622       -28.4256
 132   2.0000      -1.012543       -27.5527
 133   2.0000      -1.012091       -27.5404
 134   2.0000      -1.011188       -27.5158
 135   2.0000      -1.011084       -27.5130
 136   2.0000      -1.010448       -27.4957
 137   2.0000      -1.009800       -27.4781
 138   2.0000      -1.008193       -27.4343
 139   2.0000      -1.007907       -27.4265
 140   2.0000      -0.996282       -27.1102
 141   2.0000      -0.996234       -27.1089
 142   2.0000      -0.994068       -27.0500
 143   2.0000      -0.993926       -27.0461
 144   2.0000      -0.980824       -26.6896
 145   2.0000      -0.980764       -26.6880
 146   2.0000      -0.979380       -26.6503
 147   2.0000      -0.979285       -26.6477
 148   2.0000      -0.969134       -26.3715
 149   2.0000      -0.969086       -26.3702
 150   2.0000      -0.967743       -26.3336
 151   2.0000      -0.967397       -26.3242
 152   2.0000      -0.949727       -25.8434
 153   2.0000      -0.949685       -25.8423
 154   2.0000      -0.947074       -25.7712
 155   2.0000      -0.947038       -25.7702
 156   2.0000      -0.946287       -25.7498
 157   2.0000      -0.946219       -25.7479
 158   2.0000      -0.945324       -25.7236
 159   2.0000      -0.944964       -25.7138
 160   2.0000      -0.919439       -25.0192
 161   2.0000      -0.919351       -25.0168
 162   2.0000      -0.917676       -24.9712
 163   2.0000      -0.917334       -24.9619
 164   2.0000      -0.888473       -24.1766
 165   2.0000      -0.888377       -24.1740
 166   2.0000      -0.885913       -24.1069
 167   2.0000      -0.885827       -24.1046
 168   2.0000      -0.877945       -23.8901
 169   2.0000      -0.877737       -23.8845
 170   2.0000      -0.875365       -23.8199
 171   2.0000      -0.874849       -23.8059
 172   2.0000      -0.871308       -23.7095
 173   2.0000      -0.871140       -23.7049
 174   2.0000      -0.869504       -23.6604
 175   2.0000      -0.869390       -23.6573
 176   2.0000      -0.857939       -23.3457
 177   2.0000      -0.856835       -23.3157
 178   2.0000      -0.855694       -23.2846
 179   2.0000      -0.855538       -23.2804
 180   2.0000      -0.846241       -23.0274
 181   2.0000      -0.845652       -23.0113
 182   2.0000      -0.844387       -22.9769
 183   2.0000      -0.843935       -22.9646
 184   2.0000      -0.826181       -22.4815
 185   2.0000      -0.825487       -22.4626
 186   2.0000      -0.824267       -22.4294
 187   2.0000      -0.823868       -22.4186
 188   2.0000      -0.819690       -22.3049
 189   2.0000      -0.819671       -22.3044
 190   2.0000      -0.816470       -22.2173
 191   2.0000      -0.816386       -22.2150
 192   2.0000      -0.797222       -21.6935
 193   2.0000      -0.795419       -21.6445
 194   2.0000      -0.791185       -21.5292
 195   2.0000      -0.790447       -21.5091
 196   2.0000      -0.772773       -21.0282
 197   2.0000      -0.771379       -20.9903
 198   2.0000      -0.770074       -20.9548
 199   2.0000      -0.769404       -20.9365
 200   2.0000      -0.757719       -20.6186
 201   2.0000      -0.757104       -20.6018
 202   2.0000      -0.754795       -20.5390
 203   2.0000      -0.754461       -20.5299
 204   2.0000      -0.753514       -20.5042
 205   2.0000      -0.753261       -20.4973
 206   2.0000      -0.751442       -20.4478
 207   2.0000      -0.751230       -20.4420
 208   2.0000      -0.747617       -20.3437
 209   2.0000      -0.746894       -20.3240
 210   2.0000      -0.745571       -20.2880
 211   2.0000      -0.744906       -20.2699
 212   2.0000      -0.741022       -20.1642
 213   2.0000      -0.741009       -20.1639
 214   2.0000      -0.740361       -20.1463
 215   2.0000      -0.740076       -20.1385
 216   2.0000      -0.738946       -20.1077
 217   2.0000      -0.737809       -20.0768
 218   2.0000      -0.736635       -20.0449
 219   2.0000      -0.735984       -20.0271
 220   2.0000      -0.721515       -19.6334
 221   2.0000      -0.721397       -19.6302
 222   2.0000      -0.719344       -19.5743
 223   2.0000      -0.718587       -19.5537
 224   2.0000      -0.704778       -19.1780
 225   2.0000      -0.704587       -19.1728
 226   2.0000      -0.702635       -19.1197
 227   2.0000      -0.701683       -19.0938
 228   2.0000      -0.701372       -19.0853
 229   2.0000      -0.700301       -19.0562
 230   2.0000      -0.692819       -18.8526
 231   2.0000      -0.691939       -18.8286
 232   2.0000      -0.691331       -18.8121
 233   2.0000      -0.690494       -18.7893
 234   2.0000      -0.686879       -18.6909
 235   2.0000      -0.686566       -18.6824
 236   2.0000      -0.684721       -18.6322
 237   2.0000      -0.684674       -18.6309
 238   2.0000      -0.684107       -18.6155
 239   2.0000      -0.683986       -18.6122
 240   2.0000      -0.683146       -18.5894
 241   2.0000      -0.683067       -18.5872
 242   2.0000      -0.681418       -18.5423
 243   2.0000      -0.681332       -18.5400
 244   2.0000      -0.680818       -18.5260
 245   2.0000      -0.680660       -18.5217
 246   2.0000      -0.674682       -18.3590
 247   2.0000      -0.674517       -18.3545
 248   2.0000      -0.670030       -18.2324
 249   2.0000      -0.669927       -18.2296
 250   2.0000      -0.661667       -18.0049
 251   2.0000      -0.661600       -18.0030
 252   2.0000      -0.661030       -17.9875
 253   2.0000      -0.660920       -17.9846
 254   2.0000      -0.657830       -17.9005
 255   2.0000      -0.657774       -17.8989
 256   2.0000      -0.657131       -17.8814
 257   2.0000      -0.657022       -17.8785
 258   2.0000      -0.654462       -17.8088
 259   2.0000      -0.654443       -17.8083
 260   2.0000      -0.654267       -17.8035
 261   2.0000      -0.654209       -17.8019
 262   2.0000      -0.650889       -17.7116
 263   2.0000      -0.650795       -17.7090
 264   2.0000      -0.642871       -17.4934
 265   2.0000      -0.642727       -17.4895
 266   2.0000      -0.639027       -17.3888
 267   2.0000      -0.638950       -17.3867
 268   2.0000      -0.635628       -17.2963
 269   2.0000      -0.635229       -17.2854
 270   2.0000      -0.632384       -17.2080
 271   2.0000      -0.632125       -17.2010
 272   2.0000      -0.630511       -17.1571
 273   2.0000      -0.630262       -17.1503
 274   2.0000      -0.628880       -17.1127
 275   2.0000      -0.628662       -17.1068
 276   2.0000      -0.620053       -16.8725
 277   2.0000      -0.619939       -16.8694
 278   2.0000      -0.618483       -16.8298
 279   2.0000      -0.618396       -16.8274
 280   2.0000      -0.617601       -16.8058
 281   2.0000      -0.615587       -16.7510
 282   2.0000      -0.613887       -16.7047
 283   2.0000      -0.611368       -16.6362
 284   2.0000      -0.610649       -16.6166
 285   2.0000      -0.608545       -16.5594
 286   2.0000      -0.602267       -16.3885
 287   2.0000      -0.600630       -16.3440
 288   2.0000      -0.597783       -16.2665
 289   2.0000      -0.597590       -16.2613
 290   2.0000      -0.597056       -16.2467
 291   2.0000      -0.595051       -16.1922
 292   2.0000      -0.594661       -16.1816
 293   2.0000      -0.594422       -16.1750
 294   2.0000      -0.589860       -16.0509
 295   2.0000      -0.589716       -16.0470
 296   2.0000      -0.587798       -15.9948
 297   2.0000      -0.585545       -15.9335
 298   2.0000      -0.582229       -15.8433
 299   2.0000      -0.579918       -15.7804
 300   2.0000      -0.577398       -15.7118
 301   2.0000      -0.577205       -15.7065
 302   2.0000      -0.576464       -15.6864
 303   2.0000      -0.576266       -15.6810
 304   2.0000      -0.576149       -15.6778
 305   2.0000      -0.575995       -15.6736
 306   2.0000      -0.573796       -15.6138
 307   2.0000      -0.572891       -15.5891
 308   2.0000      -0.569983       -15.5100
 309   2.0000      -0.566444       -15.4137
 310   2.0000      -0.564862       -15.3707
 311   2.0000      -0.563312       -15.3285
 312   2.0000      -0.563172       -15.3247
 313   2.0000      -0.560588       -15.2544
 314   2.0000      -0.558801       -15.2057
 315   2.0000      -0.557888       -15.1809
 316   2.0000      -0.557451       -15.1690
 317   2.0000      -0.551418       -15.0049
 318   2.0000      -0.547384       -14.8951
 319   2.0000      -0.545916       -14.8551
 320   2.0000      -0.544421       -14.8145
 321   2.0000      -0.544090       -14.8055
 322   2.0000      -0.539383       -14.6774
 323   2.0000      -0.538086       -14.6421
 324   2.0000      -0.537769       -14.6334
 325   2.0000      -0.536106       -14.5882
 326   2.0000      -0.535666       -14.5762
 327   2.0000      -0.535297       -14.5662
 328   2.0000      -0.533636       -14.5210
 329   2.0000      -0.533074       -14.5057
 330   2.0000      -0.514115       -13.9898
 331   2.0000      -0.513051       -13.9608
 332   2.0000      -0.512318       -13.9409
 333   2.0000      -0.511860       -13.9284
 334   2.0000      -0.509218       -13.8565
 335   2.0000      -0.509112       -13.8536
 336   2.0000      -0.507500       -13.8098
 337   2.0000      -0.507181       -13.8011
 338   2.0000      -0.506900       -13.7935
 339   2.0000      -0.505025       -13.7424
 340   2.0000      -0.504682       -13.7331
 341   2.0000      -0.503776       -13.7084
 342   2.0000      -0.503015       -13.6877
 343   2.0000      -0.502232       -13.6664
 344   2.0000      -0.499665       -13.5966
 345   2.0000      -0.499210       -13.5842
 346   2.0000      -0.497080       -13.5262
 347   2.0000      -0.496835       -13.5196
 348   2.0000      -0.492455       -13.4004
 349   2.0000      -0.492389       -13.3986
 350   2.0000      -0.489237       -13.3128
 351   2.0000      -0.489170       -13.3110
 352   2.0000      -0.479618       -13.0511
 353   2.0000      -0.478877       -13.0309
 354   2.0000      -0.470625       -12.8064
 355   2.0000      -0.470389       -12.7999
 356   2.0000      -0.448969       -12.2171
 357   2.0000      -0.448385       -12.2012
 358   2.0000      -0.446484       -12.1495
 359   2.0000      -0.446391       -12.1469
 360   0.0000      -0.370794       -10.0898
 361   0.0000      -0.368319       -10.0225
 362   0.0000      -0.368095       -10.0164
 363   0.0000      -0.367535       -10.0011
 364   0.0000      -0.363630        -9.8949

MULLIKEN ATOMIC CHARGES
-----------------------
   0 Pd:   -0.028133
   1 Pd:   -0.027060
   2 C :    0.036764
   3 C :    0.042765
   4 C :   -0.150064
   5 C :   -0.102538
   6 C :   -0.178325
   7 C :   -0.210686
   8 C :   -0.048070
   9 C :   -0.120679
  10 C :   -0.177400
  11 N :   -0.059336
  12 C :   -0.112703
  13 C :    0.359361
  14 H :    0.248269
  15 H :    0.227515
  16 H :    0.245216
  17 H :    0.251451
  18 H :    0.181683
  19 H :    0.155039
  20 C :   -0.162078
  21 C :   -0.128722
  22 C :   -0.152373
  23 C :   -0.147267
  24 C :   -0.131152
  25 C :   -0.125835
  26 H :    0.164270
  27 H :    0.186527
  28 H :    0.233763
  29 H :    0.234329
  30 C :    0.042025
  31 C :    0.011063
  32 C :    0.056755
  33 C :   -0.189248
  34 C :   -0.026146
  35 C :   -0.114991
  36 N :   -0.044511
  37 C :   -0.155102
  38 H :    0.250409
  39 H :    0.247362
  40 H :    0.196512
  41 H :    0.183935
  42 C :    0.037832
  43 C :    0.093861
  44 C :   -0.236124
  45 C :   -0.075379
  46 C :   -0.186537
  47 C :   -0.209364
  48 C :   -0.050974
  49 C :   -0.116237
  50 C :   -0.176406
  51 N :   -0.067287
  52 C :   -0.149658
  53 C :    0.428175
  54 H :    0.251059
  55 H :    0.227136
  56 H :    0.244781
  57 H :    0.251569
  58 H :    0.177170
  59 H :    0.169886
  60 C :   -0.230174
  61 C :   -0.157166
  62 C :   -0.145557
  63 C :   -0.171547
  64 C :   -0.119795
  65 C :   -0.124056
  66 H :    0.206675
  67 H :    0.211926
  68 H :    0.230186
  69 H :    0.233558
  70 C :    0.060127
  71 C :    0.021780
  72 C :    0.015523
  73 C :   -0.171942
  74 C :   -0.034593
  75 C :   -0.110254
  76 N :   -0.049615
  77 C :   -0.159726
  78 H :    0.251365
  79 H :    0.248056
  80 H :    0.194995
  81 H :    0.196570
  82 C :    0.038014
  83 C :    0.043132
  84 C :   -0.151006
  85 C :   -0.102632
  86 C :   -0.178354
  87 C :   -0.210594
  88 C :   -0.048074
  89 C :   -0.120735
  90 C :   -0.175964
  91 N :   -0.058622
  92 C :   -0.112694
  93 C :    0.359433
  94 H :    0.248221
  95 H :    0.227507
  96 H :    0.245201
  97 H :    0.251510
  98 H :    0.180506
  99 H :    0.155045
 100 C :   -0.162846
 101 C :   -0.128943
 102 C :   -0.152663
 103 C :   -0.144884
 104 C :   -0.132168
 105 C :   -0.125227
 106 H :    0.164179
 107 H :    0.185794
 108 H :    0.233608
 109 H :    0.234423
 110 C :    0.039735
 111 C :    0.011673
 112 C :    0.058124
 113 C :   -0.188474
 114 C :   -0.026454
 115 C :   -0.115912
 116 N :   -0.044288
 117 C :   -0.154567
 118 H :    0.250144
 119 H :    0.247278
 120 H :    0.196947
 121 H :    0.183164
 122 C :    0.038939
 123 C :    0.093489
 124 C :   -0.237502
 125 C :   -0.074461
 126 C :   -0.186653
 127 C :   -0.209504
 128 C :   -0.050815
 129 C :   -0.116334
 130 C :   -0.177337
 131 N :   -0.068567
 132 C :   -0.147722
 133 C :    0.427694
 134 H :    0.251195
 135 H :    0.227135
 136 H :    0.244822
 137 H :    0.251559
 138 H :    0.177883
 139 H :    0.169740
 140 C :   -0.230912
 141 C :   -0.123158
 142 C :   -0.119636
 143 C :   -0.169601
 144 C :   -0.146751
 145 C :   -0.157411
 146 H :    0.233717
 147 H :    0.230204
 148 H :    0.211313
 149 H :    0.207003
 150 C :    0.056914
 151 C :    0.023594
 152 C :    0.018928
 153 C :   -0.173258
 154 C :   -0.034800
 155 C :   -0.109204
 156 N :   -0.050196
 157 C :   -0.163296
 158 H :    0.251109
 159 H :    0.247989
 160 H :    0.194918
 161 H :    0.198001
Sum of atomic charges:    4.0000000

LOEWDIN ATOMIC CHARGES
----------------------
   0 Pd:   -0.058564
   1 Pd:   -0.058559
   2 C :   -0.011348
   3 C :   -0.026393
   4 C :   -0.038718
   5 C :   -0.089493
   6 C :   -0.095950
   7 C :   -0.112906
   8 C :   -0.014619
   9 C :   -0.104280
  10 C :   -0.057318
  11 N :   -0.084292
  12 C :   -0.001666
  13 C :   -0.027759
  14 H :    0.195807
  15 H :    0.195785
  16 H :    0.193827
  17 H :    0.201435
  18 H :    0.183440
  19 H :    0.189173
  20 C :   -0.051800
  21 C :   -0.132576
  22 C :   -0.126612
  23 C :   -0.066449
  24 C :   -0.104014
  25 C :   -0.106155
  26 H :    0.170021
  27 H :    0.174798
  28 H :    0.192016
  29 H :    0.192878
  30 C :    0.020768
  31 C :   -0.051392
  32 C :   -0.044774
  33 C :   -0.067611
  34 C :   -0.119422
  35 C :   -0.033082
  36 N :   -0.075415
  37 C :   -0.019965
  38 H :    0.203357
  39 H :    0.202770
  40 H :    0.188996
  41 H :    0.187662
  42 C :   -0.009543
  43 C :   -0.031429
  44 C :   -0.038460
  45 C :   -0.089471
  46 C :   -0.095511
  47 C :   -0.114128
  48 C :   -0.014841
  49 C :   -0.104607
  50 C :   -0.058784
  51 N :   -0.084934
  52 C :   -0.001842
  53 C :   -0.028673
  54 H :    0.196670
  55 H :    0.195708
  56 H :    0.193530
  57 H :    0.201223
  58 H :    0.183479
  59 H :    0.189896
  60 C :   -0.056656
  61 C :   -0.129991
  62 C :   -0.124671
  63 C :   -0.066820
  64 C :   -0.108091
  65 C :   -0.110638
  66 H :    0.178369
  67 H :    0.180188
  68 H :    0.189693
  69 H :    0.191215
  70 C :    0.023825
  71 C :   -0.051639
  72 C :   -0.043384
  73 C :   -0.066633
  74 C :   -0.119136
  75 C :   -0.032615
  76 N :   -0.075608
  77 C :   -0.019255
  78 H :    0.203991
  79 H :    0.202774
  80 H :    0.188834
  81 H :    0.187819
  82 C :   -0.011296
  83 C :   -0.026388
  84 C :   -0.038750
  85 C :   -0.089491
  86 C :   -0.095963
  87 C :   -0.112911
  88 C :   -0.014620
  89 C :   -0.104278
  90 C :   -0.057206
  91 N :   -0.084337
  92 C :   -0.001605
  93 C :   -0.027739
  94 H :    0.195802
  95 H :    0.195789
  96 H :    0.193825
  97 H :    0.201431
  98 H :    0.183409
  99 H :    0.189162
 100 C :   -0.051714
 101 C :   -0.132501
 102 C :   -0.126556
 103 C :   -0.066342
 104 C :   -0.103943
 105 C :   -0.106150
 106 H :    0.170000
 107 H :    0.174626
 108 H :    0.192026
 109 H :    0.192886
 110 C :    0.020670
 111 C :   -0.051305
 112 C :   -0.044871
 113 C :   -0.067706
 114 C :   -0.119452
 115 C :   -0.033180
 116 N :   -0.075452
 117 C :   -0.019984
 118 H :    0.203327
 119 H :    0.202761
 120 H :    0.189098
 121 H :    0.187650
 122 C :   -0.009507
 123 C :   -0.031349
 124 C :   -0.038489
 125 C :   -0.089459
 126 C :   -0.095494
 127 C :   -0.114141
 128 C :   -0.014868
 129 C :   -0.104599
 130 C :   -0.058880
 131 N :   -0.084865
 132 C :   -0.001842
 133 C :   -0.028652
 134 H :    0.196706
 135 H :    0.195725
 136 H :    0.193531
 137 H :    0.201212
 138 H :    0.183449
 139 H :    0.189955
 140 C :   -0.056571
 141 C :   -0.110625
 142 C :   -0.107847
 143 C :   -0.066683
 144 C :   -0.124625
 145 C :   -0.129977
 146 H :    0.191235
 147 H :    0.189763
 148 H :    0.180011
 149 H :    0.178419
 150 C :    0.023756
 151 C :   -0.051589
 152 C :   -0.043421
 153 C :   -0.066740
 154 C :   -0.119229
 155 C :   -0.032746
 156 N :   -0.075579
 157 C :   -0.019513
 158 H :    0.203897
 159 H :    0.202734
 160 H :    0.188816
 161 H :    0.187900

  Mayer bond orders larger than 0.100000
B(  0-Pd, 36-N ) :   0.5199 B(  0-Pd, 76-N ) :   0.5336 B(  0-Pd, 91-N ) :   0.5447
B(  0-Pd,131-N ) :   0.5458 B(  1-Pd, 11-N ) :   0.5448 B(  1-Pd, 51-N ) :   0.5453
B(  1-Pd,116-N ) :   0.5205 B(  1-Pd,156-N ) :   0.5327 B(  2-C ,  3-C ) :   1.8689
B(  2-C ,  4-C ) :  -0.2927 B(  2-C , 13-C ) :   0.1028 B(  2-C , 20-C ) :   1.5638
B(  3-C ,  4-C ) :   1.4477 B(  3-C ,  8-C ) :   0.1047 B(  3-C , 13-C ) :  -0.2262
B(  3-C , 20-C ) :  -0.4090 B(  4-C ,  5-C ) :   1.5231 B(  4-C , 12-C ) :  -0.1260
B(  4-C , 13-C ) :   1.0197 B(  5-C ,  6-C ) :   1.4183 B(  5-C , 14-H ) :   0.8586
B(  6-C ,  7-C ) :   1.6268 B(  6-C , 15-H ) :   0.8727 B(  7-C ,  8-C ) :   1.3628
B(  7-C , 13-C ) :  -0.1241 B(  7-C , 16-H ) :   0.8594 B(  8-C ,  9-C ) :   1.2841
B(  8-C , 12-C ) :  -0.1254 B(  8-C , 13-C ) :   1.0539 B(  9-C , 10-C ) :   1.5925
B(  9-C , 17-H ) :   0.8736 B( 10-C , 11-N ) :   1.2455 B( 10-C , 18-H ) :   0.9111
B( 11-N , 12-C ) :   1.4287 B( 11-N ,116-N ) :   0.1008 B( 12-C , 13-C ) :   1.4050
B( 12-C , 19-H ) :   0.9009 B( 20-C , 21-C ) :   1.2523 B( 20-C , 25-C ) :   1.2907
B( 21-C , 22-C ) :   1.5080 B( 21-C , 26-H ) :   0.9387 B( 22-C , 23-C ) :   1.2938
B( 22-C , 27-H ) :   0.9168 B( 23-C , 24-C ) :   1.3035 B( 23-C , 30-C ) :   1.5420
B( 23-C , 31-C ) :  -0.4182 B( 24-C , 25-C ) :   1.5355 B( 24-C , 28-H ) :   0.8942
B( 25-C , 29-H ) :   0.8991 B( 30-C , 31-C ) :   1.8424 B( 30-C , 32-C ) :  -0.3061
B( 31-C , 32-C ) :   1.4390 B( 32-C , 33-C ) :   1.3534 B( 32-C , 37-C ) :   1.3071
B( 33-C , 34-C ) :   1.4752 B( 33-C , 38-H ) :   0.9127 B( 34-C , 35-C ) :   1.4176
B( 34-C , 39-H ) :   0.8706 B( 35-C , 36-N ) :   1.3586 B( 35-C , 40-H ) :   0.9235
B( 36-N , 37-C ) :   1.3834 B( 36-N , 91-N ) :   0.1010 B( 37-C , 41-H ) :   0.9463
B( 42-C , 43-C ) :   1.8603 B( 42-C , 44-C ) :  -0.2710 B( 42-C , 60-C ) :   1.5943
B( 43-C , 44-C ) :   1.4713 B( 43-C , 53-C ) :  -0.2559 B( 43-C , 60-C ) :  -0.4454
B( 44-C , 45-C ) :   1.5704 B( 44-C , 53-C ) :   1.0296 B( 45-C , 46-C ) :   1.4144
B( 45-C , 54-H ) :   0.8510 B( 46-C , 47-C ) :   1.6278 B( 46-C , 55-H ) :   0.8731
B( 47-C , 48-C ) :   1.3693 B( 47-C , 53-C ) :  -0.1231 B( 47-C , 56-H ) :   0.8596
B( 48-C , 49-C ) :   1.2777 B( 48-C , 52-C ) :  -0.1170 B( 48-C , 53-C ) :   1.0423
B( 49-C , 50-C ) :   1.5901 B( 49-C , 57-H ) :   0.8733 B( 50-C , 51-N ) :   1.2389
B( 50-C , 58-H ) :   0.9129 B( 51-N , 52-C ) :   1.4391 B( 52-C , 53-C ) :   1.3767
B( 52-C , 59-H ) :   0.8997 B( 60-C , 61-C ) :   1.3116 B( 60-C , 65-C ) :   1.3289
B( 61-C , 62-C ) :   1.5374 B( 61-C , 66-H ) :   0.9036 B( 62-C , 63-C ) :   1.2902
B( 62-C , 67-H ) :   0.9067 B( 63-C , 64-C ) :   1.3114 B( 63-C , 70-C ) :   1.5413
B( 63-C , 71-C ) :  -0.4128 B( 64-C , 65-C ) :   1.5455 B( 64-C , 68-H ) :   0.8921
B( 65-C , 69-H ) :   0.8906 B( 70-C , 71-C ) :   1.8340 B( 70-C , 72-C ) :  -0.3102
B( 71-C , 72-C ) :   1.4443 B( 72-C , 73-C ) :   1.3592 B( 72-C , 77-C ) :   1.3368
B( 73-C , 74-C ) :   1.4754 B( 73-C , 78-H ) :   0.9115 B( 74-C , 75-C ) :   1.4253
B( 74-C , 79-H ) :   0.8690 B( 75-C , 76-N ) :   1.3585 B( 75-C , 80-H ) :   0.9238
B( 76-N , 77-C ) :   1.3836 B( 77-C , 81-H ) :   0.9398 B( 82-C , 83-C ) :   1.8697
B( 82-C , 84-C ) :  -0.2926 B( 82-C , 93-C ) :   0.1027 B( 82-C ,100-C ) :   1.5635
B( 83-C , 84-C ) :   1.4479 B( 83-C , 88-C ) :   0.1045 B( 83-C , 93-C ) :  -0.2262
B( 83-C ,100-C ) :  -0.4093 B( 84-C , 85-C ) :   1.5233 B( 84-C , 92-C ) :  -0.1253
B( 84-C , 93-C ) :   1.0200 B( 85-C , 86-C ) :   1.4181 B( 85-C , 94-H ) :   0.8586
B( 86-C , 87-C ) :   1.6269 B( 86-C , 95-H ) :   0.8727 B( 87-C , 88-C ) :   1.3626
B( 87-C , 93-C ) :  -0.1242 B( 87-C , 96-H ) :   0.8594 B( 88-C , 89-C ) :   1.2841
B( 88-C , 92-C ) :  -0.1255 B( 88-C , 93-C ) :   1.0542 B( 89-C , 90-C ) :   1.5919
B( 89-C , 97-H ) :   0.8735 B( 90-C , 91-N ) :   1.2461 B( 90-C , 98-H ) :   0.9114
B( 91-N , 92-C ) :   1.4286 B( 92-C , 93-C ) :   1.4046 B( 92-C , 99-H ) :   0.9008
B(100-C ,101-C ) :   1.2527 B(100-C ,105-C ) :   1.2912 B(101-C ,102-C ) :   1.5078
B(101-C ,106-H ) :   0.9388 B(102-C ,103-C ) :   1.2929 B(102-C ,107-H ) :   0.9171
B(103-C ,104-C ) :   1.3022 B(103-C ,110-C ) :   1.5420 B(103-C ,111-C ) :  -0.4195
B(104-C ,105-C ) :   1.5349 B(104-C ,108-H ) :   0.8947 B(105-C ,109-H ) :   0.8990
B(110-C ,111-C ) :   1.8420 B(110-C ,112-C ) :  -0.3069 B(111-C ,112-C ) :   1.4389
B(112-C ,113-C ) :   1.3516 B(112-C ,117-C ) :   1.3060 B(113-C ,114-C ) :   1.4746
B(113-C ,118-H ) :   0.9131 B(114-C ,115-C ) :   1.4169 B(114-C ,119-H ) :   0.8708
B(115-C ,116-N ) :   1.3592 B(115-C ,120-H ) :   0.9233 B(116-N ,117-C ) :   1.3839
B(117-C ,121-H ) :   0.9465 B(122-C ,123-C ) :   1.8596 B(122-C ,124-C ) :  -0.2715
B(122-C ,140-C ) :   1.5937 B(123-C ,124-C ) :   1.4724 B(123-C ,133-C ) :  -0.2560
B(123-C ,140-C ) :  -0.4447 B(124-C ,125-C ) :   1.5710 B(124-C ,133-C ) :   1.0307
B(125-C ,126-C ) :   1.4142 B(125-C ,134-H ) :   0.8506 B(126-C ,127-C ) :   1.6278
B(126-C ,135-H ) :   0.8731 B(127-C ,128-C ) :   1.3695 B(127-C ,133-C ) :  -0.1231
B(127-C ,136-H ) :   0.8596 B(128-C ,129-C ) :   1.2779 B(128-C ,132-C ) :  -0.1171
B(128-C ,133-C ) :   1.0425 B(129-C ,130-C ) :   1.5905 B(129-C ,137-H ) :   0.8732
B(130-C ,131-N ) :   1.2389 B(130-C ,138-H ) :   0.9128 B(131-N ,132-C ) :   1.4385
B(132-C ,133-C ) :   1.3772 B(132-C ,139-H ) :   0.8995 B(140-C ,141-C ) :   1.3289
B(140-C ,145-C ) :   1.3132 B(141-C ,142-C ) :   1.5448 B(141-C ,146-H ) :   0.8903
B(142-C ,143-C ) :   1.3091 B(142-C ,147-H ) :   0.8925 B(143-C ,144-C ) :   1.2888
B(143-C ,150-C ) :   1.5428 B(143-C ,151-C ) :  -0.4166 B(144-C ,145-C ) :   1.5378
B(144-C ,148-H ) :   0.9077 B(145-C ,149-H ) :   0.9032 B(150-C ,151-C ) :   1.8325
B(150-C ,152-C ) :  -0.3111 B(151-C ,152-C ) :   1.4438 B(152-C ,153-C ) :   1.3579
B(152-C ,157-C ) :   1.3333 B(153-C ,154-C ) :   1.4752 B(153-C ,158-H ) :   0.9121
B(154-C ,155-C ) :   1.4251 B(154-C ,159-H ) :   0.8692 B(155-C ,156-N ) :   1.3583
B(155-C ,160-H ) :   0.9239 B(156-N ,157-C ) :   1.3834 B(157-C ,161-H ) :   0.9402

Dispersion correction           -0.602755752
FINAL SINGLE POINT ENERGY     -4383.045217104246

DIPOLE MOMENT
-------------
                                X             Y             Z
Electronic contribution:     -1.11768      -0.08017       1.23519
Nuclear contribution   :      1.12351       0.09828      -1.25394
                        -----------------------------------------
Total Dipole Moment    :      0.00583       0.01811      -0.01875
                        -----------------------------------------
Magnitude (a.u.)       :      0.02672
Magnitude (Debye)      :      0.06791

Rotational constants in cm-1:     0.000705     0.000247     0.000244
Rotational constants in MHz :    21.121070     7.397968     7.315323

                             ****ORCA TERMINATED NORMALLY****
TOTAL RUN TIME: 0 days 0 hours 10 minutes 26 seconds 185 msec
