                         Program Version 4.2.1 -  RELEASE  -
|  1> ! DFT SP RKS PBE0 def2-SVP D3BJ Grid6 NOFINALGRID SlowConv TightSCF printbasis
|  2>
|  3> %base "_s_4b1_a_PBE0"
|  4> %maxcore 3000
|  5> %scf
|  6>    MaxIter 2000
|  7> end
|  8> %pal
|  9>    nprocs 32
| 10> end
| 11>
| 12> * xyzfile 4 1 s_4b1_a.xyz
| 13>
| 14>                          ****END OF INPUT****

CARTESIAN COORDINATES (ANGSTROEM)
---------------------------------
  Pd     0.515800    5.842300    0.104800
  Pd     1.239200   -5.491100   -0.041000
  C      5.582500    2.011600   -0.336600
  C      5.582100    3.198300   -0.572400
  C      5.769800    4.555200   -0.899000
  C      7.042900    4.968600   -1.254100
  C      7.305800    6.296500   -1.601400
  C      6.300100    7.229900   -1.605600
  C      4.991400    6.853200   -1.254800
  C      3.919900    7.773000   -1.247200
  C      2.672200    7.357100   -0.890400
  N      2.406700    6.072400   -0.535700
  C      3.379900    5.181300   -0.539400
  C      4.704000    5.504600   -0.890400
  H      7.847000    4.248800   -1.258600
  H      8.311500    6.581300   -1.869400
  H      6.497400    8.255200   -1.876000
  H      4.100400    8.799700   -1.523000
  H      1.833100    8.051500   -0.885600
  H      3.118800    4.166600   -0.254100
  C      5.506400    0.621800   -0.113300
  C      4.576100    0.096100    0.788100
  C      4.438300   -1.269000    0.913500
  C      5.223000   -2.139600    0.151200
  C      6.204200   -1.611600   -0.688400
  C      6.344000   -0.244800   -0.823100
  H      3.965500    0.763300    1.374500
  H      3.729700   -1.669300    1.621800
  H      6.827700   -2.272100   -1.270800
  H      7.083600    0.159900   -1.496500
  C      4.933500   -3.580700    0.163800
  C      5.901000   -4.589900    0.163800
  C      5.494600   -5.914300    0.137300
  C      4.140900   -6.218800    0.098500
  N      3.218600   -5.257000    0.087400
  C      3.601200   -3.979200    0.122400
  H      6.949500   -4.338000    0.198900
  H      6.221400   -6.710500    0.144600
  H      3.779400   -7.240900    0.072200
  H      2.813800   -3.224100    0.095600
  C      1.197000    1.663200    4.861800
  C      1.374500    2.856700    4.950200
  C      1.636000    4.210000    5.239000
  C      1.987900    4.541700    6.536600
  C      2.271900    5.861400    6.898300
  C      2.214700    6.868600    5.968200
  C      1.865000    6.576400    4.637900
  C      1.795900    7.574500    3.641200
  C      1.444500    7.238000    2.368300
  N      1.153700    5.960700    2.006800
  C      1.215100    4.998700    2.907900
  C      1.565600    5.236900    4.250100
  H      2.039600    3.763300    7.282300
  H      2.539500    6.081200    7.920300
  H      2.435700    7.888200    6.241900
  H      2.020800    8.597200    3.898500
  H      1.392500    7.994000    1.586000
  H      0.978900    3.993700    2.571200
  C      1.043200    0.273600    4.681800
  C      1.812300   -0.615700    5.439600
  C      1.745900   -1.973000    5.196700
  C      0.916800   -2.468300    4.190000
  C      0.096100   -1.582000    3.485900
  C      0.153200   -0.226600    3.726900
  H      2.477500   -0.233400    6.198300
  H      2.373200   -2.647400    5.758800
  H     -0.603500   -1.964000    2.758900
  H     -0.478500    0.453100    3.178100
  C      0.973900   -3.881700    3.790400
  C      1.043000   -4.960300    4.677200
  C      1.132200   -6.246500    4.169900
  C      1.165300   -6.444400    2.796400
  N      1.110600   -5.415900    1.950700
  C      1.013900   -4.174700    2.430900
  H      1.012500   -4.791100    5.742400
  H      1.178500   -7.095100    4.833300
  H      1.239800   -7.433100    2.357000
  H      0.986900   -3.361600    1.703700
  C     -4.018800    1.384200    0.458000
  C     -4.167300    2.554400    0.727200
  C     -4.524100    3.866800    1.092300
  C     -5.836000    4.103400    1.467300
  C     -6.264000    5.377000    1.852000
  C     -5.386800    6.431900    1.873800
  C     -4.044300    6.236100    1.504000
  C     -3.100300    7.286400    1.513100
  C     -1.812900    7.043800    1.138000
  N     -1.387300    5.813000    0.749700
  C     -2.237700    4.804100    0.735900
  C     -3.589200    4.945500    1.102500
  H     -6.540800    3.286200    1.457800
  H     -7.295200    5.522800    2.134600
  H     -5.711700    7.416000    2.172600
  H     -3.409000    8.274200    1.816000
  H     -1.070600    7.840800    1.145100
  H     -1.850700    3.838900    0.423300
  C     -3.769200    0.021700    0.196600
  C     -2.788700   -0.358700   -0.724300
  C     -2.480200   -1.691700   -0.886300
  C     -3.140700   -2.673900   -0.142100
  C     -4.173000   -2.296200    0.717000
  C     -4.483600   -0.962100    0.888500
  H     -2.273200    0.395100   -1.297100
  H     -1.733500   -1.980800   -1.609500
  H     -4.702100   -3.045000    1.285800
  H     -5.262000   -0.671600    1.576800
  C     -2.669900   -4.065400   -0.192900
  C     -3.500500   -5.189900   -0.213700
  C     -2.927900   -6.451500   -0.221800
  C     -1.546100   -6.581200   -0.196100
  N     -0.754200   -5.509900   -0.165200
  C     -1.297300   -4.291100   -0.167400
  H     -4.572800   -5.073400   -0.237700
  H     -3.547000   -7.333900   -0.245800
  H     -1.056900   -7.549100   -0.196200
  H     -0.612900   -3.442200   -0.125700
  C      0.378300    1.732500   -4.758800
  C      0.050500    2.895700   -4.817700
  C     -0.380800    4.211600   -5.073500
  C     -0.768500    4.529400   -6.364400
  C     -1.217900    5.811000   -6.694000
  C     -1.292800    6.792500   -5.738100
  C     -0.912300    6.512800   -4.413600
  C     -0.974200    7.485200   -3.391400
  C     -0.585500    7.163500   -2.125500
  N     -0.133700    5.925100   -1.795200
  C     -0.069400    4.986900   -2.720800
  C     -0.444800    5.213000   -4.058300
  H     -0.718100    3.770500   -7.130100
  H     -1.508400    6.021400   -7.711800
  H     -1.641800    7.782300   -5.987000
  H     -1.327900    8.477000   -3.623800
  H     -0.633000    7.899300   -1.323900
  H      0.292800    4.012000   -2.408600
  C      0.708400    0.369800   -4.613600
  C      0.066000   -0.590100   -5.402600
  C      0.305100   -1.933700   -5.194600
  C      1.183800   -2.345400   -4.192300
  C      1.878400   -1.380300   -3.456800
  C      1.648800   -0.037500   -3.662800
  H     -0.637300   -0.276000   -6.158200
  H     -0.225800   -2.667600   -5.780900
  H      2.616400   -1.688800   -2.732700
  H      2.183600    0.702600   -3.089800
  C      1.306200   -3.764500   -3.829400
  C      1.383400   -4.819500   -4.743600
  C      1.457700   -6.119200   -4.269400
  C      1.441500   -6.355500   -2.901600
  N      1.356600   -5.351000   -2.030000
  C      1.294600   -4.095700   -2.478200
  H      1.399400   -4.620100   -5.803800
  H      1.525900   -6.949100   -4.954200
  H      1.492800   -7.356600   -2.488000
  H      1.209900   -3.305000   -1.730900

 Total Charge           Charge          ....    4
 Multiplicity           Mult            ....    1
 Number of Electrons    NEL             ....  672
 Basis Dimension        Dim             .... 1686

ORBITAL ENERGIES
----------------

  NO   OCC          E(Eh)            E(eV)
   0   2.0000     -14.763177      -401.7265
   1   2.0000     -14.763099      -401.7243
   2   2.0000     -14.763072      -401.7236
   3   2.0000     -14.763032      -401.7225
   4   2.0000     -14.745121      -401.2352
   5   2.0000     -14.745060      -401.2335
   6   2.0000     -14.745044      -401.2330
   7   2.0000     -14.745023      -401.2325
   8   2.0000     -10.593126      -288.2536
   9   2.0000     -10.593097      -288.2528
  10   2.0000     -10.593048      -288.2515
  11   2.0000     -10.593018      -288.2507
  12   2.0000     -10.589026      -288.1420
  13   2.0000     -10.589013      -288.1417
  14   2.0000     -10.588944      -288.1398
  15   2.0000     -10.588928      -288.1394
  16   2.0000     -10.583734      -287.9981
  17   2.0000     -10.583704      -287.9972
  18   2.0000     -10.583680      -287.9966
  19   2.0000     -10.583658      -287.9960
  20   2.0000     -10.567585      -287.5586
  21   2.0000     -10.567562      -287.5580
  22   2.0000     -10.567543      -287.5575
  23   2.0000     -10.567518      -287.5568
  24   2.0000     -10.561909      -287.4041
  25   2.0000     -10.561898      -287.4039
  26   2.0000     -10.561831      -287.4020
  27   2.0000     -10.561826      -287.4019
  28   2.0000     -10.556058      -287.2449
  29   2.0000     -10.556047      -287.2447
  30   2.0000     -10.555972      -287.2426
  31   2.0000     -10.555966      -287.2425
  32   2.0000     -10.548393      -287.0364
  33   2.0000     -10.548388      -287.0362
  34   2.0000     -10.548309      -287.0341
  35   2.0000     -10.548300      -287.0338
  36   2.0000     -10.544191      -286.9220
  37   2.0000     -10.544165      -286.9213
  38   2.0000     -10.544140      -286.9206
  39   2.0000     -10.544122      -286.9202
  40   2.0000     -10.543857      -286.9129
  41   2.0000     -10.543830      -286.9122
  42   2.0000     -10.543806      -286.9115
  43   2.0000     -10.543787      -286.9110
  44   2.0000     -10.540341      -286.8173
  45   2.0000     -10.540322      -286.8167
  46   2.0000     -10.540286      -286.8158
  47   2.0000     -10.540269      -286.8153
  48   2.0000     -10.538483      -286.7667
  49   2.0000     -10.538481      -286.7666
  50   2.0000     -10.538432      -286.7653
  51   2.0000     -10.538413      -286.7648
  52   2.0000     -10.535793      -286.6935
  53   2.0000     -10.535789      -286.6934
  54   2.0000     -10.535722      -286.6916
  55   2.0000     -10.535710      -286.6912
  56   2.0000     -10.533055      -286.6190
  57   2.0000     -10.533028      -286.6183
  58   2.0000     -10.533007      -286.6177
  59   2.0000     -10.532996      -286.6174
  60   2.0000     -10.523443      -286.3574
  61   2.0000     -10.523407      -286.3565
  62   2.0000     -10.523361      -286.3552
  63   2.0000     -10.523361      -286.3552
  64   2.0000     -10.521426      -286.3025
  65   2.0000     -10.521413      -286.3022
  66   2.0000     -10.521361      -286.3008
  67   2.0000     -10.521360      -286.3007
  68   2.0000     -10.519033      -286.2374
  69   2.0000     -10.519011      -286.2369
  70   2.0000     -10.518960      -286.2355
  71   2.0000     -10.518941      -286.2349
  72   2.0000     -10.517028      -286.1829
  73   2.0000     -10.517019      -286.1826
  74   2.0000     -10.516986      -286.1817
  75   2.0000     -10.516970      -286.1813
  76   2.0000     -10.516506      -286.1687
  77   2.0000     -10.516470      -286.1677
  78   2.0000     -10.516437      -286.1668
  79   2.0000     -10.516411      -286.1661
  80   2.0000     -10.512581      -286.0619
  81   2.0000     -10.512572      -286.0616
  82   2.0000     -10.512538      -286.0607
  83   2.0000     -10.512524      -286.0603
  84   2.0000     -10.512349      -286.0556
  85   2.0000     -10.512327      -286.0549
  86   2.0000     -10.512300      -286.0542
  87   2.0000     -10.512282      -286.0537
  88   2.0000     -10.511791      -286.0404
  89   2.0000     -10.511769      -286.0398
  90   2.0000     -10.511740      -286.0390
  91   2.0000     -10.511723      -286.0385
  92   2.0000     -10.509970      -285.9908
  93   2.0000     -10.509961      -285.9906
  94   2.0000     -10.509925      -285.9896
  95   2.0000     -10.509913      -285.9893
  96   2.0000      -3.860494      -105.0494
  97   2.0000      -3.844383      -104.6110
  98   2.0000      -2.537837       -69.0581
  99   2.0000      -2.537797       -69.0570
 100   2.0000      -2.521399       -68.6107
 101   2.0000      -2.521378       -68.6102
 102   2.0000      -2.501049       -68.0570
 103   2.0000      -2.484867       -67.6167
 104   2.0000      -1.316518       -35.8243
 105   2.0000      -1.309053       -35.6211
 106   2.0000      -1.309009       -35.6199
 107   2.0000      -1.308109       -35.5954
 108   2.0000      -1.296194       -35.2712
 109   2.0000      -1.288971       -35.0747
 110   2.0000      -1.288949       -35.0741
 111   2.0000      -1.287882       -35.0451
 112   2.0000      -1.180260       -32.1165
 113   2.0000      -1.179723       -32.1019
 114   2.0000      -1.179698       -32.1012
 115   2.0000      -1.179658       -32.1001
 116   2.0000      -1.175212       -31.9791
 117   2.0000      -1.174097       -31.9488
 118   2.0000      -1.174065       -31.9479
 119   2.0000      -1.174043       -31.9473
 120   2.0000      -1.144047       -31.1311
 121   2.0000      -1.142192       -31.0806
 122   2.0000      -1.141809       -31.0702
 123   2.0000      -1.141800       -31.0700
 124   2.0000      -1.115096       -30.3433
 125   2.0000      -1.113407       -30.2974
 126   2.0000      -1.113403       -30.2972
 127   2.0000      -1.112604       -30.2755
 128   2.0000      -1.110801       -30.2264
 129   2.0000      -1.109548       -30.1923
 130   2.0000      -1.109543       -30.1922
 131   2.0000      -1.108445       -30.1623
 132   2.0000      -1.080230       -29.3946
 133   2.0000      -1.078497       -29.3474
 134   2.0000      -1.077942       -29.3323
 135   2.0000      -1.077929       -29.3319
 136   2.0000      -1.077874       -29.3304
 137   2.0000      -1.077378       -29.3169
 138   2.0000      -1.077375       -29.3169
 139   2.0000      -1.076111       -29.2825
 140   2.0000      -1.059433       -28.8286
 141   2.0000      -1.058463       -28.8022
 142   2.0000      -1.058456       -28.8020
 143   2.0000      -1.057192       -28.7677
 144   2.0000      -1.051059       -28.6008
 145   2.0000      -1.051013       -28.5995
 146   2.0000      -1.050974       -28.5985
 147   2.0000      -1.050944       -28.5976
 148   2.0000      -1.015888       -27.6437
 149   2.0000      -1.015311       -27.6280
 150   2.0000      -1.015308       -27.6279
 151   2.0000      -1.014449       -27.6046
 152   2.0000      -0.977378       -26.5958
 153   2.0000      -0.975694       -26.5500
 154   2.0000      -0.975686       -26.5498
 155   2.0000      -0.973000       -26.4767
 156   2.0000      -0.967949       -26.3392
 157   2.0000      -0.966699       -26.3052
 158   2.0000      -0.964304       -26.2401
 159   2.0000      -0.964297       -26.2399
 160   2.0000      -0.963073       -26.2065
 161   2.0000      -0.962773       -26.1984
 162   2.0000      -0.962155       -26.1816
 163   2.0000      -0.962144       -26.1813
 164   2.0000      -0.943875       -25.6842
 165   2.0000      -0.940960       -25.6048
 166   2.0000      -0.940955       -25.6047
 167   2.0000      -0.940534       -25.5932
 168   2.0000      -0.926300       -25.2059
 169   2.0000      -0.924312       -25.1518
 170   2.0000      -0.924306       -25.1516
 171   2.0000      -0.924142       -25.1472
 172   2.0000      -0.908421       -24.7194
 173   2.0000      -0.908062       -24.7096
 174   2.0000      -0.908054       -24.7094
 175   2.0000      -0.907788       -24.7022
 176   2.0000      -0.907340       -24.6900
 177   2.0000      -0.904651       -24.6168
 178   2.0000      -0.903166       -24.5764
 179   2.0000      -0.903162       -24.5763
 180   2.0000      -0.876113       -23.8403
 181   2.0000      -0.865250       -23.5446
 182   2.0000      -0.861608       -23.4455
 183   2.0000      -0.861597       -23.4452
 184   2.0000      -0.859842       -23.3975
 185   2.0000      -0.853070       -23.2132
 186   2.0000      -0.852383       -23.1945
 187   2.0000      -0.852380       -23.1944
 188   2.0000      -0.838082       -22.8054
 189   2.0000      -0.833325       -22.6759
 190   2.0000      -0.833318       -22.6757
 191   2.0000      -0.832874       -22.6637
 192   2.0000      -0.832130       -22.6434
 193   2.0000      -0.831184       -22.6177
 194   2.0000      -0.831041       -22.6138
 195   2.0000      -0.831037       -22.6137
 196   2.0000      -0.825752       -22.4698
 197   2.0000      -0.825708       -22.4687
 198   2.0000      -0.825674       -22.4677
 199   2.0000      -0.823795       -22.4166
 200   2.0000      -0.822727       -22.3875
 201   2.0000      -0.819712       -22.3055
 202   2.0000      -0.810015       -22.0416
 203   2.0000      -0.810006       -22.0414
 204   2.0000      -0.800160       -21.7735
 205   2.0000      -0.793737       -21.5987
 206   2.0000      -0.793688       -21.5973
 207   2.0000      -0.793671       -21.5969
 208   2.0000      -0.792337       -21.5606
 209   2.0000      -0.783412       -21.3177
 210   2.0000      -0.781439       -21.2640
 211   2.0000      -0.775623       -21.1058
 212   2.0000      -0.775621       -21.1057
 213   2.0000      -0.775333       -21.0979
 214   2.0000      -0.774084       -21.0639
 215   2.0000      -0.771733       -20.9999
 216   2.0000      -0.767568       -20.8866
 217   2.0000      -0.767498       -20.8847
 218   2.0000      -0.766826       -20.8664
 219   2.0000      -0.764503       -20.8032
 220   2.0000      -0.761962       -20.7340
 221   2.0000      -0.761010       -20.7081
 222   2.0000      -0.760990       -20.7076
 223   2.0000      -0.760475       -20.6936
 224   2.0000      -0.758758       -20.6468
 225   2.0000      -0.757680       -20.6175
 226   2.0000      -0.757679       -20.6175
 227   2.0000      -0.754453       -20.5297
 228   2.0000      -0.753750       -20.5106
 229   2.0000      -0.753629       -20.5073
 230   2.0000      -0.751452       -20.4481
 231   2.0000      -0.749820       -20.4036
 232   2.0000      -0.745335       -20.2816
 233   2.0000      -0.745287       -20.2803
 234   2.0000      -0.736903       -20.0522
 235   2.0000      -0.736877       -20.0515
 236   2.0000      -0.735417       -20.0117
 237   2.0000      -0.735382       -20.0108
 238   2.0000      -0.735159       -20.0047
 239   2.0000      -0.734094       -19.9757
 240   2.0000      -0.733649       -19.9636
 241   2.0000      -0.732538       -19.9334
 242   2.0000      -0.731061       -19.8932
 243   2.0000      -0.731055       -19.8930
 244   2.0000      -0.731008       -19.8917
 245   2.0000      -0.730559       -19.8795
 246   2.0000      -0.730548       -19.8792
 247   2.0000      -0.726256       -19.7624
 248   2.0000      -0.719964       -19.5912
 249   2.0000      -0.718788       -19.5592
 250   2.0000      -0.718765       -19.5586
 251   2.0000      -0.718706       -19.5570
 252   2.0000      -0.714978       -19.4555
 253   2.0000      -0.707206       -19.2441
 254   2.0000      -0.704517       -19.1709
 255   2.0000      -0.702461       -19.1149
 256   2.0000      -0.702442       -19.1144
 257   2.0000      -0.701824       -19.0976
 258   2.0000      -0.695676       -18.9303
 259   2.0000      -0.695664       -18.9300
 260   2.0000      -0.691042       -18.8042
 261   2.0000      -0.690976       -18.8024
 262   2.0000      -0.688535       -18.7360
 263   2.0000      -0.687407       -18.7053
 264   2.0000      -0.686777       -18.6882
 265   2.0000      -0.686278       -18.6746
 266   2.0000      -0.686262       -18.6742
 267   2.0000      -0.682075       -18.5602
 268   2.0000      -0.680553       -18.5188
 269   2.0000      -0.675011       -18.3680
 270   2.0000      -0.674973       -18.3670
 271   2.0000      -0.666426       -18.1344
 272   2.0000      -0.665519       -18.1097
 273   2.0000      -0.663918       -18.0661
 274   2.0000      -0.663911       -18.0659
 275   2.0000      -0.661882       -18.0107
 276   2.0000      -0.661875       -18.0105
 277   2.0000      -0.659012       -17.9326
 278   2.0000      -0.658191       -17.9103
 279   2.0000      -0.648333       -17.6420
 280   2.0000      -0.648320       -17.6417
 281   2.0000      -0.648315       -17.6416
 282   2.0000      -0.646064       -17.5803
 283   2.0000      -0.644259       -17.5312
 284   2.0000      -0.642726       -17.4895
 285   2.0000      -0.642722       -17.4893
 286   2.0000      -0.642049       -17.4710
 287   2.0000      -0.641909       -17.4672
 288   2.0000      -0.641336       -17.4516
 289   2.0000      -0.638869       -17.3845
 290   2.0000      -0.638853       -17.3841
 291   2.0000      -0.633254       -17.2317
 292   2.0000      -0.628241       -17.0953
 293   2.0000      -0.628211       -17.0945
 294   2.0000      -0.626808       -17.0563
 295   2.0000      -0.626789       -17.0558
 296   2.0000      -0.625448       -17.0193
 297   2.0000      -0.622013       -16.9258
 298   2.0000      -0.622010       -16.9258
 299   2.0000      -0.615840       -16.7579
 300   2.0000      -0.615827       -16.7575
 301   2.0000      -0.614924       -16.7329
 302   2.0000      -0.613238       -16.6871
 303   2.0000      -0.609668       -16.5899
 304   2.0000      -0.609649       -16.5894
 305   2.0000      -0.605011       -16.4632
 306   2.0000      -0.600664       -16.3449
 307   2.0000      -0.600638       -16.3442
 308   2.0000      -0.597785       -16.2666
 309   2.0000      -0.594381       -16.1739
 310   2.0000      -0.582909       -15.8618
 311   2.0000      -0.580700       -15.8017
 312   2.0000      -0.580181       -15.7875
 313   2.0000      -0.580136       -15.7863
 314   2.0000      -0.577350       -15.7105
 315   2.0000      -0.567463       -15.4414
 316   2.0000      -0.567441       -15.4409
 317   2.0000      -0.565578       -15.3902
 318   2.0000      -0.565550       -15.3894
 319   2.0000      -0.563328       -15.3289
 320   2.0000      -0.563313       -15.3285
 321   2.0000      -0.563313       -15.3285
 322   2.0000      -0.560513       -15.2523
 323   2.0000      -0.557144       -15.1607
 324   2.0000      -0.552721       -15.0403
 325   2.0000      -0.552089       -15.0231
 326   2.0000      -0.552077       -15.0228
 327   2.0000      -0.551414       -15.0047
 328   2.0000      -0.538194       -14.6450
 329   2.0000      -0.536834       -14.6080
 330   2.0000      -0.536784       -14.6066
 331   2.0000      -0.535156       -14.5623
 332   2.0000      -0.499480       -13.5915
 333   2.0000      -0.498985       -13.5781
 334   2.0000      -0.498960       -13.5774
 335   2.0000      -0.497797       -13.5458
 336   0.0000      -0.357407        -9.7255
 337   0.0000      -0.356883        -9.7113
 338   0.0000      -0.356846        -9.7103
 339   0.0000      -0.352354        -9.5881
 340   0.0000      -0.350947        -9.5498

MULLIKEN ATOMIC CHARGES
-----------------------
   0 Pd:    0.424058
   1 Pd:    0.447343
   2 C :    0.015084
   3 C :   -0.062162
   4 C :   -0.011659
   5 C :    0.026045
   6 C :    0.033228
   7 C :    0.021657
   8 C :    0.025610
   9 C :    0.001273
  10 C :    0.115959
  11 N :   -0.310872
  12 C :    0.160794
  13 C :   -0.001994
  14 H :    0.054211
  15 H :    0.077901
  16 H :    0.055345
  17 H :    0.060848
  18 H :    0.069856
  19 H :    0.053161
  20 C :   -0.058638
  21 C :    0.022280
  22 C :   -0.033950
  23 C :    0.015574
  24 C :   -0.000832
  25 C :    0.034148
  26 H :    0.018432
  27 H :    0.018529
  28 H :    0.042801
  29 H :    0.051249
  30 C :   -0.028549
  31 C :    0.080502
  32 C :   -0.024619
  33 C :    0.134960
  34 N :   -0.301205
  35 C :    0.115587
  36 H :    0.076932
  37 H :    0.089930
  38 H :    0.093837
  39 H :    0.050647
  40 C :    0.014957
  41 C :   -0.061953
  42 C :   -0.011601
  43 C :    0.026014
  44 C :    0.033212
  45 C :    0.021577
  46 C :    0.025604
  47 C :    0.001246
  48 C :    0.116121
  49 N :   -0.310924
  50 C :    0.160592
  51 C :   -0.001920
  52 H :    0.054189
  53 H :    0.077911
  54 H :    0.055354
  55 H :    0.060823
  56 H :    0.069881
  57 H :    0.053253
  58 C :   -0.058945
  59 C :    0.034068
  60 C :   -0.000910
  61 C :    0.015040
  62 C :   -0.033574
  63 C :    0.022255
  64 H :    0.051159
  65 H :    0.042695
  66 H :    0.018785
  67 H :    0.018884
  68 C :   -0.028595
  69 C :    0.080538
  70 C :   -0.024630
  71 C :    0.134999
  72 N :   -0.301269
  73 C :    0.115723
  74 H :    0.077013
  75 H :    0.089982
  76 H :    0.093882
  77 H :    0.050695
  78 C :    0.015054
  79 C :   -0.062181
  80 C :   -0.011556
  81 C :    0.025964
  82 C :    0.033193
  83 C :    0.021608
  84 C :    0.025645
  85 C :    0.001172
  86 C :    0.116237
  87 N :   -0.310872
  88 C :    0.160719
  89 C :   -0.001970
  90 H :    0.054169
  91 H :    0.077930
  92 H :    0.055345
  93 H :    0.060865
  94 H :    0.069664
  95 H :    0.053242
  96 C :   -0.058827
  97 C :    0.022338
  98 C :   -0.033897
  99 C :    0.015383
 100 C :   -0.000742
 101 C :    0.034081
 102 H :    0.018637
 103 H :    0.018746
 104 H :    0.042754
 105 H :    0.051132
 106 C :   -0.028742
 107 C :    0.080769
 108 C :   -0.024778
 109 C :    0.135090
 110 N :   -0.300981
 111 C :    0.115254
 112 H :    0.076938
 113 H :    0.090028
 114 H :    0.093890
 115 H :    0.050980
 116 C :    0.015115
 117 C :   -0.062216
 118 C :   -0.011556
 119 C :    0.025972
 120 C :    0.033177
 121 C :    0.021565
 122 C :    0.025661
 123 C :    0.001237
 124 C :    0.116185
 125 N :   -0.310893
 126 C :    0.160834
 127 C :   -0.002032
 128 H :    0.054214
 129 H :    0.077951
 130 H :    0.055388
 131 H :    0.060858
 132 H :    0.069719
 133 H :    0.053168
 134 C :   -0.058760
 135 C :    0.034062
 136 C :   -0.000681
 137 C :    0.015301
 138 C :   -0.033814
 139 C :    0.022272
 140 H :    0.051191
 141 H :    0.042766
 142 H :    0.018619
 143 H :    0.018627
 144 C :   -0.028678
 145 C :    0.080781
 146 C :   -0.024754
 147 C :    0.135153
 148 N :   -0.300999
 149 C :    0.115300
 150 H :    0.076948
 151 H :    0.089989
 152 H :    0.093826
 153 H :    0.050796
Sum of atomic charges:    4.0000000

LOEWDIN ATOMIC CHARGES
----------------------
   0 Pd:   -0.339763
   1 Pd:   -0.336420
   2 C :   -0.008686
   3 C :   -0.028353
   4 C :   -0.028484
   5 C :    0.038996
   6 C :    0.033005
   7 C :    0.013811
   8 C :    0.009502
   9 C :    0.017087
  10 C :    0.037015
  11 N :    0.059904
  12 C :    0.094666
  13 C :   -0.021082
  14 H :    0.057780
  15 H :    0.062406
  16 H :    0.055589
  17 H :    0.062205
  18 H :    0.052754
  19 H :    0.050499
  20 C :   -0.039096
  21 C :    0.001985
  22 C :   -0.022811
  23 C :   -0.033738
  24 C :    0.000786
  25 C :    0.022246
  26 H :    0.040587
  27 H :    0.034208
  28 H :    0.046939
  29 H :    0.054568
  30 C :   -0.009784
  31 C :    0.059307
  32 C :    0.009301
  33 C :    0.075126
  34 N :    0.071725
  35 C :    0.061812
  36 H :    0.062525
  37 H :    0.069200
  38 H :    0.060615
  39 H :    0.044795
  40 C :   -0.008708
  41 C :   -0.028383
  42 C :   -0.028476
  43 C :    0.038980
  44 C :    0.033023
  45 C :    0.013787
  46 C :    0.009495
  47 C :    0.017122
  48 C :    0.036982
  49 N :    0.059934
  50 C :    0.094650
  51 C :   -0.021084
  52 H :    0.057771
  53 H :    0.062408
  54 H :    0.055595
  55 H :    0.062192
  56 H :    0.052734
  57 H :    0.050523
  58 C :   -0.039182
  59 C :    0.022173
  60 C :    0.000591
  61 C :   -0.033776
  62 C :   -0.022667
  63 C :    0.002062
  64 H :    0.054520
  65 H :    0.046895
  66 H :    0.034335
  67 H :    0.040760
  68 C :   -0.009782
  69 C :    0.059298
  70 C :    0.009293
  71 C :    0.075174
  72 N :    0.071678
  73 C :    0.061864
  74 H :    0.062569
  75 H :    0.069231
  76 H :    0.060633
  77 H :    0.044765
  78 C :   -0.008694
  79 C :   -0.028416
  80 C :   -0.028470
  81 C :    0.038979
  82 C :    0.033021
  83 C :    0.013789
  84 C :    0.009496
  85 C :    0.017131
  86 C :    0.037001
  87 N :    0.059944
  88 C :    0.094679
  89 C :   -0.021082
  90 H :    0.057757
  91 H :    0.062417
  92 H :    0.055593
  93 H :    0.062209
  94 H :    0.052714
  95 H :    0.050519
  96 C :   -0.039149
  97 C :    0.002024
  98 C :   -0.022744
  99 C :   -0.033721
 100 C :    0.000696
 101 C :    0.022210
 102 H :    0.040672
 103 H :    0.034303
 104 H :    0.046921
 105 H :    0.054499
 106 C :   -0.009753
 107 C :    0.059333
 108 C :    0.009294
 109 C :    0.075224
 110 N :    0.071760
 111 C :    0.061769
 112 H :    0.062540
 113 H :    0.069246
 114 H :    0.060642
 115 H :    0.044786
 116 C :   -0.008672
 117 C :   -0.028396
 118 C :   -0.028466
 119 C :    0.038983
 120 C :    0.033006
 121 C :    0.013776
 122 C :    0.009495
 123 C :    0.017122
 124 C :    0.036992
 125 N :    0.059927
 126 C :    0.094687
 127 C :   -0.021074
 128 H :    0.057781
 129 H :    0.062431
 130 H :    0.055613
 131 H :    0.062205
 132 H :    0.052734
 133 H :    0.050502
 134 C :   -0.039139
 135 C :    0.022220
 136 C :    0.000735
 137 C :   -0.033735
 138 C :   -0.022766
 139 C :    0.002003
 140 H :    0.054534
 141 H :    0.046937
 142 H :    0.034261
 143 H :    0.040661
 144 C :   -0.009742
 145 C :    0.059342
 146 C :    0.009312
 147 C :    0.075254
 148 N :    0.071738
 149 C :    0.061758
 150 H :    0.062546
 151 H :    0.069225
 152 H :    0.060602
 153 H :    0.044762

  Mayer bond orders larger than 0.100000
B(  0-Pd, 11-N ) :   0.5400 B(  0-Pd, 49-N ) :   0.5398 B(  0-Pd, 87-N ) :   0.5400
B(  0-Pd,125-N ) :   0.5400 B(  1-Pd, 34-N ) :   0.5364 B(  1-Pd, 72-N ) :   0.5365
B(  1-Pd,110-N ) :   0.5365 B(  1-Pd,148-N ) :   0.5365 B(  2-C ,  3-C ) :   2.6024
B(  2-C , 20-C ) :   1.0139 B(  3-C ,  4-C ) :   1.0055 B(  4-C ,  5-C ) :   1.4582
B(  4-C , 13-C ) :   1.2073 B(  5-C ,  6-C ) :   1.2686 B(  5-C , 14-H ) :   0.9924
B(  6-C ,  7-C ) :   1.4513 B(  6-C , 15-H ) :   0.9817 B(  7-C ,  8-C ) :   1.2690
B(  7-C , 16-H ) :   0.9952 B(  8-C ,  9-C ) :   1.2497 B(  8-C , 13-C ) :   1.2166
B(  9-C , 10-C ) :   1.5620 B(  9-C , 17-H ) :   0.9731 B( 10-C , 11-N ) :   1.1861
B( 10-C , 18-H ) :   0.9366 B( 11-N , 12-C ) :   1.4304 B( 12-C , 13-C ) :   1.3201
B( 12-C , 19-H ) :   0.9455 B( 20-C , 21-C ) :   1.3274 B( 20-C , 25-C ) :   1.3323
B( 21-C , 22-C ) :   1.4028 B( 21-C , 26-H ) :   0.9952 B( 22-C , 23-C ) :   1.3449
B( 22-C , 27-H ) :   0.9863 B( 23-C , 24-C ) :   1.3627 B( 23-C , 30-C ) :   1.0039
B( 24-C , 25-C ) :   1.4063 B( 24-C , 28-H ) :   0.9896 B( 25-C , 29-H ) :   0.9934
B( 30-C , 31-C ) :   1.3711 B( 30-C , 35-C ) :   1.4226 B( 31-C , 32-C ) :   1.4039
B( 31-C , 36-H ) :   0.9833 B( 32-C , 33-C ) :   1.4167 B( 32-C , 37-H ) :   0.9720
B( 33-C , 34-N ) :   1.3411 B( 33-C , 38-H ) :   0.9576 B( 34-N , 35-C ) :   1.3066
B( 35-C , 39-H ) :   0.9453 B( 40-C , 41-C ) :   2.6025 B( 40-C , 58-C ) :   1.0139
B( 41-C , 42-C ) :   1.0054 B( 42-C , 43-C ) :   1.4583 B( 42-C , 51-C ) :   1.2073
B( 43-C , 44-C ) :   1.2686 B( 43-C , 52-H ) :   0.9924 B( 44-C , 45-C ) :   1.4513
B( 44-C , 53-H ) :   0.9817 B( 45-C , 46-C ) :   1.2691 B( 45-C , 54-H ) :   0.9952
B( 46-C , 47-C ) :   1.2497 B( 46-C , 51-C ) :   1.2166 B( 47-C , 48-C ) :   1.5621
B( 47-C , 55-H ) :   0.9731 B( 48-C , 49-N ) :   1.1860 B( 48-C , 56-H ) :   0.9365
B( 49-N , 50-C ) :   1.4305 B( 50-C , 51-C ) :   1.3199 B( 50-C , 57-H ) :   0.9455
B( 58-C , 59-C ) :   1.3324 B( 58-C , 63-C ) :   1.3274 B( 59-C , 60-C ) :   1.4063
B( 59-C , 64-H ) :   0.9934 B( 60-C , 61-C ) :   1.3627 B( 60-C , 65-H ) :   0.9896
B( 61-C , 62-C ) :   1.3451 B( 61-C , 68-C ) :   1.0038 B( 62-C , 63-C ) :   1.4027
B( 62-C , 66-H ) :   0.9864 B( 63-C , 67-H ) :   0.9952 B( 68-C , 69-C ) :   1.3711
B( 68-C , 73-C ) :   1.4226 B( 69-C , 70-C ) :   1.4039 B( 69-C , 74-H ) :   0.9833
B( 70-C , 71-C ) :   1.4167 B( 70-C , 75-H ) :   0.9720 B( 71-C , 72-N ) :   1.3409
B( 71-C , 76-H ) :   0.9576 B( 72-N , 73-C ) :   1.3067 B( 73-C , 77-H ) :   0.9454
B( 78-C , 79-C ) :   2.6023 B( 78-C , 96-C ) :   1.0141 B( 79-C , 80-C ) :   1.0056
B( 80-C , 81-C ) :   1.4583 B( 80-C , 89-C ) :   1.2071 B( 81-C , 82-C ) :   1.2686
B( 81-C , 90-H ) :   0.9924 B( 82-C , 83-C ) :   1.4513 B( 82-C , 91-H ) :   0.9817
B( 83-C , 84-C ) :   1.2691 B( 83-C , 92-H ) :   0.9952 B( 84-C , 85-C ) :   1.2497
B( 84-C , 89-C ) :   1.2167 B( 85-C , 86-C ) :   1.5622 B( 85-C , 93-H ) :   0.9731
B( 86-C , 87-N ) :   1.1860 B( 86-C , 94-H ) :   0.9366 B( 87-N , 88-C ) :   1.4305
B( 88-C , 89-C ) :   1.3200 B( 88-C , 95-H ) :   0.9455 B( 96-C , 97-C ) :   1.3275
B( 96-C ,101-C ) :   1.3322 B( 97-C , 98-C ) :   1.4027 B( 97-C ,102-H ) :   0.9952
B( 98-C , 99-C ) :   1.3450 B( 98-C ,103-H ) :   0.9863 B( 99-C ,100-C ) :   1.3626
B( 99-C ,106-C ) :   1.0039 B(100-C ,101-C ) :   1.4064 B(100-C ,104-H ) :   0.9896
B(101-C ,105-H ) :   0.9934 B(106-C ,107-C ) :   1.3710 B(106-C ,111-C ) :   1.4228
B(107-C ,108-C ) :   1.4040 B(107-C ,112-H ) :   0.9834 B(108-C ,109-C ) :   1.4166
B(108-C ,113-H ) :   0.9720 B(109-C ,110-N ) :   1.3412 B(109-C ,114-H ) :   0.9576
B(110-N ,111-C ) :   1.3065 B(111-C ,115-H ) :   0.9452 B(116-C ,117-C ) :   2.6023
B(116-C ,134-C ) :   1.0140 B(117-C ,118-C ) :   1.0056 B(118-C ,119-C ) :   1.4582
B(118-C ,127-C ) :   1.2072 B(119-C ,120-C ) :   1.2686 B(119-C ,128-H ) :   0.9923
B(120-C ,121-C ) :   1.4513 B(120-C ,129-H ) :   0.9817 B(121-C ,122-C ) :   1.2691
B(121-C ,130-H ) :   0.9952 B(122-C ,123-C ) :   1.2497 B(122-C ,127-C ) :   1.2166
B(123-C ,124-C ) :   1.5621 B(123-C ,131-H ) :   0.9731 B(124-C ,125-N ) :   1.1860
B(124-C ,132-H ) :   0.9366 B(125-N ,126-C ) :   1.4305 B(126-C ,127-C ) :   1.3200
B(126-C ,133-H ) :   0.9455 B(134-C ,135-C ) :   1.3323 B(134-C ,139-C ) :   1.3274
B(135-C ,136-C ) :   1.4063 B(135-C ,140-H ) :   0.9934 B(136-C ,137-C ) :   1.3627
B(136-C ,141-H ) :   0.9897 B(137-C ,138-C ) :   1.3450 B(137-C ,144-C ) :   1.0039
B(138-C ,139-C ) :   1.4028 B(138-C ,142-H ) :   0.9863 B(139-C ,143-H ) :   0.9952
B(144-C ,145-C ) :   1.3710 B(144-C ,149-C ) :   1.4228 B(145-C ,146-C ) :   1.4040
B(145-C ,150-H ) :   0.9833 B(146-C ,147-C ) :   1.4166 B(146-C ,151-H ) :   0.9720
B(147-C ,148-N ) :   1.3412 B(147-C ,152-H ) :   0.9577 B(148-N ,149-C ) :   1.3064
B(149-C ,153-H ) :   0.9453

Dispersion correction           -0.253328630
FINAL SINGLE POINT ENERGY     -4072.798903283219

DIPOLE MOMENT
-------------
                                X             Y             Z
Electronic contribution:      5.76640     -97.64412      -1.71521
Nuclear contribution   :     -5.62017      95.52459       1.69365
                        -----------------------------------------
Total Dipole Moment    :      0.14623      -2.11953      -0.02156
                        -----------------------------------------
Magnitude (a.u.)       :      2.12468
Magnitude (Debye)      :      5.40050

Rotational constants in cm-1:     0.000693     0.000365     0.000364
Rotational constants in MHz :    20.783774    10.936474    10.924861

                             ****ORCA TERMINATED NORMALLY****
TOTAL RUN TIME: 0 days 0 hours 15 minutes 50 seconds 947 msec
