                         Program Version 4.2.1 -  RELEASE  -
|  1> ! DFT SP B97-3c TightSCF printbasis  Grid6 NOFINALGRID SlowConv
|  2>
|  3> %base "_s_4b1_a_B97-3c"
|  4> %maxcore 3000
|  5> %scf
|  6>    MaxIter 2000
|  7> end
|  8> %pal
|  9>    nprocs 32
| 10> end
| 11>
| 12> * xyzfile 4 1 s_4b1_a.xyz
| 13>
| 14>                          ****END OF INPUT****

CARTESIAN COORDINATES (ANGSTROEM)
---------------------------------
  Pd     0.515800    5.842300    0.104800
  Pd     1.239200   -5.491100   -0.041000
  C      5.582500    2.011600   -0.336600
  C      5.582100    3.198300   -0.572400
  C      5.769800    4.555200   -0.899000
  C      7.042900    4.968600   -1.254100
  C      7.305800    6.296500   -1.601400
  C      6.300100    7.229900   -1.605600
  C      4.991400    6.853200   -1.254800
  C      3.919900    7.773000   -1.247200
  C      2.672200    7.357100   -0.890400
  N      2.406700    6.072400   -0.535700
  C      3.379900    5.181300   -0.539400
  C      4.704000    5.504600   -0.890400
  H      7.847000    4.248800   -1.258600
  H      8.311500    6.581300   -1.869400
  H      6.497400    8.255200   -1.876000
  H      4.100400    8.799700   -1.523000
  H      1.833100    8.051500   -0.885600
  H      3.118800    4.166600   -0.254100
  C      5.506400    0.621800   -0.113300
  C      4.576100    0.096100    0.788100
  C      4.438300   -1.269000    0.913500
  C      5.223000   -2.139600    0.151200
  C      6.204200   -1.611600   -0.688400
  C      6.344000   -0.244800   -0.823100
  H      3.965500    0.763300    1.374500
  H      3.729700   -1.669300    1.621800
  H      6.827700   -2.272100   -1.270800
  H      7.083600    0.159900   -1.496500
  C      4.933500   -3.580700    0.163800
  C      5.901000   -4.589900    0.163800
  C      5.494600   -5.914300    0.137300
  C      4.140900   -6.218800    0.098500
  N      3.218600   -5.257000    0.087400
  C      3.601200   -3.979200    0.122400
  H      6.949500   -4.338000    0.198900
  H      6.221400   -6.710500    0.144600
  H      3.779400   -7.240900    0.072200
  H      2.813800   -3.224100    0.095600
  C      1.197000    1.663200    4.861800
  C      1.374500    2.856700    4.950200
  C      1.636000    4.210000    5.239000
  C      1.987900    4.541700    6.536600
  C      2.271900    5.861400    6.898300
  C      2.214700    6.868600    5.968200
  C      1.865000    6.576400    4.637900
  C      1.795900    7.574500    3.641200
  C      1.444500    7.238000    2.368300
  N      1.153700    5.960700    2.006800
  C      1.215100    4.998700    2.907900
  C      1.565600    5.236900    4.250100
  H      2.039600    3.763300    7.282300
  H      2.539500    6.081200    7.920300
  H      2.435700    7.888200    6.241900
  H      2.020800    8.597200    3.898500
  H      1.392500    7.994000    1.586000
  H      0.978900    3.993700    2.571200
  C      1.043200    0.273600    4.681800
  C      1.812300   -0.615700    5.439600
  C      1.745900   -1.973000    5.196700
  C      0.916800   -2.468300    4.190000
  C      0.096100   -1.582000    3.485900
  C      0.153200   -0.226600    3.726900
  H      2.477500   -0.233400    6.198300
  H      2.373200   -2.647400    5.758800
  H     -0.603500   -1.964000    2.758900
  H     -0.478500    0.453100    3.178100
  C      0.973900   -3.881700    3.790400
  C      1.043000   -4.960300    4.677200
  C      1.132200   -6.246500    4.169900
  C      1.165300   -6.444400    2.796400
  N      1.110600   -5.415900    1.950700
  C      1.013900   -4.174700    2.430900
  H      1.012500   -4.791100    5.742400
  H      1.178500   -7.095100    4.833300
  H      1.239800   -7.433100    2.357000
  H      0.986900   -3.361600    1.703700
  C     -4.018800    1.384200    0.458000
  C     -4.167300    2.554400    0.727200
  C     -4.524100    3.866800    1.092300
  C     -5.836000    4.103400    1.467300
  C     -6.264000    5.377000    1.852000
  C     -5.386800    6.431900    1.873800
  C     -4.044300    6.236100    1.504000
  C     -3.100300    7.286400    1.513100
  C     -1.812900    7.043800    1.138000
  N     -1.387300    5.813000    0.749700
  C     -2.237700    4.804100    0.735900
  C     -3.589200    4.945500    1.102500
  H     -6.540800    3.286200    1.457800
  H     -7.295200    5.522800    2.134600
  H     -5.711700    7.416000    2.172600
  H     -3.409000    8.274200    1.816000
  H     -1.070600    7.840800    1.145100
  H     -1.850700    3.838900    0.423300
  C     -3.769200    0.021700    0.196600
  C     -2.788700   -0.358700   -0.724300
  C     -2.480200   -1.691700   -0.886300
  C     -3.140700   -2.673900   -0.142100
  C     -4.173000   -2.296200    0.717000
  C     -4.483600   -0.962100    0.888500
  H     -2.273200    0.395100   -1.297100
  H     -1.733500   -1.980800   -1.609500
  H     -4.702100   -3.045000    1.285800
  H     -5.262000   -0.671600    1.576800
  C     -2.669900   -4.065400   -0.192900
  C     -3.500500   -5.189900   -0.213700
  C     -2.927900   -6.451500   -0.221800
  C     -1.546100   -6.581200   -0.196100
  N     -0.754200   -5.509900   -0.165200
  C     -1.297300   -4.291100   -0.167400
  H     -4.572800   -5.073400   -0.237700
  H     -3.547000   -7.333900   -0.245800
  H     -1.056900   -7.549100   -0.196200
  H     -0.612900   -3.442200   -0.125700
  C      0.378300    1.732500   -4.758800
  C      0.050500    2.895700   -4.817700
  C     -0.380800    4.211600   -5.073500
  C     -0.768500    4.529400   -6.364400
  C     -1.217900    5.811000   -6.694000
  C     -1.292800    6.792500   -5.738100
  C     -0.912300    6.512800   -4.413600
  C     -0.974200    7.485200   -3.391400
  C     -0.585500    7.163500   -2.125500
  N     -0.133700    5.925100   -1.795200
  C     -0.069400    4.986900   -2.720800
  C     -0.444800    5.213000   -4.058300
  H     -0.718100    3.770500   -7.130100
  H     -1.508400    6.021400   -7.711800
  H     -1.641800    7.782300   -5.987000
  H     -1.327900    8.477000   -3.623800
  H     -0.633000    7.899300   -1.323900
  H      0.292800    4.012000   -2.408600
  C      0.708400    0.369800   -4.613600
  C      0.066000   -0.590100   -5.402600
  C      0.305100   -1.933700   -5.194600
  C      1.183800   -2.345400   -4.192300
  C      1.878400   -1.380300   -3.456800
  C      1.648800   -0.037500   -3.662800
  H     -0.637300   -0.276000   -6.158200
  H     -0.225800   -2.667600   -5.780900
  H      2.616400   -1.688800   -2.732700
  H      2.183600    0.702600   -3.089800
  C      1.306200   -3.764500   -3.829400
  C      1.383400   -4.819500   -4.743600
  C      1.457700   -6.119200   -4.269400
  C      1.441500   -6.355500   -2.901600
  N      1.356600   -5.351000   -2.030000
  C      1.294600   -4.095700   -2.478200
  H      1.399400   -4.620100   -5.803800
  H      1.525900   -6.949100   -4.954200
  H      1.492800   -7.356600   -2.488000
  H      1.209900   -3.305000   -1.730900

 Total Charge           Charge          ....    4
 Multiplicity           Mult            ....    1
 Number of Electrons    NEL             ....  672
 Basis Dimension        Dim             .... 2058

ORBITAL ENERGIES
----------------

  NO   OCC          E(Eh)            E(eV)
   0   2.0000     -14.350172      -390.4880
   1   2.0000     -14.350154      -390.4875
   2   2.0000     -14.350125      -390.4867
   3   2.0000     -14.350117      -390.4865
   4   2.0000     -14.333400      -390.0316
   5   2.0000     -14.333373      -390.0309
   6   2.0000     -14.333369      -390.0308
   7   2.0000     -14.333355      -390.0304
   8   2.0000     -10.242981      -278.7257
   9   2.0000     -10.242942      -278.7246
  10   2.0000     -10.242895      -278.7233
  11   2.0000     -10.242884      -278.7230
  12   2.0000     -10.239206      -278.6230
  13   2.0000     -10.239189      -278.6225
  14   2.0000     -10.239132      -278.6209
  15   2.0000     -10.239122      -278.6207
  16   2.0000     -10.233787      -278.4755
  17   2.0000     -10.233758      -278.4747
  18   2.0000     -10.233738      -278.4742
  19   2.0000     -10.233717      -278.4736
  20   2.0000     -10.220169      -278.1049
  21   2.0000     -10.220159      -278.1047
  22   2.0000     -10.220138      -278.1041
  23   2.0000     -10.220132      -278.1039
  24   2.0000     -10.216188      -277.9966
  25   2.0000     -10.216167      -277.9960
  26   2.0000     -10.216113      -277.9946
  27   2.0000     -10.216109      -277.9944
  28   2.0000     -10.208008      -277.7740
  29   2.0000     -10.208003      -277.7739
  30   2.0000     -10.207935      -277.7720
  31   2.0000     -10.207931      -277.7719
  32   2.0000     -10.202555      -277.6256
  33   2.0000     -10.202551      -277.6255
  34   2.0000     -10.202484      -277.6237
  35   2.0000     -10.202478      -277.6235
  36   2.0000     -10.200682      -277.5747
  37   2.0000     -10.200658      -277.5740
  38   2.0000     -10.200633      -277.5733
  39   2.0000     -10.200618      -277.5729
  40   2.0000     -10.200349      -277.5656
  41   2.0000     -10.200332      -277.5651
  42   2.0000     -10.200305      -277.5644
  43   2.0000     -10.200289      -277.5640
  44   2.0000     -10.195634      -277.4373
  45   2.0000     -10.195617      -277.4368
  46   2.0000     -10.195577      -277.4358
  47   2.0000     -10.195566      -277.4354
  48   2.0000     -10.194686      -277.4115
  49   2.0000     -10.194683      -277.4114
  50   2.0000     -10.194641      -277.4103
  51   2.0000     -10.194622      -277.4098
  52   2.0000     -10.191383      -277.3216
  53   2.0000     -10.191378      -277.3215
  54   2.0000     -10.191318      -277.3199
  55   2.0000     -10.191306      -277.3195
  56   2.0000     -10.188306      -277.2379
  57   2.0000     -10.188289      -277.2374
  58   2.0000     -10.188261      -277.2367
  59   2.0000     -10.188256      -277.2365
  60   2.0000     -10.178476      -276.9704
  61   2.0000     -10.178449      -276.9697
  62   2.0000     -10.178407      -276.9685
  63   2.0000     -10.178407      -276.9685
  64   2.0000     -10.176598      -276.9193
  65   2.0000     -10.176593      -276.9192
  66   2.0000     -10.176542      -276.9178
  67   2.0000     -10.176542      -276.9178
  68   2.0000     -10.174458      -276.8611
  69   2.0000     -10.174437      -276.8605
  70   2.0000     -10.174388      -276.8592
  71   2.0000     -10.174372      -276.8587
  72   2.0000     -10.172877      -276.8181
  73   2.0000     -10.172873      -276.8180
  74   2.0000     -10.172840      -276.8170
  75   2.0000     -10.172826      -276.8167
  76   2.0000     -10.172185      -276.7992
  77   2.0000     -10.172151      -276.7983
  78   2.0000     -10.172120      -276.7974
  79   2.0000     -10.172096      -276.7968
  80   2.0000     -10.168388      -276.6959
  81   2.0000     -10.168373      -276.6955
  82   2.0000     -10.168338      -276.6945
  83   2.0000     -10.168324      -276.6941
  84   2.0000     -10.167710      -276.6774
  85   2.0000     -10.167688      -276.6768
  86   2.0000     -10.167669      -276.6764
  87   2.0000     -10.167650      -276.6758
  88   2.0000     -10.167641      -276.6756
  89   2.0000     -10.167636      -276.6755
  90   2.0000     -10.167605      -276.6746
  91   2.0000     -10.167592      -276.6742
  92   2.0000     -10.165412      -276.6149
  93   2.0000     -10.165406      -276.6148
  94   2.0000     -10.165373      -276.6139
  95   2.0000     -10.165361      -276.6135
  96   2.0000      -3.658889       -99.5634
  97   2.0000      -3.643861       -99.1545
  98   2.0000      -2.389467       -65.0207
  99   2.0000      -2.389419       -65.0194
 100   2.0000      -2.374152       -64.6040
 101   2.0000      -2.374127       -64.6033
 102   2.0000      -2.346941       -63.8635
 103   2.0000      -2.331979       -63.4564
 104   2.0000      -1.214159       -33.0390
 105   2.0000      -1.207392       -32.8548
 106   2.0000      -1.207355       -32.8538
 107   2.0000      -1.206621       -32.8338
 108   2.0000      -1.195524       -32.5319
 109   2.0000      -1.188991       -32.3541
 110   2.0000      -1.188972       -32.3536
 111   2.0000      -1.188091       -32.3296
 112   2.0000      -1.084755       -29.5177
 113   2.0000      -1.084297       -29.5052
 114   2.0000      -1.084269       -29.5045
 115   2.0000      -1.084237       -29.5036
 116   2.0000      -1.080195       -29.3936
 117   2.0000      -1.079261       -29.3682
 118   2.0000      -1.079216       -29.3670
 119   2.0000      -1.079202       -29.3666
 120   2.0000      -1.051518       -28.6133
 121   2.0000      -1.050009       -28.5722
 122   2.0000      -1.049648       -28.5624
 123   2.0000      -1.049640       -28.5622
 124   2.0000      -1.025375       -27.9019
 125   2.0000      -1.023837       -27.8600
 126   2.0000      -1.023832       -27.8599
 127   2.0000      -1.023099       -27.8399
 128   2.0000      -1.021560       -27.7981
 129   2.0000      -1.020428       -27.7673
 130   2.0000      -1.020423       -27.7671
 131   2.0000      -1.019412       -27.7396
 132   2.0000      -0.992998       -27.0209
 133   2.0000      -0.991800       -26.9883
 134   2.0000      -0.991261       -26.9736
 135   2.0000      -0.991254       -26.9734
 136   2.0000      -0.990731       -26.9592
 137   2.0000      -0.990527       -26.9536
 138   2.0000      -0.990518       -26.9534
 139   2.0000      -0.989882       -26.9361
 140   2.0000      -0.974471       -26.5167
 141   2.0000      -0.973601       -26.4930
 142   2.0000      -0.973595       -26.4929
 143   2.0000      -0.972493       -26.4629
 144   2.0000      -0.966540       -26.3009
 145   2.0000      -0.966502       -26.2999
 146   2.0000      -0.966464       -26.2988
 147   2.0000      -0.966440       -26.2982
 148   2.0000      -0.934253       -25.4223
 149   2.0000      -0.933726       -25.4080
 150   2.0000      -0.933723       -25.4079
 151   2.0000      -0.932978       -25.3876
 152   2.0000      -0.898403       -24.4468
 153   2.0000      -0.896780       -24.4026
 154   2.0000      -0.896773       -24.4024
 155   2.0000      -0.894423       -24.3385
 156   2.0000      -0.889911       -24.2157
 157   2.0000      -0.888620       -24.1806
 158   2.0000      -0.886679       -24.1277
 159   2.0000      -0.886674       -24.1276
 160   2.0000      -0.885624       -24.0990
 161   2.0000      -0.885325       -24.0909
 162   2.0000      -0.884678       -24.0733
 163   2.0000      -0.884671       -24.0731
 164   2.0000      -0.867190       -23.5974
 165   2.0000      -0.864613       -23.5273
 166   2.0000      -0.864610       -23.5272
 167   2.0000      -0.864215       -23.5165
 168   2.0000      -0.850948       -23.1555
 169   2.0000      -0.849312       -23.1110
 170   2.0000      -0.849306       -23.1108
 171   2.0000      -0.849184       -23.1075
 172   2.0000      -0.834759       -22.7149
 173   2.0000      -0.834621       -22.7112
 174   2.0000      -0.834606       -22.7108
 175   2.0000      -0.834471       -22.7071
 176   2.0000      -0.832874       -22.6637
 177   2.0000      -0.830621       -22.6023
 178   2.0000      -0.829358       -22.5680
 179   2.0000      -0.829356       -22.5679
 180   2.0000      -0.803213       -21.8565
 181   2.0000      -0.793424       -21.5902
 182   2.0000      -0.789732       -21.4897
 183   2.0000      -0.789728       -21.4896
 184   2.0000      -0.788015       -21.4430
 185   2.0000      -0.782090       -21.2817
 186   2.0000      -0.781440       -21.2641
 187   2.0000      -0.781438       -21.2640
 188   2.0000      -0.767682       -20.8897
 189   2.0000      -0.763576       -20.7780
 190   2.0000      -0.763570       -20.7778
 191   2.0000      -0.763230       -20.7686
 192   2.0000      -0.762407       -20.7461
 193   2.0000      -0.761583       -20.7237
 194   2.0000      -0.761577       -20.7236
 195   2.0000      -0.761235       -20.7143
 196   2.0000      -0.755532       -20.5591
 197   2.0000      -0.755013       -20.5449
 198   2.0000      -0.755000       -20.5446
 199   2.0000      -0.754860       -20.5408
 200   2.0000      -0.754123       -20.5207
 201   2.0000      -0.752983       -20.4897
 202   2.0000      -0.743053       -20.2195
 203   2.0000      -0.743047       -20.2193
 204   2.0000      -0.735787       -20.0218
 205   2.0000      -0.730922       -19.8894
 206   2.0000      -0.730096       -19.8669
 207   2.0000      -0.730092       -19.8668
 208   2.0000      -0.721126       -19.6228
 209   2.0000      -0.717868       -19.5342
 210   2.0000      -0.717675       -19.5289
 211   2.0000      -0.711639       -19.3647
 212   2.0000      -0.711636       -19.3646
 213   2.0000      -0.709932       -19.3182
 214   2.0000      -0.709029       -19.2937
 215   2.0000      -0.702307       -19.1107
 216   2.0000      -0.702081       -19.1046
 217   2.0000      -0.700347       -19.0574
 218   2.0000      -0.700285       -19.0557
 219   2.0000      -0.698603       -19.0099
 220   2.0000      -0.697250       -18.9731
 221   2.0000      -0.697165       -18.9708
 222   2.0000      -0.697147       -18.9703
 223   2.0000      -0.696548       -18.9540
 224   2.0000      -0.694783       -18.9060
 225   2.0000      -0.694781       -18.9059
 226   2.0000      -0.693764       -18.8783
 227   2.0000      -0.691563       -18.8184
 228   2.0000      -0.688110       -18.7244
 229   2.0000      -0.688005       -18.7216
 230   2.0000      -0.686203       -18.6725
 231   2.0000      -0.686122       -18.6703
 232   2.0000      -0.680293       -18.5117
 233   2.0000      -0.680253       -18.5106
 234   2.0000      -0.675041       -18.3688
 235   2.0000      -0.675016       -18.3681
 236   2.0000      -0.674757       -18.3611
 237   2.0000      -0.673996       -18.3404
 238   2.0000      -0.671971       -18.2853
 239   2.0000      -0.671939       -18.2844
 240   2.0000      -0.670306       -18.2400
 241   2.0000      -0.669945       -18.2301
 242   2.0000      -0.669468       -18.2172
 243   2.0000      -0.669458       -18.2169
 244   2.0000      -0.668985       -18.2040
 245   2.0000      -0.667726       -18.1698
 246   2.0000      -0.667713       -18.1694
 247   2.0000      -0.662714       -18.0334
 248   2.0000      -0.659651       -17.9500
 249   2.0000      -0.658504       -17.9188
 250   2.0000      -0.658487       -17.9184
 251   2.0000      -0.658421       -17.9165
 252   2.0000      -0.653608       -17.7856
 253   2.0000      -0.649674       -17.6785
 254   2.0000      -0.644950       -17.5500
 255   2.0000      -0.643286       -17.5047
 256   2.0000      -0.643264       -17.5041
 257   2.0000      -0.642542       -17.4844
 258   2.0000      -0.637577       -17.3494
 259   2.0000      -0.637567       -17.3491
 260   2.0000      -0.631106       -17.1733
 261   2.0000      -0.630905       -17.1678
 262   2.0000      -0.630068       -17.1450
 263   2.0000      -0.629782       -17.1372
 264   2.0000      -0.627679       -17.0800
 265   2.0000      -0.626540       -17.0490
 266   2.0000      -0.626525       -17.0486
 267   2.0000      -0.623154       -16.9569
 268   2.0000      -0.622537       -16.9401
 269   2.0000      -0.617347       -16.7989
 270   2.0000      -0.617312       -16.7979
 271   2.0000      -0.608767       -16.5654
 272   2.0000      -0.607243       -16.5239
 273   2.0000      -0.607236       -16.5237
 274   2.0000      -0.605663       -16.4809
 275   2.0000      -0.605291       -16.4708
 276   2.0000      -0.605286       -16.4707
 277   2.0000      -0.602196       -16.3866
 278   2.0000      -0.601601       -16.3704
 279   2.0000      -0.593753       -16.1568
 280   2.0000      -0.593752       -16.1568
 281   2.0000      -0.592252       -16.1160
 282   2.0000      -0.591248       -16.0887
 283   2.0000      -0.590447       -16.0669
 284   2.0000      -0.588199       -16.0057
 285   2.0000      -0.588193       -16.0055
 286   2.0000      -0.587735       -15.9931
 287   2.0000      -0.587510       -15.9870
 288   2.0000      -0.587234       -15.9795
 289   2.0000      -0.585007       -15.9188
 290   2.0000      -0.584986       -15.9183
 291   2.0000      -0.576965       -15.7000
 292   2.0000      -0.574179       -15.6242
 293   2.0000      -0.574176       -15.6241
 294   2.0000      -0.573740       -15.6122
 295   2.0000      -0.568766       -15.4769
 296   2.0000      -0.568760       -15.4767
 297   2.0000      -0.564832       -15.3699
 298   2.0000      -0.564824       -15.3696
 299   2.0000      -0.563854       -15.3432
 300   2.0000      -0.561269       -15.2729
 301   2.0000      -0.558214       -15.1898
 302   2.0000      -0.558121       -15.1873
 303   2.0000      -0.551490       -15.0068
 304   2.0000      -0.551471       -15.0063
 305   2.0000      -0.551443       -15.0055
 306   2.0000      -0.550628       -14.9833
 307   2.0000      -0.541754       -14.7419
 308   2.0000      -0.541438       -14.7333
 309   2.0000      -0.541411       -14.7325
 310   2.0000      -0.534932       -14.5563
 311   2.0000      -0.534147       -14.5349
 312   2.0000      -0.534120       -14.5341
 313   2.0000      -0.532200       -14.4819
 314   2.0000      -0.521195       -14.1824
 315   2.0000      -0.520876       -14.1738
 316   2.0000      -0.520869       -14.1736
 317   2.0000      -0.519770       -14.1436
 318   2.0000      -0.519388       -14.1333
 319   2.0000      -0.518842       -14.1184
 320   2.0000      -0.518809       -14.1175
 321   2.0000      -0.518429       -14.1072
 322   2.0000      -0.512107       -13.9351
 323   2.0000      -0.510168       -13.8824
 324   2.0000      -0.509446       -13.8627
 325   2.0000      -0.509435       -13.8624
 326   2.0000      -0.508669       -13.8416
 327   2.0000      -0.506158       -13.7733
 328   2.0000      -0.497325       -13.5329
 329   2.0000      -0.496361       -13.5067
 330   2.0000      -0.496313       -13.5054
 331   2.0000      -0.494769       -13.4634
 332   2.0000      -0.464650       -12.6438
 333   2.0000      -0.464367       -12.6361
 334   2.0000      -0.464349       -12.6356
 335   2.0000      -0.463351       -12.6084
 336   0.0000      -0.389148       -10.5892
 337   0.0000      -0.380499       -10.3539
 338   0.0000      -0.377870       -10.2824
 339   0.0000      -0.377828       -10.2812
 340   0.0000      -0.375569       -10.2198

MULLIKEN ATOMIC CHARGES
-----------------------
   0 Pd:   -0.000065
   1 Pd:    0.012724
   2 C :    0.023432
   3 C :    0.023032
   4 C :   -0.188942
   5 C :   -0.080377
   6 C :   -0.196698
   7 C :   -0.206058
   8 C :   -0.062560
   9 C :   -0.107797
  10 C :   -0.180867
  11 N :   -0.066290
  12 C :   -0.121510
  13 C :    0.392715
  14 H :    0.248222
  15 H :    0.229398
  16 H :    0.246812
  17 H :    0.253542
  18 H :    0.173007
  19 H :    0.184044
  20 C :   -0.190683
  21 C :   -0.176071
  22 C :   -0.132097
  23 C :   -0.052388
  24 C :   -0.137539
  25 C :   -0.143629
  26 H :    0.205107
  27 H :    0.238059
  28 H :    0.239739
  29 H :    0.237242
  30 C :    0.059363
  31 C :   -0.162716
  32 C :   -0.055885
  33 C :   -0.120578
  34 N :   -0.069316
  35 C :   -0.205365
  36 H :    0.257763
  37 H :    0.250363
  38 H :    0.214404
  39 H :    0.178215
  40 C :    0.023238
  41 C :    0.022571
  42 C :   -0.189917
  43 C :   -0.080206
  44 C :   -0.196683
  45 C :   -0.206184
  46 C :   -0.063157
  47 C :   -0.107120
  48 C :   -0.181305
  49 N :   -0.066023
  50 C :   -0.123083
  51 C :    0.395016
  52 H :    0.248172
  53 H :    0.229390
  54 H :    0.246796
  55 H :    0.253565
  56 H :    0.173303
  57 H :    0.184394
  58 C :   -0.190553
  59 C :   -0.143944
  60 C :   -0.138503
  61 C :   -0.051535
  62 C :   -0.132818
  63 C :   -0.174395
  64 H :    0.237144
  65 H :    0.239538
  66 H :    0.238008
  67 H :    0.205187
  68 C :    0.059253
  69 C :   -0.162664
  70 C :   -0.056012
  71 C :   -0.120838
  72 N :   -0.069075
  73 C :   -0.205862
  74 H :    0.257673
  75 H :    0.250391
  76 H :    0.214370
  77 H :    0.178451
  78 C :    0.022965
  79 C :    0.023094
  80 C :   -0.189034
  81 C :   -0.080422
  82 C :   -0.196765
  83 C :   -0.205936
  84 C :   -0.063261
  85 C :   -0.107207
  86 C :   -0.181099
  87 N :   -0.066152
  88 C :   -0.122896
  89 C :    0.394646
  90 H :    0.248147
  91 H :    0.229381
  92 H :    0.246820
  93 H :    0.253536
  94 H :    0.172832
  95 H :    0.184323
  96 C :   -0.190492
  97 C :   -0.174635
  98 C :   -0.133220
  99 C :   -0.050853
 100 C :   -0.138711
 101 C :   -0.143888
 102 H :    0.205120
 103 H :    0.237762
 104 H :    0.239614
 105 H :    0.237152
 106 C :    0.059944
 107 C :   -0.162252
 108 C :   -0.056001
 109 C :   -0.120637
 110 N :   -0.068778
 111 C :   -0.207219
 112 H :    0.257716
 113 H :    0.250324
 114 H :    0.214304
 115 H :    0.178575
 116 C :    0.023479
 117 C :    0.022722
 118 C :   -0.189038
 119 C :   -0.080300
 120 C :   -0.196784
 121 C :   -0.205794
 122 C :   -0.062906
 123 C :   -0.107180
 124 C :   -0.181083
 125 N :   -0.065670
 126 C :   -0.122322
 127 C :    0.393591
 128 H :    0.248159
 129 H :    0.229362
 130 H :    0.246774
 131 H :    0.253532
 132 H :    0.172552
 133 H :    0.184293
 134 C :   -0.190772
 135 C :   -0.143627
 136 C :   -0.138436
 137 C :   -0.051530
 138 C :   -0.132770
 139 C :   -0.174752
 140 H :    0.237167
 141 H :    0.239643
 142 H :    0.237512
 143 H :    0.205000
 144 C :    0.059832
 145 C :   -0.162943
 146 C :   -0.055616
 147 C :   -0.120840
 148 N :   -0.068150
 149 C :   -0.208069
 150 H :    0.257673
 151 H :    0.250359
 152 H :    0.214354
 153 H :    0.179450
Sum of atomic charges:    4.0000000

LOEWDIN ATOMIC CHARGES
----------------------
   0 Pd:   -0.068407
   1 Pd:   -0.060495
   2 C :   -0.011511
   3 C :   -0.028259
   4 C :   -0.040095
   5 C :   -0.088226
   6 C :   -0.095725
   7 C :   -0.111720
   8 C :   -0.015167
   9 C :   -0.106165
  10 C :   -0.062543
  11 N :   -0.082822
  12 C :   -0.000706
  13 C :   -0.029907
  14 H :    0.196158
  15 H :    0.196621
  16 H :    0.194134
  17 H :    0.200828
  18 H :    0.184797
  19 H :    0.189563
  20 C :   -0.054901
  21 C :   -0.126106
  22 C :   -0.146207
  23 C :   -0.062359
  24 C :   -0.121686
  25 C :   -0.105874
  26 H :    0.179025
  27 H :    0.175081
  28 H :    0.187093
  29 H :    0.193282
  30 C :   -0.033141
  31 C :   -0.073319
  32 C :   -0.114878
  33 C :   -0.026165
  34 N :   -0.073721
  35 C :   -0.035204
  36 H :    0.201585
  37 H :    0.204920
  38 H :    0.192904
  39 H :    0.182632
  40 C :   -0.011535
  41 C :   -0.028290
  42 C :   -0.040092
  43 C :   -0.088243
  44 C :   -0.095711
  45 C :   -0.111740
  46 C :   -0.015181
  47 C :   -0.106161
  48 C :   -0.062533
  49 N :   -0.082782
  50 C :   -0.000725
  51 C :   -0.029903
  52 H :    0.196150
  53 H :    0.196620
  54 H :    0.194135
  55 H :    0.200821
  56 H :    0.184793
  57 H :    0.189587
  58 C :   -0.054984
  59 C :   -0.105962
  60 C :   -0.121873
  61 C :   -0.062434
  62 C :   -0.146104
  63 C :   -0.125985
  64 H :    0.193236
  65 H :    0.187049
  66 H :    0.175217
  67 H :    0.179146
  68 C :   -0.033145
  69 C :   -0.073296
  70 C :   -0.114853
  71 C :   -0.026149
  72 N :   -0.073767
  73 C :   -0.035233
  74 H :    0.201608
  75 H :    0.204933
  76 H :    0.192913
  77 H :    0.182604
  78 C :   -0.011530
  79 C :   -0.028315
  80 C :   -0.040083
  81 C :   -0.088246
  82 C :   -0.095706
  83 C :   -0.111741
  84 C :   -0.015171
  85 C :   -0.106130
  86 C :   -0.062522
  87 N :   -0.082819
  88 C :   -0.000704
  89 C :   -0.029901
  90 H :    0.196141
  91 H :    0.196623
  92 H :    0.194137
  93 H :    0.200825
  94 H :    0.184738
  95 H :    0.189590
  96 C :   -0.054947
  97 C :   -0.126036
  98 C :   -0.146156
  99 C :   -0.062355
 100 C :   -0.121768
 101 C :   -0.105949
 102 H :    0.179083
 103 H :    0.175147
 104 H :    0.187081
 105 H :    0.193243
 106 C :   -0.033111
 107 C :   -0.073286
 108 C :   -0.114841
 109 C :   -0.026071
 110 N :   -0.073734
 111 C :   -0.035312
 112 H :    0.201605
 113 H :    0.204935
 114 H :    0.192915
 115 H :    0.182640
 116 C :   -0.011500
 117 C :   -0.028298
 118 C :   -0.040081
 119 C :   -0.088230
 120 C :   -0.095705
 121 C :   -0.111730
 122 C :   -0.015179
 123 C :   -0.106142
 124 C :   -0.062553
 125 N :   -0.082822
 126 C :   -0.000695
 127 C :   -0.029894
 128 H :    0.196151
 129 H :    0.196624
 130 H :    0.194137
 131 H :    0.200828
 132 H :    0.184750
 133 H :    0.189572
 134 C :   -0.054941
 135 C :   -0.105913
 136 C :   -0.121731
 137 C :   -0.062371
 138 C :   -0.146164
 139 C :   -0.126055
 140 H :    0.193255
 141 H :    0.187092
 142 H :    0.175104
 143 H :    0.179058
 144 C :   -0.033113
 145 C :   -0.073258
 146 C :   -0.114843
 147 C :   -0.026069
 148 N :   -0.073719
 149 C :   -0.035345
 150 H :    0.201598
 151 H :    0.204934
 152 H :    0.192906
 153 H :    0.182631

  Mayer bond orders larger than 0.100000
B(  0-Pd, 11-N ) :   0.5178 B(  0-Pd, 49-N ) :   0.5170 B(  0-Pd, 87-N ) :   0.5173
B(  0-Pd,125-N ) :   0.5173 B(  1-Pd, 34-N ) :   0.5157 B(  1-Pd, 72-N ) :   0.5161
B(  1-Pd,110-N ) :   0.5159 B(  1-Pd,148-N ) :   0.5156 B(  2-C ,  3-C ) :   1.9138
B(  2-C ,  4-C ) :  -0.2669 B(  2-C , 13-C ) :   0.1148 B(  2-C , 20-C ) :   1.6134
B(  3-C ,  4-C ) :   1.4472 B(  3-C ,  8-C ) :   0.1025 B(  3-C , 13-C ) :  -0.2326
B(  3-C , 20-C ) :  -0.3897 B(  4-C ,  5-C ) :   1.5511 B(  4-C , 12-C ) :  -0.1217
B(  4-C , 13-C ) :   1.0032 B(  5-C ,  6-C ) :   1.4242 B(  5-C , 14-H ) :   0.8572
B(  6-C ,  7-C ) :   1.6221 B(  6-C , 15-H ) :   0.8715 B(  7-C ,  8-C ) :   1.3702
B(  7-C , 13-C ) :  -0.1320 B(  7-C , 16-H ) :   0.8595 B(  8-C ,  9-C ) :   1.2676
B(  8-C , 12-C ) :  -0.1048 B(  8-C , 13-C ) :   1.0360 B(  9-C , 10-C ) :   1.6027
B(  9-C , 17-H ) :   0.8693 B( 10-C , 11-N ) :   1.2117 B( 10-C , 18-H ) :   0.9064
B( 11-N , 12-C ) :   1.4872 B( 12-C , 13-C ) :   1.3737 B( 12-C , 19-H ) :   0.8971
B( 20-C , 21-C ) :   1.3269 B( 20-C , 23-C ) :   0.1119 B( 20-C , 25-C ) :   1.3508
B( 21-C , 22-C ) :   1.5699 B( 21-C , 26-H ) :   0.8979 B( 22-C , 23-C ) :   1.3269
B( 22-C , 27-H ) :   0.8586 B( 22-C , 35-C ) :   0.1118 B( 23-C , 24-C ) :   1.3898
B( 23-C , 30-C ) :   0.8964 B( 24-C , 25-C ) :   1.5980 B( 24-C , 28-H ) :   0.8580
B( 25-C , 29-H ) :   0.8871 B( 30-C , 31-C ) :   1.4610 B( 30-C , 35-C ) :   1.3967
B( 31-C , 32-C ) :   1.4989 B( 31-C , 36-H ) :   0.8809 B( 32-C , 33-C ) :   1.4240
B( 32-C , 37-H ) :   0.8677 B( 33-C , 34-N ) :   1.4046 B( 33-C , 38-H ) :   0.9144
B( 34-N , 35-C ) :   1.3433 B( 35-C , 39-H ) :   0.9178 B( 40-C , 41-C ) :   1.9153
B( 40-C , 42-C ) :  -0.2666 B( 40-C , 51-C ) :   0.1147 B( 40-C , 58-C ) :   1.6124
B( 41-C , 42-C ) :   1.4480 B( 41-C , 46-C ) :   0.1027 B( 41-C , 51-C ) :  -0.2332
B( 41-C , 58-C ) :  -0.3880 B( 42-C , 43-C ) :   1.5513 B( 42-C , 50-C ) :  -0.1217
B( 42-C , 51-C ) :   1.0033 B( 43-C , 44-C ) :   1.4241 B( 43-C , 52-H ) :   0.8573
B( 44-C , 45-C ) :   1.6220 B( 44-C , 53-H ) :   0.8715 B( 45-C , 46-C ) :   1.3705
B( 45-C , 51-C ) :  -0.1320 B( 45-C , 54-H ) :   0.8595 B( 46-C , 47-C ) :   1.2668
B( 46-C , 50-C ) :  -0.1046 B( 46-C , 51-C ) :   1.0357 B( 47-C , 48-C ) :   1.6026
B( 47-C , 55-H ) :   0.8693 B( 48-C , 49-N ) :   1.2113 B( 48-C , 56-H ) :   0.9064
B( 49-N , 50-C ) :   1.4872 B( 50-C , 51-C ) :   1.3727 B( 50-C , 57-H ) :   0.8973
B( 58-C , 59-C ) :   1.3511 B( 58-C , 61-C ) :   0.1118 B( 58-C , 63-C ) :   1.3263
B( 59-C , 60-C ) :   1.5981 B( 59-C , 64-H ) :   0.8873 B( 60-C , 61-C ) :   1.3899
B( 60-C , 65-H ) :   0.8583 B( 61-C , 62-C ) :   1.3283 B( 61-C , 68-C ) :   0.8957
B( 62-C , 63-C ) :   1.5691 B( 62-C , 66-H ) :   0.8581 B( 62-C , 73-C ) :   0.1110
B( 63-C , 67-H ) :   0.8979 B( 68-C , 69-C ) :   1.4609 B( 68-C , 73-C ) :   1.3978
B( 69-C , 70-C ) :   1.4988 B( 69-C , 74-H ) :   0.8811 B( 70-C , 71-C ) :   1.4242
B( 70-C , 75-H ) :   0.8677 B( 71-C , 72-N ) :   1.4044 B( 71-C , 76-H ) :   0.9144
B( 72-N , 73-C ) :   1.3436 B( 73-C , 77-H ) :   0.9173 B( 78-C , 79-C ) :   1.9151
B( 78-C , 80-C ) :  -0.2663 B( 78-C , 89-C ) :   0.1148 B( 78-C , 96-C ) :   1.6121
B( 79-C , 80-C ) :   1.4466 B( 79-C , 84-C ) :   0.1026 B( 79-C , 89-C ) :  -0.2328
B( 79-C , 96-C ) :  -0.3891 B( 80-C , 81-C ) :   1.5509 B( 80-C , 88-C ) :  -0.1217
B( 80-C , 89-C ) :   1.0030 B( 81-C , 82-C ) :   1.4241 B( 81-C , 90-H ) :   0.8574
B( 82-C , 83-C ) :   1.6220 B( 82-C , 91-H ) :   0.8715 B( 83-C , 84-C ) :   1.3702
B( 83-C , 89-C ) :  -0.1321 B( 83-C , 92-H ) :   0.8595 B( 84-C , 85-C ) :   1.2670
B( 84-C , 88-C ) :  -0.1046 B( 84-C , 89-C ) :   1.0355 B( 85-C , 86-C ) :   1.6026
B( 85-C , 93-H ) :   0.8693 B( 86-C , 87-N ) :   1.2114 B( 86-C , 94-H ) :   0.9066
B( 87-N , 88-C ) :   1.4871 B( 88-C , 89-C ) :   1.3726 B( 88-C , 95-H ) :   0.8974
B( 96-C , 97-C ) :   1.3258 B( 96-C , 99-C ) :   0.1115 B( 96-C ,101-C ) :   1.3503
B( 97-C , 98-C ) :   1.5691 B( 97-C ,102-H ) :   0.8980 B( 98-C , 99-C ) :   1.3275
B( 98-C ,103-H ) :   0.8584 B( 98-C ,111-C ) :   0.1115 B( 99-C ,100-C ) :   1.3902
B( 99-C ,106-C ) :   0.8962 B(100-C ,101-C ) :   1.5981 B(100-C ,104-H ) :   0.8582
B(101-C ,105-H ) :   0.8874 B(106-C ,107-C ) :   1.4603 B(106-C ,111-C ) :   1.3970
B(107-C ,108-C ) :   1.4991 B(107-C ,112-H ) :   0.8812 B(108-C ,109-C ) :   1.4239
B(108-C ,113-H ) :   0.8678 B(109-C ,110-N ) :   1.4050 B(109-C ,114-H ) :   0.9144
B(110-N ,111-C ) :   1.3434 B(111-C ,115-H ) :   0.9181 B(116-C ,117-C ) :   1.9148
B(116-C ,118-C ) :  -0.2666 B(116-C ,127-C ) :   0.1147 B(116-C ,134-C ) :   1.6120
B(117-C ,118-C ) :   1.4470 B(117-C ,122-C ) :   0.1026 B(117-C ,127-C ) :  -0.2326
B(117-C ,134-C ) :  -0.3889 B(118-C ,119-C ) :   1.5510 B(118-C ,126-C ) :  -0.1216
B(118-C ,127-C ) :   1.0033 B(119-C ,120-C ) :   1.4242 B(119-C ,128-H ) :   0.8573
B(120-C ,121-C ) :   1.6219 B(120-C ,129-H ) :   0.8716 B(121-C ,122-C ) :   1.3700
B(121-C ,127-C ) :  -0.1319 B(121-C ,130-H ) :   0.8596 B(122-C ,123-C ) :   1.2672
B(122-C ,126-C ) :  -0.1047 B(122-C ,127-C ) :   1.0359 B(123-C ,124-C ) :   1.6021
B(123-C ,131-H ) :   0.8693 B(124-C ,125-N ) :   1.2113 B(124-C ,132-H ) :   0.9068
B(125-N ,126-C ) :   1.4874 B(126-C ,127-C ) :   1.3731 B(126-C ,133-H ) :   0.8972
B(134-C ,135-C ) :   1.3504 B(134-C ,137-C ) :   0.1115 B(134-C ,139-C ) :   1.3262
B(135-C ,136-C ) :   1.5979 B(135-C ,140-H ) :   0.8873 B(136-C ,137-C ) :   1.3902
B(136-C ,141-H ) :   0.8582 B(137-C ,138-C ) :   1.3276 B(137-C ,144-C ) :   0.8960
B(138-C ,139-C ) :   1.5692 B(138-C ,142-H ) :   0.8585 B(138-C ,149-C ) :   0.1118
B(139-C ,143-H ) :   0.8979 B(144-C ,145-C ) :   1.4611 B(144-C ,149-C ) :   1.3979
B(145-C ,146-C ) :   1.4991 B(145-C ,150-H ) :   0.8811 B(146-C ,147-C ) :   1.4238
B(146-C ,151-H ) :   0.8678 B(147-C ,148-N ) :   1.4048 B(147-C ,152-H ) :   0.9144
B(148-N ,149-C ) :   1.3430 B(149-C ,153-H ) :   0.9174

Dispersion correction           -0.589429467
FINAL SINGLE POINT ENERGY     -4078.555034445932

DIPOLE MOMENT
-------------
                                X             Y             Z
Electronic contribution:      5.74677     -97.34432      -1.71179
Nuclear contribution   :     -5.62017      95.52459       1.69365
                        -----------------------------------------
Total Dipole Moment    :      0.12660      -1.81973      -0.01815
                        -----------------------------------------
Magnitude (a.u.)       :      1.82422
Magnitude (Debye)      :      4.63679

Rotational constants in cm-1:     0.000693     0.000365     0.000364
Rotational constants in MHz :    20.783774    10.936474    10.924861

                             ****ORCA TERMINATED NORMALLY****
TOTAL RUN TIME: 0 days 0 hours 8 minutes 34 seconds 815 msec
