                         Program Version 4.2.1 -  RELEASE  -
|  1> ! DFT SP RKS PBE0 def2-SVP D3BJ Grid6 NOFINALGRID SlowConv TightSCF printbasis
|  2>
|  3> %base "_s_4b1_b_PBE0"
|  4> %maxcore 3000
|  5> %scf
|  6>    MaxIter 2000
|  7> end
|  8> %pal
|  9>    nprocs 32
| 10> end
| 11>
| 12> * xyzfile 4 1 s_4b1_b.xyz
| 13>
| 14>                          ****END OF INPUT****

CARTESIAN COORDINATES (ANGSTROEM)
---------------------------------
  Pd    -0.919000    7.094900    0.569600
  Pd    -0.215200   -4.248900   -0.282200
  C      4.204000   -0.292700   -1.060100
  C      4.482000   -1.459300   -1.218900
  C      4.849400   -2.807000   -1.408200
  C      6.156700   -3.135600   -1.713300
  C      6.537900   -4.468500   -1.906400
  C      5.628100   -5.489700   -1.791600
  C      4.287300   -5.204400   -1.474000
  C      3.302100   -6.207600   -1.326300
  C      2.020800   -5.862700   -1.003700
  N      1.653300   -4.570300   -0.823400
  C      2.540400   -3.605300   -0.958300
  C      3.883700   -3.851000   -1.281800
  H      6.893100   -2.352300   -1.808200
  H      7.566600   -4.688000   -2.147900
  H      5.928000   -6.515300   -1.939300
  H      3.575700   -7.241300   -1.466300
  H      1.234800   -6.606500   -0.875300
  H      2.197000   -2.583700   -0.807800
  C      3.846500    1.057200   -0.854200
  C      4.636000    1.880100   -0.045600
  C      4.271800    3.193500    0.169700
  C      3.109900    3.712600   -0.405100
  C      2.330600    2.890400   -1.221300
  C      2.694300    1.579700   -1.448900
  H      5.529500    1.482300    0.410400
  H      4.879800    3.813100    0.810700
  H      1.458100    3.292500   -1.710100
  H      2.104600    0.958300   -2.103400
  C      2.719700    5.109400   -0.165700
  C      3.666300    6.139100   -0.155600
  C      3.256700    7.443000    0.062600
  C      1.911200    7.700700    0.266600
  N      1.007300    6.720300    0.263000
  C      1.387800    5.457400    0.056000
  H      4.706800    5.918500   -0.336600
  H      3.969200    8.251800    0.069300
  H      1.545100    8.708800    0.438500
  H      0.597300    4.706200    0.086800
  C     -0.215800    2.699700    5.019300
  C     -0.322200    3.876500    5.277200
  C     -0.377800    5.217400    5.706400
  C     -0.325700    5.489200    7.061800
  C     -0.312300    6.805100    7.535200
  C     -0.339200    7.865500    6.664500
  C     -0.406300    7.634800    5.278800
  C     -0.430400    8.685000    4.333700
  C     -0.524000    8.398400    3.004400
  N     -0.617400    7.123000    2.543400
  C     -0.569600    6.115600    3.391300
  C     -0.446500    6.300000    4.779900
  H     -0.281500    4.670500    7.763600
  H     -0.268400    6.979600    8.599300
  H     -0.310400    8.880500    7.028300
  H     -0.375100    9.706200    4.675400
  H     -0.528800    9.189200    2.252700
  H     -0.635100    5.115700    2.973900
  C     -0.075500    1.337900    4.679000
  C     -0.885200    0.370400    5.280000
  C     -0.752400   -0.957400    4.928000
  C      0.185800   -1.346100    3.969900
  C      1.015700   -0.379600    3.396600
  C      0.889400    0.948200    3.745400
  H     -1.621100    0.667300    6.010900
  H     -1.402100   -1.693600    5.375200
  H      1.783300   -0.674900    2.699100
  H      1.537200    1.690800    3.308300
  C      0.234100   -2.742400    3.513200
  C      0.095400   -3.837000    4.373600
  C      0.065100   -5.116900    3.846700
  C      0.125600   -5.288500    2.471400
  N      0.257700   -4.247000    1.651500
  C      0.341200   -3.011100    2.152100
  H      0.025400   -3.682300    5.439100
  H     -0.025600   -5.975400    4.492100
  H      0.069500   -6.267800    2.008900
  H      0.482400   -2.202100    1.430800
  C     -5.263500    2.972700    1.581600
  C     -5.531900    4.152000    1.597800
  C     -5.956800    5.494300    1.639000
  C     -7.284800    5.771100    1.908900
  C     -7.752700    7.088200    1.963700
  C     -6.905100    8.145300    1.747800
  C     -5.547200    7.910900    1.463600
  C     -4.628200    8.956700    1.226900
  C     -3.323600    8.665700    0.954100
  N     -2.865300    7.392000    0.895800
  C     -3.692900    6.385800    1.109800
  C     -5.053500    6.574600    1.404200
  H     -7.969600    4.955600    2.084800
  H     -8.795000    7.266100    2.179700
  H     -7.265700    9.161000    1.790800
  H     -4.967400    9.979500    1.264300
  H     -2.597300    9.451400    0.767500
  H     -3.276900    5.381600    1.046800
  C     -4.931500    1.604100    1.508200
  C     -3.706400    1.138800    1.994600
  C     -3.367200   -0.189700    1.852000
  C     -4.242500   -1.083900    1.230000
  C     -5.485900   -0.626100    0.791200
  C     -5.827800    0.703800    0.923800
  H     -3.030700    1.822500    2.482200
  H     -2.427800   -0.542900    2.249800
  H     -6.171700   -1.306500    0.310700
  H     -6.781300    1.057800    0.563800
  C     -3.834700   -2.474600    0.989900
  C     -4.695600   -3.565200    1.145000
  C     -4.233100   -4.841900    0.871300
  C     -2.926400   -5.014700    0.444400
  N     -2.106300   -3.972900    0.291400
  C     -2.540000   -2.740300    0.554500
  H     -5.706100   -3.412300    1.490700
  H     -4.878300   -5.697500    0.989200
  H     -2.513900   -5.993700    0.214900
  H     -1.830200   -1.931200    0.395700
  C     -2.062600    3.312800   -4.373300
  C     -2.043000    4.519600   -4.456300
  C     -1.993900    5.904400   -4.705300
  C     -2.203500    6.357900   -5.996300
  C     -2.119100    7.717600   -6.309300
  C     -1.805000    8.641700   -5.344300
  C     -1.582700    8.225500   -4.019600
  C     -1.234200    9.128400   -2.989900
  C     -1.036900    8.667400   -1.722600
  N     -1.186800    7.356100   -1.395700
  C     -1.498200    6.482100   -2.331400
  C     -1.694400    6.846500   -3.675600
  H     -2.433600    5.646000   -6.774200
  H     -2.293600    8.034600   -7.326000
  H     -1.722400    9.689100   -5.587900
  H     -1.123100   10.176000   -3.220000
  H     -0.744500    9.341200   -0.914700
  H     -1.606800    5.447200   -2.023900
  C     -2.020600    1.912400   -4.218600
  C     -2.309300    1.331600   -2.980200
  C     -2.188000   -0.030600   -2.814600
  C     -1.785400   -0.845200   -3.876500
  C     -1.548700   -0.269300   -5.124500
  C     -1.659900    1.096100   -5.295300
  H     -2.624900    1.956500   -2.160700
  H     -2.432800   -0.475100   -1.862300
  H     -1.242800   -0.887900   -5.954000
  H     -1.454400    1.540600   -6.256900
  C     -1.593800   -2.283900   -3.645400
  C     -2.046700   -3.274700   -4.522100
  C     -1.865700   -4.607200   -4.191400
  C     -1.257100   -4.935500   -2.988500
  N     -0.805800   -3.992300   -2.163700
  C     -0.948400   -2.703800   -2.485900
  H     -2.550700   -2.999800   -5.435700
  H     -2.209100   -5.388600   -4.850000
  H     -1.120500   -5.964700   -2.675200
  H     -0.509900   -1.976300   -1.798500

 Total Charge           Charge          ....    4
 Multiplicity           Mult            ....    1
 Number of Electrons    NEL             ....  672
 Basis Dimension        Dim             .... 1686

ORBITAL ENERGIES
----------------

  NO   OCC          E(Eh)            E(eV)
   0   2.0000     -14.762187      -401.6995
   1   2.0000     -14.760018      -401.6405
   2   2.0000     -14.759933      -401.6382
   3   2.0000     -14.757069      -401.5603
   4   2.0000     -14.749882      -401.3647
   5   2.0000     -14.747698      -401.3053
   6   2.0000     -14.746865      -401.2826
   7   2.0000     -14.745661      -401.2498
   8   2.0000     -10.594412      -288.2886
   9   2.0000     -10.593650      -288.2679
  10   2.0000     -10.591177      -288.2006
  11   2.0000     -10.591090      -288.1982
  12   2.0000     -10.589409      -288.1525
  13   2.0000     -10.588635      -288.1314
  14   2.0000     -10.587336      -288.0961
  15   2.0000     -10.585869      -288.0561
  16   2.0000     -10.585670      -288.0507
  17   2.0000     -10.585172      -288.0372
  18   2.0000     -10.584998      -288.0324
  19   2.0000     -10.583688      -287.9968
  20   2.0000     -10.570668      -287.6425
  21   2.0000     -10.570233      -287.6307
  22   2.0000     -10.569958      -287.6232
  23   2.0000     -10.567702      -287.5618
  24   2.0000     -10.563658      -287.4517
  25   2.0000     -10.562708      -287.4259
  26   2.0000     -10.560025      -287.3529
  27   2.0000     -10.558609      -287.3144
  28   2.0000     -10.557875      -287.2944
  29   2.0000     -10.556335      -287.2525
  30   2.0000     -10.554507      -287.2027
  31   2.0000     -10.551903      -287.1319
  32   2.0000     -10.550559      -287.0953
  33   2.0000     -10.548528      -287.0400
  34   2.0000     -10.546811      -286.9933
  35   2.0000     -10.545824      -286.9665
  36   2.0000     -10.545479      -286.9571
  37   2.0000     -10.544785      -286.9382
  38   2.0000     -10.544695      -286.9358
  39   2.0000     -10.544550      -286.9318
  40   2.0000     -10.544371      -286.9269
  41   2.0000     -10.544150      -286.9209
  42   2.0000     -10.544086      -286.9192
  43   2.0000     -10.543710      -286.9089
  44   2.0000     -10.542414      -286.8737
  45   2.0000     -10.541598      -286.8515
  46   2.0000     -10.541376      -286.8454
  47   2.0000     -10.541030      -286.8360
  48   2.0000     -10.540700      -286.8270
  49   2.0000     -10.540125      -286.8114
  50   2.0000     -10.538487      -286.7668
  51   2.0000     -10.538480      -286.7666
  52   2.0000     -10.538255      -286.7605
  53   2.0000     -10.537231      -286.7326
  54   2.0000     -10.535606      -286.6884
  55   2.0000     -10.534969      -286.6711
  56   2.0000     -10.534910      -286.6695
  57   2.0000     -10.534771      -286.6657
  58   2.0000     -10.534483      -286.6579
  59   2.0000     -10.533113      -286.6206
  60   2.0000     -10.524890      -286.3968
  61   2.0000     -10.524780      -286.3938
  62   2.0000     -10.523887      -286.3695
  63   2.0000     -10.523134      -286.3490
  64   2.0000     -10.522901      -286.3427
  65   2.0000     -10.522306      -286.3265
  66   2.0000     -10.522287      -286.3260
  67   2.0000     -10.521721      -286.3106
  68   2.0000     -10.520902      -286.2883
  69   2.0000     -10.520362      -286.2736
  70   2.0000     -10.519760      -286.2572
  71   2.0000     -10.518789      -286.2308
  72   2.0000     -10.518020      -286.2099
  73   2.0000     -10.517725      -286.2018
  74   2.0000     -10.517701      -286.2012
  75   2.0000     -10.517494      -286.1956
  76   2.0000     -10.517470      -286.1949
  77   2.0000     -10.517334      -286.1912
  78   2.0000     -10.516157      -286.1592
  79   2.0000     -10.515673      -286.1460
  80   2.0000     -10.514905      -286.1251
  81   2.0000     -10.514003      -286.1006
  82   2.0000     -10.513569      -286.0888
  83   2.0000     -10.513543      -286.0881
  84   2.0000     -10.513445      -286.0854
  85   2.0000     -10.512963      -286.0723
  86   2.0000     -10.512831      -286.0687
  87   2.0000     -10.512489      -286.0594
  88   2.0000     -10.512379      -286.0564
  89   2.0000     -10.512339      -286.0553
  90   2.0000     -10.512277      -286.0536
  91   2.0000     -10.511916      -286.0438
  92   2.0000     -10.511758      -286.0395
  93   2.0000     -10.511115      -286.0220
  94   2.0000     -10.510966      -286.0179
  95   2.0000     -10.510304      -285.9999
  96   2.0000      -3.857732      -104.9742
  97   2.0000      -3.849003      -104.7367
  98   2.0000      -2.535426       -68.9924
  99   2.0000      -2.534788       -68.9751
 100   2.0000      -2.526524       -68.7502
 101   2.0000      -2.525771       -68.7297
 102   2.0000      -2.498461       -67.9866
 103   2.0000      -2.489706       -67.7483
 104   2.0000      -1.315600       -35.7993
 105   2.0000      -1.307400       -35.5762
 106   2.0000      -1.306965       -35.5643
 107   2.0000      -1.306064       -35.5398
 108   2.0000      -1.295874       -35.2625
 109   2.0000      -1.295666       -35.2569
 110   2.0000      -1.291754       -35.1504
 111   2.0000      -1.290259       -35.1097
 112   2.0000      -1.182050       -32.1652
 113   2.0000      -1.181196       -32.1420
 114   2.0000      -1.179087       -32.0846
 115   2.0000      -1.178357       -32.0647
 116   2.0000      -1.176626       -32.0176
 117   2.0000      -1.175294       -31.9814
 118   2.0000      -1.175104       -31.9762
 119   2.0000      -1.174638       -31.9635
 120   2.0000      -1.144712       -31.1492
 121   2.0000      -1.143101       -31.1054
 122   2.0000      -1.140969       -31.0474
 123   2.0000      -1.139649       -31.0114
 124   2.0000      -1.115966       -30.3670
 125   2.0000      -1.114409       -30.3246
 126   2.0000      -1.113558       -30.3014
 127   2.0000      -1.113075       -30.2883
 128   2.0000      -1.111498       -30.2454
 129   2.0000      -1.110143       -30.2085
 130   2.0000      -1.108992       -30.1772
 131   2.0000      -1.107438       -30.1349
 132   2.0000      -1.081162       -29.4199
 133   2.0000      -1.080096       -29.3909
 134   2.0000      -1.079583       -29.3769
 135   2.0000      -1.079207       -29.3667
 136   2.0000      -1.078921       -29.3589
 137   2.0000      -1.078121       -29.3372
 138   2.0000      -1.077489       -29.3200
 139   2.0000      -1.076568       -29.2949
 140   2.0000      -1.060784       -28.8654
 141   2.0000      -1.059396       -28.8276
 142   2.0000      -1.058859       -28.8130
 143   2.0000      -1.057876       -28.7863
 144   2.0000      -1.053513       -28.6676
 145   2.0000      -1.052499       -28.6400
 146   2.0000      -1.050675       -28.5903
 147   2.0000      -1.050193       -28.5772
 148   2.0000      -1.017626       -27.6910
 149   2.0000      -1.016545       -27.6616
 150   2.0000      -1.015714       -27.6390
 151   2.0000      -1.015092       -27.6221
 152   2.0000      -0.978266       -26.6200
 153   2.0000      -0.975921       -26.5562
 154   2.0000      -0.973953       -26.5026
 155   2.0000      -0.973489       -26.4900
 156   2.0000      -0.968685       -26.3592
 157   2.0000      -0.967344       -26.3228
 158   2.0000      -0.966393       -26.2969
 159   2.0000      -0.965203       -26.2645
 160   2.0000      -0.963723       -26.2242
 161   2.0000      -0.963279       -26.2122
 162   2.0000      -0.960741       -26.1431
 163   2.0000      -0.959473       -26.1086
 164   2.0000      -0.944734       -25.7075
 165   2.0000      -0.942811       -25.6552
 166   2.0000      -0.942268       -25.6404
 167   2.0000      -0.941583       -25.6218
 168   2.0000      -0.927266       -25.2322
 169   2.0000      -0.925646       -25.1881
 170   2.0000      -0.925140       -25.1743
 171   2.0000      -0.924803       -25.1652
 172   2.0000      -0.910216       -24.7682
 173   2.0000      -0.909547       -24.7500
 174   2.0000      -0.907940       -24.7063
 175   2.0000      -0.907736       -24.7008
 176   2.0000      -0.906939       -24.6791
 177   2.0000      -0.905361       -24.6361
 178   2.0000      -0.903700       -24.5909
 179   2.0000      -0.903327       -24.5808
 180   2.0000      -0.874802       -23.8046
 181   2.0000      -0.866343       -23.5744
 182   2.0000      -0.865413       -23.5491
 183   2.0000      -0.860508       -23.4156
 184   2.0000      -0.857243       -23.3268
 185   2.0000      -0.855076       -23.2678
 186   2.0000      -0.853834       -23.2340
 187   2.0000      -0.853680       -23.2298
 188   2.0000      -0.838688       -22.8219
 189   2.0000      -0.835881       -22.7455
 190   2.0000      -0.835350       -22.7310
 191   2.0000      -0.833731       -22.6870
 192   2.0000      -0.833311       -22.6755
 193   2.0000      -0.832612       -22.6565
 194   2.0000      -0.831321       -22.6214
 195   2.0000      -0.830974       -22.6120
 196   2.0000      -0.827013       -22.5042
 197   2.0000      -0.825583       -22.4653
 198   2.0000      -0.823833       -22.4176
 199   2.0000      -0.823204       -22.4005
 200   2.0000      -0.822098       -22.3704
 201   2.0000      -0.819256       -22.2931
 202   2.0000      -0.817221       -22.2377
 203   2.0000      -0.811870       -22.0921
 204   2.0000      -0.798917       -21.7396
 205   2.0000      -0.795167       -21.6376
 206   2.0000      -0.793719       -21.5982
 207   2.0000      -0.792498       -21.5650
 208   2.0000      -0.792042       -21.5526
 209   2.0000      -0.783569       -21.3220
 210   2.0000      -0.781265       -21.2593
 211   2.0000      -0.779728       -21.2175
 212   2.0000      -0.777518       -21.1573
 213   2.0000      -0.776698       -21.1350
 214   2.0000      -0.775624       -21.1058
 215   2.0000      -0.770683       -20.9714
 216   2.0000      -0.768233       -20.9047
 217   2.0000      -0.766351       -20.8535
 218   2.0000      -0.764910       -20.8143
 219   2.0000      -0.764419       -20.8009
 220   2.0000      -0.763372       -20.7724
 221   2.0000      -0.762226       -20.7412
 222   2.0000      -0.761773       -20.7289
 223   2.0000      -0.761158       -20.7122
 224   2.0000      -0.759765       -20.6743
 225   2.0000      -0.759188       -20.6585
 226   2.0000      -0.758832       -20.6489
 227   2.0000      -0.756938       -20.5973
 228   2.0000      -0.756118       -20.5750
 229   2.0000      -0.753498       -20.5037
 230   2.0000      -0.752505       -20.4767
 231   2.0000      -0.749250       -20.3881
 232   2.0000      -0.747958       -20.3530
 233   2.0000      -0.746594       -20.3159
 234   2.0000      -0.738457       -20.0944
 235   2.0000      -0.738031       -20.0829
 236   2.0000      -0.736886       -20.0517
 237   2.0000      -0.735353       -20.0100
 238   2.0000      -0.734905       -19.9978
 239   2.0000      -0.734613       -19.9898
 240   2.0000      -0.733630       -19.9631
 241   2.0000      -0.733012       -19.9463
 242   2.0000      -0.732694       -19.9376
 243   2.0000      -0.732136       -19.9224
 244   2.0000      -0.731415       -19.9028
 245   2.0000      -0.730643       -19.8818
 246   2.0000      -0.729914       -19.8620
 247   2.0000      -0.728430       -19.8216
 248   2.0000      -0.721612       -19.6361
 249   2.0000      -0.720362       -19.6020
 250   2.0000      -0.719099       -19.5677
 251   2.0000      -0.718312       -19.5463
 252   2.0000      -0.715194       -19.4614
 253   2.0000      -0.707117       -19.2416
 254   2.0000      -0.704012       -19.1572
 255   2.0000      -0.702649       -19.1201
 256   2.0000      -0.701921       -19.1002
 257   2.0000      -0.701672       -19.0935
 258   2.0000      -0.699654       -19.0385
 259   2.0000      -0.697407       -18.9774
 260   2.0000      -0.691554       -18.8181
 261   2.0000      -0.690240       -18.7824
 262   2.0000      -0.689578       -18.7644
 263   2.0000      -0.688498       -18.7350
 264   2.0000      -0.687581       -18.7100
 265   2.0000      -0.686741       -18.6872
 266   2.0000      -0.685138       -18.6435
 267   2.0000      -0.684212       -18.6184
 268   2.0000      -0.681625       -18.5480
 269   2.0000      -0.678535       -18.4639
 270   2.0000      -0.674431       -18.3522
 271   2.0000      -0.669585       -18.2203
 272   2.0000      -0.665658       -18.1135
 273   2.0000      -0.665056       -18.0971
 274   2.0000      -0.663557       -18.0563
 275   2.0000      -0.662091       -18.0164
 276   2.0000      -0.659640       -17.9497
 277   2.0000      -0.658293       -17.9131
 278   2.0000      -0.656341       -17.8600
 279   2.0000      -0.653991       -17.7960
 280   2.0000      -0.648781       -17.6542
 281   2.0000      -0.647835       -17.6285
 282   2.0000      -0.646581       -17.5944
 283   2.0000      -0.644493       -17.5376
 284   2.0000      -0.644181       -17.5291
 285   2.0000      -0.643551       -17.5119
 286   2.0000      -0.642871       -17.4934
 287   2.0000      -0.642558       -17.4849
 288   2.0000      -0.642339       -17.4789
 289   2.0000      -0.638642       -17.3783
 290   2.0000      -0.637090       -17.3361
 291   2.0000      -0.633802       -17.2466
 292   2.0000      -0.629672       -17.1342
 293   2.0000      -0.627981       -17.0882
 294   2.0000      -0.626492       -17.0477
 295   2.0000      -0.625701       -17.0262
 296   2.0000      -0.625175       -17.0119
 297   2.0000      -0.623064       -16.9544
 298   2.0000      -0.621749       -16.9187
 299   2.0000      -0.618136       -16.8203
 300   2.0000      -0.616583       -16.7781
 301   2.0000      -0.616005       -16.7623
 302   2.0000      -0.615355       -16.7447
 303   2.0000      -0.613634       -16.6978
 304   2.0000      -0.611684       -16.6448
 305   2.0000      -0.605410       -16.4740
 306   2.0000      -0.601721       -16.3737
 307   2.0000      -0.599969       -16.3260
 308   2.0000      -0.596321       -16.2267
 309   2.0000      -0.594737       -16.1836
 310   2.0000      -0.584706       -15.9107
 311   2.0000      -0.580977       -15.8092
 312   2.0000      -0.579147       -15.7594
 313   2.0000      -0.577957       -15.7270
 314   2.0000      -0.576596       -15.6900
 315   2.0000      -0.571403       -15.5487
 316   2.0000      -0.570001       -15.5105
 317   2.0000      -0.568672       -15.4744
 318   2.0000      -0.567298       -15.4370
 319   2.0000      -0.565346       -15.3839
 320   2.0000      -0.564388       -15.3578
 321   2.0000      -0.561848       -15.2887
 322   2.0000      -0.561340       -15.2748
 323   2.0000      -0.558739       -15.2041
 324   2.0000      -0.556137       -15.1333
 325   2.0000      -0.552672       -15.0390
 326   2.0000      -0.551804       -15.0154
 327   2.0000      -0.551298       -15.0016
 328   2.0000      -0.538899       -14.6642
 329   2.0000      -0.535438       -14.5700
 330   2.0000      -0.532241       -14.4830
 331   2.0000      -0.531201       -14.4547
 332   2.0000      -0.504520       -13.7287
 333   2.0000      -0.502008       -13.6603
 334   2.0000      -0.500774       -13.6267
 335   2.0000      -0.498686       -13.5699
 336   0.0000      -0.359903        -9.7934
 337   0.0000      -0.357803        -9.7363
 338   0.0000      -0.356023        -9.6879
 339   0.0000      -0.354414        -9.6441
 340   0.0000      -0.352719        -9.5980

MULLIKEN ATOMIC CHARGES
-----------------------
   0 Pd:    0.409328
   1 Pd:    0.395267
   2 C :    0.000987
   3 C :   -0.043274
   4 C :   -0.012352
   5 C :    0.031745
   6 C :    0.032546
   7 C :    0.024472
   8 C :    0.027889
   9 C :    0.004578
  10 C :    0.120672
  11 N :   -0.304413
  12 C :    0.163491
  13 C :   -0.009707
  14 H :    0.057778
  15 H :    0.080410
  16 H :    0.057970
  17 H :    0.066783
  18 H :    0.083094
  19 H :    0.043467
  20 C :   -0.066565
  21 C :    0.034130
  22 C :   -0.014237
  23 C :    0.020892
  24 C :   -0.018100
  25 C :    0.016845
  26 H :    0.050649
  27 H :    0.042229
  28 H :    0.015511
  29 H :    0.019156
  30 C :   -0.032298
  31 C :    0.071681
  32 C :   -0.019492
  33 C :    0.141036
  34 N :   -0.298573
  35 C :    0.131456
  36 H :    0.075260
  37 H :    0.084485
  38 H :    0.081392
  39 H :    0.061494
  40 C :    0.018259
  41 C :   -0.054789
  42 C :   -0.018301
  43 C :    0.031570
  44 C :    0.031801
  45 C :    0.023479
  46 C :    0.024622
  47 C :    0.003985
  48 C :    0.121802
  49 N :   -0.314144
  50 C :    0.158751
  51 C :   -0.004520
  52 H :    0.056367
  53 H :    0.079329
  54 H :    0.056446
  55 H :    0.062980
  56 H :    0.070941
  57 H :    0.048247
  58 C :   -0.076995
  59 C :    0.035003
  60 C :   -0.015743
  61 C :    0.006631
  62 C :   -0.024240
  63 C :    0.027350
  64 H :    0.049690
  65 H :    0.039843
  66 H :    0.027216
  67 H :    0.023855
  68 C :   -0.023017
  69 C :    0.074320
  70 C :   -0.023452
  71 C :    0.138882
  72 N :   -0.303671
  73 C :    0.121649
  74 H :    0.076581
  75 H :    0.088103
  76 H :    0.091453
  77 H :    0.060990
  78 C :    0.008980
  79 C :   -0.052761
  80 C :   -0.013807
  81 C :    0.027733
  82 C :    0.032313
  83 C :    0.023136
  84 C :    0.025693
  85 C :   -0.001808
  86 C :    0.132282
  87 N :   -0.308170
  88 C :    0.156572
  89 C :    0.000088
  90 H :    0.054959
  91 H :    0.078524
  92 H :    0.056131
  93 H :    0.062731
  94 H :    0.059884
  95 H :    0.058365
  96 C :   -0.059824
  97 C :    0.019037
  98 C :   -0.031705
  99 C :    0.020185
 100 C :   -0.007143
 101 C :    0.035962
 102 H :    0.017076
 103 H :    0.020983
 104 H :    0.042063
 105 H :    0.051357
 106 C :   -0.030964
 107 C :    0.071751
 108 C :   -0.017647
 109 C :    0.129119
 110 N :   -0.304935
 111 C :    0.132098
 112 H :    0.075978
 113 H :    0.086489
 114 H :    0.098585
 115 H :    0.042419
 116 C :    0.011627
 117 C :   -0.058293
 118 C :   -0.010352
 119 C :    0.028005
 120 C :    0.033366
 121 C :    0.022430
 122 C :    0.025449
 123 C :    0.004867
 124 C :    0.116657
 125 N :   -0.312590
 126 C :    0.161828
 127 C :   -0.007260
 128 H :    0.055611
 129 H :    0.078974
 130 H :    0.056159
 131 H :    0.062611
 132 H :    0.071517
 133 H :    0.045779
 134 C :   -0.054854
 135 C :    0.018109
 136 C :   -0.027577
 137 C :    0.020186
 138 C :   -0.001806
 139 C :    0.036107
 140 H :    0.013297
 141 H :    0.005975
 142 H :    0.044709
 143 H :    0.052354
 144 C :   -0.033731
 145 C :    0.083361
 146 C :   -0.025094
 147 C :    0.138168
 148 N :   -0.301508
 149 C :    0.122473
 150 H :    0.075346
 151 H :    0.088348
 152 H :    0.088698
 153 H :    0.060367
Sum of atomic charges:    4.0000000

LOEWDIN ATOMIC CHARGES
----------------------
   0 Pd:   -0.348904
   1 Pd:   -0.349729
   2 C :   -0.013126
   3 C :   -0.024956
   4 C :   -0.029628
   5 C :    0.040775
   6 C :    0.035685
   7 C :    0.015840
   8 C :    0.010511
   9 C :    0.022033
  10 C :    0.041306
  11 N :    0.065117
  12 C :    0.089896
  13 C :   -0.017916
  14 H :    0.059489
  15 H :    0.063372
  16 H :    0.056925
  17 H :    0.064562
  18 H :    0.057494
  19 H :    0.048137
  20 C :   -0.041877
  21 C :    0.019581
  22 C :   -0.002567
  23 C :   -0.031886
  24 C :   -0.017407
  25 C :    0.000220
  26 H :    0.054337
  27 H :    0.045987
  28 H :    0.034630
  29 H :    0.039931
  30 C :   -0.012353
  31 C :    0.056319
  32 C :    0.007327
  33 C :    0.073129
  34 N :    0.075611
  35 C :    0.068210
  36 H :    0.060511
  37 H :    0.067342
  38 H :    0.056520
  39 H :    0.051540
  40 C :   -0.012120
  41 C :   -0.026224
  42 C :   -0.029394
  43 C :    0.039890
  44 C :    0.034237
  45 C :    0.014526
  46 C :    0.009495
  47 C :    0.019109
  48 C :    0.038584
  49 N :    0.059946
  50 C :    0.091997
  51 C :   -0.020311
  52 H :    0.058888
  53 H :    0.062912
  54 H :    0.056136
  55 H :    0.063035
  56 H :    0.054832
  57 H :    0.048820
  58 C :   -0.042571
  59 C :    0.018192
  60 C :   -0.004819
  61 C :   -0.034183
  62 C :   -0.018151
  63 C :    0.005901
  64 H :    0.053916
  65 H :    0.044747
  66 H :    0.038241
  67 H :    0.043079
  68 C :   -0.011768
  69 C :    0.057755
  70 C :    0.008520
  71 C :    0.075580
  72 N :    0.070609
  73 C :    0.065959
  74 H :    0.061897
  75 H :    0.068529
  76 H :    0.059439
  77 H :    0.049773
  78 C :   -0.012381
  79 C :   -0.024338
  80 C :   -0.029760
  81 C :    0.038996
  82 C :    0.033204
  83 C :    0.014611
  84 C :    0.009979
  85 C :    0.018166
  86 C :    0.041198
  87 N :    0.061726
  88 C :    0.092719
  89 C :   -0.019559
  90 H :    0.058162
  91 H :    0.062564
  92 H :    0.056034
  93 H :    0.062826
  94 H :    0.049983
  95 H :    0.051941
  96 C :   -0.038891
  97 C :    0.000453
  98 C :   -0.021908
  99 C :   -0.035197
 100 C :   -0.000112
 101 C :    0.022517
 102 H :    0.039638
 103 H :    0.033797
 104 H :    0.046325
 105 H :    0.054834
 106 C :   -0.011045
 107 C :    0.056980
 108 C :    0.007281
 109 C :    0.071087
 110 N :    0.069022
 111 C :    0.062284
 112 H :    0.061524
 113 H :    0.068321
 114 H :    0.060617
 115 H :    0.043044
 116 C :   -0.008621
 117 C :   -0.027549
 118 C :   -0.028274
 119 C :    0.039781
 120 C :    0.034245
 121 C :    0.014269
 122 C :    0.009562
 123 C :    0.019037
 124 C :    0.036852
 125 N :    0.059454
 126 C :    0.092470
 127 C :   -0.020078
 128 H :    0.058437
 129 H :    0.062852
 130 H :    0.055963
 131 H :    0.062889
 132 H :    0.054498
 133 H :    0.048056
 134 C :   -0.038872
 135 C :   -0.000754
 136 C :   -0.023301
 137 C :   -0.032295
 138 C :    0.002657
 139 C :    0.023944
 140 H :    0.038168
 141 H :    0.030773
 142 H :    0.048020
 143 H :    0.055165
 144 C :   -0.010753
 145 C :    0.059099
 146 C :    0.008102
 147 C :    0.074541
 148 N :    0.072806
 149 C :    0.065329
 150 H :    0.061673
 151 H :    0.068493
 152 H :    0.058736
 153 H :    0.051002

  Mayer bond orders larger than 0.100000
B(  0-Pd, 34-N ) :   0.5343 B(  0-Pd, 49-N ) :   0.5408 B(  0-Pd, 87-N ) :   0.5512
B(  0-Pd,125-N ) :   0.5398 B(  1-Pd, 11-N ) :   0.5753 B(  1-Pd, 72-N ) :   0.5420
B(  1-Pd,110-N ) :   0.5292 B(  1-Pd,148-N ) :   0.5402 B(  2-C ,  3-C ) :   2.5960
B(  2-C , 20-C ) :   1.0089 B(  3-C ,  4-C ) :   0.9918 B(  4-C ,  5-C ) :   1.4590
B(  4-C , 13-C ) :   1.2156 B(  5-C ,  6-C ) :   1.2616 B(  5-C , 14-H ) :   0.9928
B(  6-C ,  7-C ) :   1.4589 B(  6-C , 15-H ) :   0.9801 B(  7-C ,  8-C ) :   1.2661
B(  7-C , 16-H ) :   0.9944 B(  8-C ,  9-C ) :   1.2509 B(  8-C , 13-C ) :   1.2191
B(  9-C , 10-C ) :   1.5501 B(  9-C , 17-H ) :   0.9735 B( 10-C , 11-N ) :   1.1916
B( 10-C , 18-H ) :   0.9470 B( 11-N , 12-C ) :   1.3999 B( 12-C , 13-C ) :   1.3372
B( 12-C , 19-H ) :   0.9361 B( 20-C , 21-C ) :   1.3316 B( 20-C , 25-C ) :   1.3341
B( 21-C , 22-C ) :   1.4027 B( 21-C , 26-H ) :   0.9945 B( 22-C , 23-C ) :   1.3550
B( 22-C , 27-H ) :   0.9900 B( 23-C , 24-C ) :   1.3561 B( 23-C , 30-C ) :   1.0078
B( 24-C , 25-C ) :   1.4028 B( 24-C , 28-H ) :   0.9870 B( 25-C , 29-H ) :   0.9934
B( 30-C , 31-C ) :   1.3771 B( 30-C , 35-C ) :   1.4008 B( 31-C , 32-C ) :   1.4078
B( 31-C , 36-H ) :   0.9808 B( 32-C , 33-C ) :   1.4242 B( 32-C , 37-H ) :   0.9725
B( 33-C , 34-N ) :   1.3296 B( 33-C , 38-H ) :   0.9519 B( 34-N , 35-C ) :   1.3239
B( 35-C , 39-H ) :   0.9602 B( 40-C , 41-C ) :   2.5939 B( 40-C , 58-C ) :   1.0059
B( 41-C , 42-C ) :   0.9959 B( 42-C , 43-C ) :   1.4618 B( 42-C , 51-C ) :   1.2124
B( 43-C , 44-C ) :   1.2652 B( 43-C , 52-H ) :   0.9925 B( 44-C , 45-C ) :   1.4548
B( 44-C , 53-H ) :   0.9808 B( 45-C , 46-C ) :   1.2687 B( 45-C , 54-H ) :   0.9949
B( 46-C , 47-C ) :   1.2485 B( 46-C , 51-C ) :   1.2189 B( 47-C , 48-C ) :   1.5610
B( 47-C , 55-H ) :   0.9729 B( 48-C , 49-N ) :   1.1811 B( 48-C , 56-H ) :   0.9411
B( 49-N , 50-C ) :   1.4307 B( 50-C , 51-C ) :   1.3201 B( 50-C , 57-H ) :   0.9445
B( 58-C , 59-C ) :   1.3320 B( 58-C , 63-C ) :   1.3336 B( 59-C , 60-C ) :   1.4012
B( 59-C , 64-H ) :   0.9950 B( 60-C , 61-C ) :   1.3596 B( 60-C , 65-H ) :   0.9899
B( 61-C , 62-C ) :   1.3503 B( 61-C , 68-C ) :   1.0062 B( 62-C , 63-C ) :   1.4022
B( 62-C , 66-H ) :   0.9871 B( 63-C , 67-H ) :   0.9938 B( 68-C , 69-C ) :   1.3679
B( 68-C , 73-C ) :   1.4163 B( 69-C , 70-C ) :   1.4033 B( 69-C , 74-H ) :   0.9844
B( 70-C , 71-C ) :   1.4124 B( 70-C , 75-H ) :   0.9728 B( 71-C , 72-N ) :   1.3384
B( 71-C , 76-H ) :   0.9570 B( 72-N , 73-C ) :   1.3058 B( 73-C , 77-H ) :   0.9501
B( 78-C , 79-C ) :   2.5990 B( 78-C , 96-C ) :   1.0104 B( 79-C , 80-C ) :   0.9980
B( 80-C , 81-C ) :   1.4601 B( 80-C , 89-C ) :   1.2103 B( 81-C , 82-C ) :   1.2637
B( 81-C , 90-H ) :   0.9926 B( 82-C , 83-C ) :   1.4573 B( 82-C , 91-H ) :   0.9810
B( 83-C , 84-C ) :   1.2653 B( 83-C , 92-H ) :   0.9947 B( 84-C , 85-C ) :   1.2527
B( 84-C , 89-C ) :   1.2180 B( 85-C , 86-C ) :   1.5542 B( 85-C , 93-H ) :   0.9741
B( 86-C , 87-N ) :   1.2005 B( 86-C , 94-H ) :   0.9471 B( 87-N , 88-C ) :   1.4075
B( 88-C , 89-C ) :   1.3298 B( 88-C , 95-H ) :   0.9384 B( 96-C , 97-C ) :   1.3272
B( 96-C ,101-C ) :   1.3319 B( 97-C , 98-C ) :   1.4023 B( 97-C ,102-H ) :   0.9956
B( 98-C , 99-C ) :   1.3485 B( 98-C ,103-H ) :   0.9876 B( 99-C ,100-C ) :   1.3562
B( 99-C ,106-C ) :   1.0074 B(100-C ,101-C ) :   1.4054 B(100-C ,104-H ) :   0.9902
B(101-C ,105-H ) :   0.9940 B(106-C ,107-C ) :   1.3732 B(106-C ,111-C ) :   1.4141
B(107-C ,108-C ) :   1.4012 B(107-C ,112-H ) :   0.9828 B(108-C ,109-C ) :   1.4213
B(108-C ,113-H ) :   0.9731 B(109-C ,110-N ) :   1.3262 B(109-C ,114-H ) :   0.9505
B(110-N ,111-C ) :   1.3209 B(111-C ,115-H ) :   0.9516 B(116-C ,117-C ) :   2.5991
B(116-C ,134-C ) :   1.0153 B(117-C ,118-C ) :   1.0036 B(118-C ,119-C ) :   1.4549
B(118-C ,127-C ) :   1.2101 B(119-C ,120-C ) :   1.2685 B(119-C ,128-H ) :   0.9925
B(120-C ,121-C ) :   1.4516 B(120-C ,129-H ) :   0.9812 B(121-C ,122-C ) :   1.2697
B(121-C ,130-H ) :   0.9950 B(122-C ,123-C ) :   1.2483 B(122-C ,127-C ) :   1.2184
B(123-C ,124-C ) :   1.5616 B(123-C ,131-H ) :   0.9727 B(124-C ,125-N ) :   1.1786
B(124-C ,132-H ) :   0.9411 B(125-N ,126-C ) :   1.4333 B(126-C ,127-C ) :   1.3218
B(126-C ,133-H ) :   0.9449 B(134-C ,135-C ) :   1.3287 B(134-C ,139-C ) :   1.3298
B(135-C ,136-C ) :   1.4026 B(135-C ,140-H ) :   0.9950 B(136-C ,137-C ) :   1.3494
B(136-C ,141-H ) :   0.9869 B(137-C ,138-C ) :   1.3612 B(137-C ,144-C ) :   1.0028
B(138-C ,139-C ) :   1.4032 B(138-C ,142-H ) :   0.9909 B(139-C ,143-H ) :   0.9938
B(144-C ,145-C ) :   1.3756 B(144-C ,149-C ) :   1.4138 B(145-C ,146-C ) :   1.4073
B(145-C ,150-H ) :   0.9815 B(146-C ,147-C ) :   1.4160 B(146-C ,151-H ) :   0.9721
B(147-C ,148-N ) :   1.3426 B(147-C ,152-H ) :   0.9570 B(148-N ,149-C ) :   1.3036
B(149-C ,153-H ) :   0.9531

Dispersion correction           -0.255202858
FINAL SINGLE POINT ENERGY     -4072.806428759266

DIPOLE MOMENT
-------------
                                X             Y             Z
Electronic contribution:     20.96280     -48.77323     -12.32867
Nuclear contribution   :    -21.08106      47.81217      12.19127
                        -----------------------------------------
Total Dipole Moment    :     -0.11826      -0.96106      -0.13740
                        -----------------------------------------
Magnitude (a.u.)       :      0.97801
Magnitude (Debye)      :      2.48589

Rotational constants in cm-1:     0.000739     0.000356     0.000346
Rotational constants in MHz :    22.159322    10.680709    10.362337

                             ****ORCA TERMINATED NORMALLY****
TOTAL RUN TIME: 0 days 0 hours 16 minutes 14 seconds 882 msec
