                         Program Version 4.2.1 -  RELEASE  -
|  1> ! DFT SP RKS PBE0 def2-SVP D3BJ Grid6 NOFINALGRID SlowConv TightSCF printbasis
|  2>
|  3> %base "_s_4d2_b_PBE0"
|  4> %maxcore 3000
|  5> %scf
|  6>    MaxIter 2000
|  7> end
|  8> %pal
|  9>    nprocs 32
| 10> end
| 11>
| 12> * xyzfile 4 1 s_4d2_b.xyz
| 13>
| 14>                          ****END OF INPUT****

CARTESIAN COORDINATES (ANGSTROEM)
---------------------------------
  Pd     0.289100    4.165300   -0.506200
  Pd     1.042000   -5.225800    0.901800
  C      6.288700   -3.026500   -0.356800
  C      6.233200   -4.224700   -0.196800
  C      6.212300   -5.620600    0.000200
  C      7.371800   -6.358500   -0.147400
  C      7.376500   -7.742700    0.062700
  C      6.233800   -8.410800    0.425300
  C      5.027300   -7.704100    0.587900
  C      3.813300   -8.326000    0.959600
  C      2.675000   -7.580300    1.093100
  N      2.677000   -6.247600    0.877600
  C      3.787200   -5.627200    0.533000
  C      5.009000   -6.295200    0.371100
  H      8.287400   -5.860800   -0.428200
  H      8.300800   -8.285900   -0.062500
  H      6.247100   -9.477000    0.588900
  H      3.797600   -9.390200    1.132300
  H      1.721800   -8.018300    1.377300
  H      3.741800   -4.548200    0.370000
  C      6.399600   -1.624000   -0.490400
  C      7.669100   -1.036700   -0.510700
  C      7.786900    0.337700   -0.600700
  C      6.660300    1.139600   -0.668400
  C      5.384600    0.569700   -0.653600
  C      5.265500   -0.817100   -0.570400
  H      8.548600   -1.659200   -0.450500
  H      8.767100    0.789800   -0.611200
  H      6.778700    2.211100   -0.700200
  H      4.294000   -1.282900   -0.603100
  C      4.189500    1.421000   -0.690300
  C      4.160900    2.634200   -1.385500
  C      3.022800    3.417100   -1.355300
  N      1.922800    3.049900   -0.694100
  C      1.919300    1.882000   -0.035400
  C      3.022700    1.057300   -0.005200
  H      5.014900    2.963200   -1.954900
  H      2.985000    4.366000   -1.880400
  H      0.994700    1.627800    0.484700
  H      2.997700    0.149500    0.574000
  C     -0.544400    1.966500    5.492700
  C     -0.293200    3.105800    5.171200
  C      0.117700    4.439800    4.984400
  C      0.197000    5.267000    6.092100
  C      0.728800    6.556000    5.997500
  C      1.217700    7.028200    4.804600
  C      1.137300    6.231200    3.649500
  C      1.635900    6.656800    2.397100
  C      1.476200    5.864900    1.299800
  N      0.811700    4.678500    1.355300
  C      0.379300    4.225000    2.514800
  C      0.543100    4.936600    3.715800
  H     -0.139200    4.899400    7.049600
  H      0.775000    7.171200    6.883100
  H      1.664800    8.007700    4.739800
  H      2.135400    7.609700    2.323800
  H      1.881600    6.148300    0.325900
  H     -0.136700    3.270800    2.512800
  C     -0.713100    0.619100    5.878100
  C     -1.291700    0.300600    7.110500
  C     -1.356800   -1.020800    7.513800
  C     -0.847200   -2.031300    6.715200
  C     -0.268000   -1.727200    5.481600
  C     -0.218600   -0.398400    5.064900
  H     -1.676200    1.085300    7.743800
  H     -1.797700   -1.265700    8.468300
  H     -0.869100   -3.048900    7.071900
  H      0.197600   -0.140600    4.104600
  C      0.289700   -2.768100    4.613300
  C      1.396000   -2.492400    3.798300
  C      1.803400   -3.421900    2.866900
  N      1.195900   -4.605900    2.740000
  C      0.211500   -4.934500    3.580700
  C     -0.268000   -4.047600    4.523800
  H      1.926200   -1.558900    3.896300
  H      2.652700   -3.240100    2.211200
  H     -0.194000   -5.937100    3.478000
  H     -1.097900   -4.330700    5.150600
  C     -5.082400    1.797000    0.251400
  C     -5.013100    3.002400    0.316400
  C     -4.992000    4.409600    0.360300
  C     -6.165600    5.112100    0.561100
  C     -6.175500    6.511400    0.572900
  C     -5.022800    7.228100    0.370200
  C     -3.804800    6.555800    0.158800
  C     -2.587100    7.232100   -0.074500
  C     -1.440900    6.519600   -0.275300
  N     -1.420700    5.166700   -0.240400
  C     -2.538400    4.497100   -0.028000
  C     -3.774600    5.130800    0.166600
  H     -7.088400    4.572200    0.709100
  H     -7.109600    7.026900    0.736400
  H     -5.036400    8.306700    0.367200
  H     -2.574900    8.309900   -0.097000
  H     -0.492900    7.009800   -0.468400
  H     -2.468200    3.410500   -0.010700
  C     -5.145300    0.391800    0.133600
  C     -6.331500   -0.222900   -0.278800
  C     -6.375500   -1.597700   -0.420800
  C     -5.257300   -2.369600   -0.158100
  C     -4.064600   -1.768200    0.254600
  C     -4.019000   -0.383000    0.402500
  H     -7.202900    0.378700   -0.486800
  H     -7.290100   -2.072100   -0.742300
  H     -5.306700   -3.436200   -0.307100
  H     -3.129000    0.102500    0.770000
  C     -2.867900   -2.576800    0.496700
  C     -2.946400   -3.878900    1.000400
  C     -1.797800   -4.617900    1.156100
  N     -0.592600   -4.120100    0.857500
  C     -0.485500   -2.860600    0.417100
  C     -1.591800   -2.073000    0.214900
  H     -3.895900   -4.307400    1.276400
  H     -1.806300   -5.636800    1.523800
  H      0.526600   -2.515100    0.226200
  H     -1.475600   -1.079500   -0.185500
  C     -2.678200   -0.049500   -4.474700
  C     -2.467700    1.129000   -4.651100
  C     -2.247800    2.449200   -5.091500
  C     -2.785400    2.816100   -6.314500
  C     -2.531300    4.070900   -6.873900
  C     -1.721500    4.973100   -6.230300
  C     -1.170100    4.650700   -4.978200
  C     -0.326400    5.539800   -4.274600
  C      0.142800    5.195900   -3.042900
  N     -0.192600    4.021600   -2.441500
  C     -0.942900    3.149300   -3.083900
  C     -1.449800    3.389300   -4.374000
  H     -3.398700    2.109500   -6.852500
  H     -2.965700    4.318100   -7.830400
  H     -1.501100    5.931900   -6.672400
  H     -0.066900    6.486500   -4.720900
  H      0.810700    5.857700   -2.485500
  H     -1.171000    2.221500   -2.571200
  C     -2.859600   -1.443500   -4.344800
  C     -3.916700   -2.071200   -5.012100
  C     -4.039900   -3.447300   -4.958800
  C     -3.127900   -4.211600   -4.250300
  C     -2.072900   -3.597400   -3.572800
  C     -1.950000   -2.209700   -3.620100
  H     -4.624600   -1.480300   -5.572600
  H     -4.849100   -3.931800   -5.483800
  H     -3.219400   -5.286200   -4.256300
  H     -1.153100   -1.712600   -3.090400
  C     -1.108900   -4.371500   -2.786400
  C     -1.482500   -5.519100   -2.079200
  C     -0.595800   -6.083600   -1.184800
  N      0.618900   -5.568900   -0.977600
  C      1.041400   -4.551300   -1.736000
  C      0.218900   -3.941400   -2.658000
  H     -2.474200   -5.929000   -2.180100
  H     -0.849600   -6.959800   -0.595700
  H      2.075500   -4.242300   -1.597300
  H      0.592500   -3.128800   -3.260000

 Total Charge           Charge          ....    4
 Multiplicity           Mult            ....    1
 Number of Electrons    NEL             ....  672
 Basis Dimension        Dim             .... 1686

ORBITAL ENERGIES
----------------

  NO   OCC          E(Eh)            E(eV)
   0   2.0000     -14.766872      -401.8270
   1   2.0000     -14.763729      -401.7415
   2   2.0000     -14.757424      -401.5699
   3   2.0000     -14.753743      -401.4698
   4   2.0000     -14.752463      -401.4349
   5   2.0000     -14.751931      -401.4205
   6   2.0000     -14.751022      -401.3957
   7   2.0000     -14.750884      -401.3920
   8   2.0000     -10.610800      -288.7345
   9   2.0000     -10.606254      -288.6108
  10   2.0000     -10.603687      -288.5410
  11   2.0000     -10.599914      -288.4383
  12   2.0000     -10.598867      -288.4098
  13   2.0000     -10.597874      -288.3828
  14   2.0000     -10.597203      -288.3646
  15   2.0000     -10.597188      -288.3641
  16   2.0000     -10.593255      -288.2571
  17   2.0000     -10.592435      -288.2348
  18   2.0000     -10.589580      -288.1571
  19   2.0000     -10.586584      -288.0756
  20   2.0000     -10.584828      -288.0278
  21   2.0000     -10.578869      -287.8657
  22   2.0000     -10.577630      -287.8319
  23   2.0000     -10.577158      -287.8191
  24   2.0000     -10.576736      -287.8076
  25   2.0000     -10.576562      -287.8029
  26   2.0000     -10.573194      -287.7112
  27   2.0000     -10.568572      -287.5855
  28   2.0000     -10.568557      -287.5851
  29   2.0000     -10.562772      -287.4276
  30   2.0000     -10.562618      -287.4234
  31   2.0000     -10.558628      -287.3149
  32   2.0000     -10.558530      -287.3122
  33   2.0000     -10.557706      -287.2898
  34   2.0000     -10.556436      -287.2552
  35   2.0000     -10.555658      -287.2340
  36   2.0000     -10.552248      -287.1413
  37   2.0000     -10.551733      -287.1273
  38   2.0000     -10.550701      -287.0992
  39   2.0000     -10.549961      -287.0790
  40   2.0000     -10.549062      -287.0546
  41   2.0000     -10.548717      -287.0452
  42   2.0000     -10.548536      -287.0403
  43   2.0000     -10.547550      -287.0134
  44   2.0000     -10.546356      -286.9809
  45   2.0000     -10.544083      -286.9191
  46   2.0000     -10.543722      -286.9093
  47   2.0000     -10.543105      -286.8925
  48   2.0000     -10.542432      -286.8742
  49   2.0000     -10.542412      -286.8736
  50   2.0000     -10.542249      -286.8692
  51   2.0000     -10.541581      -286.8510
  52   2.0000     -10.540611      -286.8246
  53   2.0000     -10.539072      -286.7827
  54   2.0000     -10.538925      -286.7787
  55   2.0000     -10.538119      -286.7568
  56   2.0000     -10.537328      -286.7353
  57   2.0000     -10.535208      -286.6776
  58   2.0000     -10.535102      -286.6747
  59   2.0000     -10.534503      -286.6584
  60   2.0000     -10.533933      -286.6429
  61   2.0000     -10.532673      -286.6086
  62   2.0000     -10.528691      -286.5003
  63   2.0000     -10.528680      -286.5000
  64   2.0000     -10.526496      -286.4405
  65   2.0000     -10.523800      -286.3672
  66   2.0000     -10.522695      -286.3371
  67   2.0000     -10.522001      -286.3182
  68   2.0000     -10.521796      -286.3126
  69   2.0000     -10.521184      -286.2960
  70   2.0000     -10.519675      -286.2549
  71   2.0000     -10.519470      -286.2493
  72   2.0000     -10.519372      -286.2467
  73   2.0000     -10.518888      -286.2335
  74   2.0000     -10.518619      -286.2262
  75   2.0000     -10.518182      -286.2143
  76   2.0000     -10.517794      -286.2037
  77   2.0000     -10.517735      -286.2021
  78   2.0000     -10.517500      -286.1957
  79   2.0000     -10.517466      -286.1948
  80   2.0000     -10.516843      -286.1778
  81   2.0000     -10.516686      -286.1736
  82   2.0000     -10.516138      -286.1587
  83   2.0000     -10.515906      -286.1523
  84   2.0000     -10.515110      -286.1307
  85   2.0000     -10.515097      -286.1303
  86   2.0000     -10.514769      -286.1214
  87   2.0000     -10.513176      -286.0781
  88   2.0000     -10.513093      -286.0758
  89   2.0000     -10.513010      -286.0736
  90   2.0000     -10.511962      -286.0450
  91   2.0000     -10.510557      -286.0068
  92   2.0000     -10.510477      -286.0046
  93   2.0000     -10.509986      -285.9913
  94   2.0000     -10.507134      -285.9137
  95   2.0000     -10.505875      -285.8794
  96   2.0000      -3.865036      -105.1730
  97   2.0000      -3.856969      -104.9535
  98   2.0000      -2.544014       -69.2261
  99   2.0000      -2.542323       -69.1801
 100   2.0000      -2.534525       -68.9679
 101   2.0000      -2.533676       -68.9448
 102   2.0000      -2.506382       -68.2021
 103   2.0000      -2.497760       -67.9675
 104   2.0000      -1.328131       -36.1403
 105   2.0000      -1.314551       -35.7708
 106   2.0000      -1.312843       -35.7243
 107   2.0000      -1.310604       -35.6634
 108   2.0000      -1.303439       -35.4684
 109   2.0000      -1.299024       -35.3482
 110   2.0000      -1.298292       -35.3283
 111   2.0000      -1.296295       -35.2740
 112   2.0000      -1.190853       -32.4048
 113   2.0000      -1.186817       -32.2949
 114   2.0000      -1.183677       -32.2095
 115   2.0000      -1.182896       -32.1882
 116   2.0000      -1.182216       -32.1697
 117   2.0000      -1.180735       -32.1294
 118   2.0000      -1.179969       -32.1086
 119   2.0000      -1.174489       -31.9595
 120   2.0000      -1.154367       -31.4119
 121   2.0000      -1.148962       -31.2648
 122   2.0000      -1.146540       -31.1989
 123   2.0000      -1.146448       -31.1964
 124   2.0000      -1.122577       -30.5469
 125   2.0000      -1.119731       -30.4694
 126   2.0000      -1.118482       -30.4354
 127   2.0000      -1.117250       -30.4019
 128   2.0000      -1.112298       -30.2672
 129   2.0000      -1.110512       -30.2186
 130   2.0000      -1.110332       -30.2137
 131   2.0000      -1.108176       -30.1550
 132   2.0000      -1.088631       -29.6232
 133   2.0000      -1.087756       -29.5993
 134   2.0000      -1.086963       -29.5778
 135   2.0000      -1.085209       -29.5300
 136   2.0000      -1.084708       -29.5164
 137   2.0000      -1.083473       -29.4828
 138   2.0000      -1.081740       -29.4356
 139   2.0000      -1.079198       -29.3665
 140   2.0000      -1.066937       -29.0328
 141   2.0000      -1.065602       -28.9965
 142   2.0000      -1.064153       -28.9571
 143   2.0000      -1.060239       -28.8506
 144   2.0000      -1.059872       -28.8406
 145   2.0000      -1.056566       -28.7506
 146   2.0000      -1.052960       -28.6525
 147   2.0000      -1.052039       -28.6274
 148   2.0000      -1.018400       -27.7121
 149   2.0000      -1.017762       -27.6947
 150   2.0000      -1.015156       -27.6238
 151   2.0000      -1.012431       -27.5496
 152   2.0000      -0.993312       -27.0294
 153   2.0000      -0.983671       -26.7670
 154   2.0000      -0.983401       -26.7597
 155   2.0000      -0.981066       -26.6962
 156   2.0000      -0.976975       -26.5848
 157   2.0000      -0.975069       -26.5330
 158   2.0000      -0.972744       -26.4697
 159   2.0000      -0.969889       -26.3920
 160   2.0000      -0.969425       -26.3794
 161   2.0000      -0.967979       -26.3400
 162   2.0000      -0.966712       -26.3056
 163   2.0000      -0.966152       -26.2903
 164   2.0000      -0.951885       -25.9021
 165   2.0000      -0.949958       -25.8497
 166   2.0000      -0.948952       -25.8223
 167   2.0000      -0.945442       -25.7268
 168   2.0000      -0.935371       -25.4527
 169   2.0000      -0.934696       -25.4344
 170   2.0000      -0.932996       -25.3881
 171   2.0000      -0.928954       -25.2781
 172   2.0000      -0.914035       -24.8722
 173   2.0000      -0.913310       -24.8524
 174   2.0000      -0.912346       -24.8262
 175   2.0000      -0.909740       -24.7553
 176   2.0000      -0.906911       -24.6783
 177   2.0000      -0.905581       -24.6421
 178   2.0000      -0.904378       -24.6094
 179   2.0000      -0.903568       -24.5873
 180   2.0000      -0.884970       -24.0812
 181   2.0000      -0.876782       -23.8585
 182   2.0000      -0.874229       -23.7890
 183   2.0000      -0.869639       -23.6641
 184   2.0000      -0.862939       -23.4818
 185   2.0000      -0.858408       -23.3585
 186   2.0000      -0.853938       -23.2368
 187   2.0000      -0.852508       -23.1979
 188   2.0000      -0.844386       -22.9769
 189   2.0000      -0.842200       -22.9174
 190   2.0000      -0.841660       -22.9027
 191   2.0000      -0.838766       -22.8240
 192   2.0000      -0.837688       -22.7947
 193   2.0000      -0.834499       -22.7079
 194   2.0000      -0.834350       -22.7038
 195   2.0000      -0.833931       -22.6924
 196   2.0000      -0.831641       -22.6301
 197   2.0000      -0.829669       -22.5764
 198   2.0000      -0.828450       -22.5433
 199   2.0000      -0.826277       -22.4841
 200   2.0000      -0.817635       -22.2490
 201   2.0000      -0.816727       -22.2243
 202   2.0000      -0.814708       -22.1693
 203   2.0000      -0.814019       -22.1506
 204   2.0000      -0.813575       -22.1385
 205   2.0000      -0.810349       -22.0507
 206   2.0000      -0.801378       -21.8066
 207   2.0000      -0.800024       -21.7698
 208   2.0000      -0.799214       -21.7477
 209   2.0000      -0.790435       -21.5088
 210   2.0000      -0.787614       -21.4321
 211   2.0000      -0.787038       -21.4164
 212   2.0000      -0.785125       -21.3643
 213   2.0000      -0.783366       -21.3165
 214   2.0000      -0.782515       -21.2933
 215   2.0000      -0.780251       -21.2317
 216   2.0000      -0.774448       -21.0738
 217   2.0000      -0.772576       -21.0229
 218   2.0000      -0.772107       -21.0101
 219   2.0000      -0.770840       -20.9756
 220   2.0000      -0.770389       -20.9633
 221   2.0000      -0.768688       -20.9171
 222   2.0000      -0.767646       -20.8887
 223   2.0000      -0.767140       -20.8749
 224   2.0000      -0.766918       -20.8689
 225   2.0000      -0.765550       -20.8317
 226   2.0000      -0.765027       -20.8174
 227   2.0000      -0.762763       -20.7558
 228   2.0000      -0.761454       -20.7202
 229   2.0000      -0.760810       -20.7027
 230   2.0000      -0.760430       -20.6923
 231   2.0000      -0.757791       -20.6205
 232   2.0000      -0.757157       -20.6033
 233   2.0000      -0.755355       -20.5543
 234   2.0000      -0.753330       -20.4992
 235   2.0000      -0.752541       -20.4777
 236   2.0000      -0.749193       -20.3866
 237   2.0000      -0.745004       -20.2726
 238   2.0000      -0.743474       -20.2310
 239   2.0000      -0.740331       -20.1454
 240   2.0000      -0.739442       -20.1212
 241   2.0000      -0.738330       -20.0910
 242   2.0000      -0.736932       -20.0529
 243   2.0000      -0.735983       -20.0271
 244   2.0000      -0.733774       -19.9670
 245   2.0000      -0.733184       -19.9510
 246   2.0000      -0.731162       -19.8959
 247   2.0000      -0.730229       -19.8705
 248   2.0000      -0.726420       -19.7669
 249   2.0000      -0.723782       -19.6951
 250   2.0000      -0.720959       -19.6183
 251   2.0000      -0.719500       -19.5786
 252   2.0000      -0.719118       -19.5682
 253   2.0000      -0.711536       -19.3619
 254   2.0000      -0.708491       -19.2790
 255   2.0000      -0.707616       -19.2552
 256   2.0000      -0.703202       -19.1351
 257   2.0000      -0.701424       -19.0867
 258   2.0000      -0.699649       -19.0384
 259   2.0000      -0.698437       -19.0054
 260   2.0000      -0.696366       -18.9491
 261   2.0000      -0.695980       -18.9386
 262   2.0000      -0.695313       -18.9204
 263   2.0000      -0.693496       -18.8710
 264   2.0000      -0.693240       -18.8640
 265   2.0000      -0.692103       -18.8331
 266   2.0000      -0.688949       -18.7473
 267   2.0000      -0.686400       -18.6779
 268   2.0000      -0.684740       -18.6327
 269   2.0000      -0.680096       -18.5063
 270   2.0000      -0.678646       -18.4669
 271   2.0000      -0.671953       -18.2848
 272   2.0000      -0.670960       -18.2577
 273   2.0000      -0.665573       -18.1112
 274   2.0000      -0.664628       -18.0855
 275   2.0000      -0.662954       -18.0399
 276   2.0000      -0.657765       -17.8987
 277   2.0000      -0.656414       -17.8619
 278   2.0000      -0.654306       -17.8046
 279   2.0000      -0.652876       -17.7656
 280   2.0000      -0.651902       -17.7392
 281   2.0000      -0.651133       -17.7182
 282   2.0000      -0.650212       -17.6932
 283   2.0000      -0.648420       -17.6444
 284   2.0000      -0.647899       -17.6302
 285   2.0000      -0.647257       -17.6128
 286   2.0000      -0.647165       -17.6102
 287   2.0000      -0.645152       -17.5555
 288   2.0000      -0.643505       -17.5107
 289   2.0000      -0.642610       -17.4863
 290   2.0000      -0.640577       -17.4310
 291   2.0000      -0.638333       -17.3699
 292   2.0000      -0.637970       -17.3601
 293   2.0000      -0.636146       -17.3104
 294   2.0000      -0.635477       -17.2922
 295   2.0000      -0.634332       -17.2611
 296   2.0000      -0.631772       -17.1914
 297   2.0000      -0.629384       -17.1264
 298   2.0000      -0.628199       -17.0942
 299   2.0000      -0.624645       -16.9974
 300   2.0000      -0.623573       -16.9683
 301   2.0000      -0.620945       -16.8968
 302   2.0000      -0.619560       -16.8591
 303   2.0000      -0.618670       -16.8349
 304   2.0000      -0.618049       -16.8180
 305   2.0000      -0.611242       -16.6327
 306   2.0000      -0.605776       -16.4840
 307   2.0000      -0.600981       -16.3535
 308   2.0000      -0.599394       -16.3103
 309   2.0000      -0.594287       -16.1714
 310   2.0000      -0.593550       -16.1513
 311   2.0000      -0.589232       -16.0338
 312   2.0000      -0.587492       -15.9865
 313   2.0000      -0.585436       -15.9305
 314   2.0000      -0.583362       -15.8741
 315   2.0000      -0.578534       -15.7427
 316   2.0000      -0.571722       -15.5573
 317   2.0000      -0.570957       -15.5365
 318   2.0000      -0.569970       -15.5097
 319   2.0000      -0.567075       -15.4309
 320   2.0000      -0.566707       -15.4209
 321   2.0000      -0.564766       -15.3681
 322   2.0000      -0.563379       -15.3303
 323   2.0000      -0.560654       -15.2562
 324   2.0000      -0.551531       -15.0079
 325   2.0000      -0.550731       -14.9862
 326   2.0000      -0.548682       -14.9304
 327   2.0000      -0.546582       -14.8732
 328   2.0000      -0.545735       -14.8502
 329   2.0000      -0.545457       -14.8426
 330   2.0000      -0.542226       -14.7547
 331   2.0000      -0.541333       -14.7304
 332   2.0000      -0.505336       -13.7509
 333   2.0000      -0.504389       -13.7251
 334   2.0000      -0.501659       -13.6508
 335   2.0000      -0.497349       -13.5336
 336   0.0000      -0.382411       -10.4059
 337   0.0000      -0.373828       -10.1724
 338   0.0000      -0.366445        -9.9715
 339   0.0000      -0.362343        -9.8599
 340   0.0000      -0.360092        -9.7986

MULLIKEN ATOMIC CHARGES
-----------------------
   0 Pd:    0.392595
   1 Pd:    0.300509
   2 C :   -0.001904
   3 C :   -0.056888
   4 C :   -0.004670
   5 C :    0.028965
   6 C :    0.033467
   7 C :    0.025212
   8 C :    0.028608
   9 C :    0.001586
  10 C :    0.140487
  11 N :   -0.300667
  12 C :    0.154830
  13 C :   -0.003728
  14 H :    0.058548
  15 H :    0.081472
  16 H :    0.058801
  17 H :    0.068598
  18 H :    0.084271
  19 H :    0.040004
  20 C :   -0.044534
  21 C :    0.051667
  22 C :    0.012563
  23 C :   -0.011262
  24 C :    0.043381
  25 C :   -0.017555
  26 H :    0.058533
  27 H :    0.070235
  28 H :    0.040531
  29 H :   -0.019341
  30 C :    0.068408
  31 C :   -0.033555
  32 C :    0.155770
  33 N :   -0.312363
  34 C :    0.152190
  35 C :   -0.042060
  36 H :    0.072228
  37 H :    0.079839
  38 H :    0.061688
  39 H :    0.025017
  40 C :    0.028667
  41 C :   -0.078368
  42 C :   -0.012256
  43 C :    0.028478
  44 C :    0.033593
  45 C :    0.019032
  46 C :    0.025936
  47 C :    0.006222
  48 C :    0.106239
  49 N :   -0.314322
  50 C :    0.158342
  51 C :   -0.008351
  52 H :    0.058043
  53 H :    0.080484
  54 H :    0.055884
  55 H :    0.062569
  56 H :    0.079006
  57 H :    0.042804
  58 C :   -0.054008
  59 C :    0.051206
  60 C :    0.009922
  61 C :   -0.004392
  62 C :    0.035061
  63 C :   -0.011206
  64 H :    0.056132
  65 H :    0.071087
  66 H :    0.046227
  67 H :   -0.014449
  68 C :    0.061471
  69 C :   -0.033780
  70 C :    0.133402
  71 N :   -0.308262
  72 C :    0.138631
  73 C :   -0.018111
  74 H :    0.055447
  75 H :    0.073041
  76 H :    0.090298
  77 H :    0.066829
  78 C :    0.007155
  79 C :   -0.056004
  80 C :   -0.011040
  81 C :    0.027630
  82 C :    0.032673
  83 C :    0.021833
  84 C :    0.026383
  85 C :   -0.001929
  86 C :    0.134428
  87 N :   -0.313949
  88 C :    0.158241
  89 C :   -0.002784
  90 H :    0.057531
  91 H :    0.080111
  92 H :    0.056132
  93 H :    0.062133
  94 H :    0.065047
  95 H :    0.050856
  96 C :   -0.050463
  97 C :    0.051118
  98 C :    0.009194
  99 C :   -0.011519
 100 C :    0.042819
 101 C :   -0.018198
 102 H :    0.057113
 103 H :    0.066847
 104 H :    0.032584
 105 H :   -0.001633
 106 C :    0.073157
 107 C :   -0.030702
 108 C :    0.155018
 109 N :   -0.338734
 110 C :    0.160771
 111 C :   -0.029584
 112 H :    0.067646
 113 H :    0.085522
 114 H :    0.073847
 115 H :    0.027614
 116 C :    0.027358
 117 C :   -0.080332
 118 C :   -0.013192
 119 C :    0.026141
 120 C :    0.033775
 121 C :    0.020563
 122 C :    0.024553
 123 C :    0.006191
 124 C :    0.113228
 125 N :   -0.315918
 126 C :    0.157744
 127 C :   -0.002942
 128 H :    0.055834
 129 H :    0.080064
 130 H :    0.056542
 131 H :    0.063326
 132 H :    0.075361
 133 H :    0.043829
 134 C :   -0.052466
 135 C :    0.046857
 136 C :    0.008465
 137 C :   -0.010972
 138 C :    0.033677
 139 C :   -0.010049
 140 H :    0.053577
 141 H :    0.069794
 142 H :    0.047960
 143 H :   -0.009629
 144 C :    0.055496
 145 C :   -0.010695
 146 C :    0.135830
 147 N :   -0.301992
 148 C :    0.117579
 149 C :   -0.019704
 150 H :    0.061534
 151 H :    0.094345
 152 H :    0.083831
 153 H :    0.059558
Sum of atomic charges:    4.0000000

LOEWDIN ATOMIC CHARGES
----------------------
   0 Pd:   -0.357838
   1 Pd:   -0.376644
   2 C :   -0.014530
   3 C :   -0.026244
   4 C :   -0.029807
   5 C :    0.042610
   6 C :    0.036630
   7 C :    0.016807
   8 C :    0.011694
   9 C :    0.025588
  10 C :    0.050174
  11 N :    0.074607
  12 C :    0.083577
  13 C :   -0.015659
  14 H :    0.059745
  15 H :    0.063960
  16 H :    0.057360
  17 H :    0.065388
  18 H :    0.058290
  19 H :    0.046051
  20 C :   -0.041443
  21 C :    0.042499
  22 C :    0.011417
  23 C :    0.009760
  24 C :   -0.042123
  25 C :   -0.004227
  26 H :    0.057621
  27 H :    0.058926
  28 H :    0.044169
  29 H :    0.023442
  30 C :    0.045022
  31 C :    0.001475
  32 C :    0.082660
  33 N :    0.062905
  34 C :    0.065465
  35 C :   -0.022831
  36 H :    0.061767
  37 H :    0.057970
  38 H :    0.050409
  39 H :    0.041185
  40 C :   -0.002552
  41 C :   -0.036806
  42 C :   -0.025415
  43 C :    0.039650
  44 C :    0.036220
  45 C :    0.010756
  46 C :    0.009447
  47 C :    0.017549
  48 C :    0.035698
  49 N :    0.054046
  50 C :    0.090964
  51 C :   -0.021317
  52 H :    0.059467
  53 H :    0.063474
  54 H :    0.055650
  55 H :    0.062742
  56 H :    0.057245
  57 H :    0.046070
  58 C :   -0.044544
  59 C :    0.039680
  60 C :    0.011247
  61 C :    0.012445
  62 C :   -0.042205
  63 C :    0.002537
  64 H :    0.056408
  65 H :    0.059022
  66 H :    0.046651
  67 H :    0.026102
  68 C :    0.047374
  69 C :   -0.013918
  70 C :    0.068636
  71 N :    0.058181
  72 C :    0.081146
  73 C :    0.000459
  74 H :    0.052726
  75 H :    0.053368
  76 H :    0.061144
  77 H :    0.059850
  78 C :   -0.011719
  79 C :   -0.025272
  80 C :   -0.028998
  81 C :    0.039286
  82 C :    0.034892
  83 C :    0.013054
  84 C :    0.009929
  85 C :    0.017010
  86 C :    0.041040
  87 N :    0.060942
  88 C :    0.090431
  89 C :   -0.019549
  90 H :    0.059267
  91 H :    0.063221
  92 H :    0.055990
  93 H :    0.062659
  94 H :    0.049959
  95 H :    0.050445
  96 C :   -0.040506
  97 C :    0.039761
  98 C :    0.007819
  99 C :    0.005664
 100 C :   -0.042027
 101 C :    0.001686
 102 H :    0.056927
 103 H :    0.057145
 104 H :    0.041051
 105 H :    0.029886
 106 C :    0.047758
 107 C :   -0.005738
 108 C :    0.077399
 109 N :    0.055048
 110 C :    0.067795
 111 C :   -0.022196
 112 H :    0.060833
 113 H :    0.057106
 114 H :    0.048792
 115 H :    0.042655
 116 C :   -0.006227
 117 C :   -0.035254
 118 C :   -0.026651
 119 C :    0.039790
 120 C :    0.035266
 121 C :    0.012921
 122 C :    0.009596
 123 C :    0.019142
 124 C :    0.035424
 125 N :    0.056355
 126 C :    0.091886
 127 C :   -0.021693
 128 H :    0.058454
 129 H :    0.063412
 130 H :    0.056034
 131 H :    0.063041
 132 H :    0.056645
 133 H :    0.046649
 134 C :   -0.043922
 135 C :    0.037031
 136 C :    0.008767
 137 C :    0.009745
 138 C :   -0.041145
 139 C :    0.002595
 140 H :    0.055174
 141 H :    0.058279
 142 H :    0.046968
 143 H :    0.027026
 144 C :    0.048370
 145 C :   -0.002231
 146 C :    0.084051
 147 N :    0.046730
 148 C :    0.072847
 149 C :   -0.011507
 150 H :    0.057263
 151 H :    0.061912
 152 H :    0.056157
 153 H :    0.054632

  Mayer bond orders larger than 0.100000
B(  0-Pd, 33-N ) :   0.5351 B(  0-Pd, 49-N ) :   0.5479 B(  0-Pd, 87-N ) :   0.5539
B(  0-Pd,125-N ) :   0.5432 B(  1-Pd, 11-N ) :   0.6008 B(  1-Pd, 71-N ) :   0.5831
B(  1-Pd,109-N ) :   0.5349 B(  1-Pd,147-N ) :   0.5879 B(  2-C ,  3-C ) :   2.6028
B(  2-C , 20-C ) :   0.9968 B(  3-C ,  4-C ) :   0.9964 B(  4-C ,  5-C ) :   1.4554
B(  4-C , 13-C ) :   1.2120 B(  5-C ,  6-C ) :   1.2630 B(  5-C , 14-H ) :   0.9924
B(  6-C ,  7-C ) :   1.4595 B(  6-C , 15-H ) :   0.9799 B(  7-C ,  8-C ) :   1.2638
B(  7-C , 16-H ) :   0.9940 B(  8-C ,  9-C ) :   1.2551 B(  8-C , 13-C ) :   1.2171
B(  9-C , 10-C ) :   1.5392 B(  9-C , 17-H ) :   0.9737 B( 10-C , 11-N ) :   1.2010
B( 10-C , 18-H ) :   0.9498 B( 11-N , 12-C ) :   1.3686 B( 12-C , 13-C ) :   1.3501
B( 12-C , 19-H ) :   0.9277 B( 20-C , 21-C ) :   1.3302 B( 20-C , 25-C ) :   1.3515
B( 21-C , 22-C ) :   1.3870 B( 21-C , 26-H ) :   0.9948 B( 22-C , 23-C ) :   1.3948
B( 22-C , 27-H ) :   0.9822 B( 23-C , 24-C ) :   1.3512 B( 23-C , 28-H ) :   0.9884
B( 24-C , 25-C ) :   1.3461 B( 24-C , 30-C ) :   1.0305 B( 25-C , 29-H ) :   0.9852
B( 30-C , 31-C ) :   1.3650 B( 30-C , 35-C ) :   1.3491 B( 31-C , 32-C ) :   1.4537
B( 31-C , 36-H ) :   0.9710 B( 32-C , 33-N ) :   1.3265 B( 32-C , 37-H ) :   0.9501
B( 33-N , 34-C ) :   1.3073 B( 34-C , 35-C ) :   1.4597 B( 34-C , 38-H ) :   0.9535
B( 35-C , 39-H ) :   0.9689 B( 40-C , 41-C ) :   2.6049 B( 40-C , 58-C ) :   1.0027
B( 41-C , 42-C ) :   1.0165 B( 42-C , 43-C ) :   1.4557 B( 42-C , 51-C ) :   1.2062
B( 43-C , 44-C ) :   1.2727 B( 43-C , 52-H ) :   0.9917 B( 44-C , 45-C ) :   1.4466
B( 44-C , 53-H ) :   0.9809 B( 45-C , 46-C ) :   1.2737 B( 45-C , 54-H ) :   0.9952
B( 46-C , 47-C ) :   1.2434 B( 46-C , 51-C ) :   1.2160 B( 47-C , 48-C ) :   1.5601
B( 47-C , 55-H ) :   0.9735 B( 48-C , 49-N ) :   1.1706 B( 48-C , 56-H ) :   0.9407
B( 49-N , 50-C ) :   1.4287 B( 50-C , 51-C ) :   1.3263 B( 50-C , 57-H ) :   0.9457
B( 58-C , 59-C ) :   1.3247 B( 58-C , 63-C ) :   1.3580 B( 59-C , 60-C ) :   1.3864
B( 59-C , 64-H ) :   0.9952 B( 60-C , 61-C ) :   1.3940 B( 60-C , 65-H ) :   0.9815
B( 61-C , 62-C ) :   1.3506 B( 61-C , 66-H ) :   0.9890 B( 62-C , 63-C ) :   1.3463
B( 62-C , 68-C ) :   1.0304 B( 63-C , 67-H ) :   0.9847 B( 68-C , 69-C ) :   1.3402
B( 68-C , 73-C ) :   1.3585 B( 69-C , 70-C ) :   1.4528 B( 69-C , 74-H ) :   0.9729
B( 70-C , 71-N ) :   1.2898 B( 70-C , 75-H ) :   0.9504 B( 71-N , 72-C ) :   1.3031
B( 72-C , 73-C ) :   1.4509 B( 72-C , 76-H ) :   0.9570 B( 73-C , 77-H ) :   0.9722
B( 78-C , 79-C ) :   2.6019 B( 78-C , 96-C ) :   0.9956 B( 79-C , 80-C ) :   0.9985
B( 80-C , 81-C ) :   1.4565 B( 80-C , 89-C ) :   1.2109 B( 81-C , 82-C ) :   1.2628
B( 81-C , 90-H ) :   0.9927 B( 82-C , 83-C ) :   1.4575 B( 82-C , 91-H ) :   0.9805
B( 83-C , 84-C ) :   1.2641 B( 83-C , 92-H ) :   0.9948 B( 84-C , 85-C ) :   1.2516
B( 84-C , 89-C ) :   1.2180 B( 85-C , 86-C ) :   1.5515 B( 85-C , 93-H ) :   0.9747
B( 86-C , 87-N ) :   1.2075 B( 86-C , 94-H ) :   0.9418 B( 87-N , 88-C ) :   1.3975
B( 88-C , 89-C ) :   1.3372 B( 88-C , 95-H ) :   0.9359 B( 96-C , 97-C ) :   1.3301
B( 96-C ,101-C ) :   1.3532 B( 97-C , 98-C ) :   1.3846 B( 97-C ,102-H ) :   0.9951
B( 98-C , 99-C ) :   1.3957 B( 98-C ,103-H ) :   0.9827 B( 99-C ,100-C ) :   1.3486
B( 99-C ,104-H ) :   0.9886 B(100-C ,101-C ) :   1.3432 B(100-C ,106-C ) :   1.0316
B(101-C ,105-H ) :   0.9869 B(106-C ,107-C ) :   1.3470 B(106-C ,111-C ) :   1.3510
B(107-C ,108-C ) :   1.4604 B(107-C ,112-H ) :   0.9774 B(108-C ,109-N ) :   1.3000
B(108-C ,113-H ) :   0.9471 B(109-N ,110-C ) :   1.3085 B(110-C ,111-C ) :   1.4518
B(110-C ,114-H ) :   0.9364 B(111-C ,115-H ) :   0.9694 B(116-C ,117-C ) :   2.6060
B(116-C ,134-C ) :   0.9985 B(117-C ,118-C ) :   1.0178 B(118-C ,119-C ) :   1.4571
B(118-C ,127-C ) :   1.2053 B(119-C ,120-C ) :   1.2733 B(119-C ,128-H ) :   0.9918
B(120-C ,121-C ) :   1.4468 B(120-C ,129-H ) :   0.9814 B(121-C ,122-C ) :   1.2728
B(121-C ,130-H ) :   0.9952 B(122-C ,123-C ) :   1.2469 B(122-C ,127-C ) :   1.2149
B(123-C ,124-C ) :   1.5637 B(123-C ,131-H ) :   0.9722 B(124-C ,125-N ) :   1.1696
B(124-C ,132-H ) :   0.9398 B(125-N ,126-C ) :   1.4360 B(126-C ,127-C ) :   1.3195
B(126-C ,133-H ) :   0.9475 B(134-C ,135-C ) :   1.3265 B(134-C ,139-C ) :   1.3573
B(135-C ,136-C ) :   1.3855 B(135-C ,140-H ) :   0.9956 B(136-C ,137-C ) :   1.3903
B(136-C ,141-H ) :   0.9823 B(137-C ,138-C ) :   1.3506 B(137-C ,142-H ) :   0.9901
B(138-C ,139-C ) :   1.3466 B(138-C ,144-C ) :   1.0302 B(139-C ,143-H ) :   0.9832
B(144-C ,145-C ) :   1.3548 B(144-C ,149-C ) :   1.3313 B(145-C ,146-C ) :   1.4417
B(145-C ,150-H ) :   0.9752 B(146-C ,147-N ) :   1.2995 B(146-C ,151-H ) :   0.9576
B(147-N ,148-C ) :   1.2782 B(148-C ,149-C ) :   1.4438 B(148-C ,152-H ) :   0.9492
B(149-C ,153-H ) :   0.9766

Dispersion correction           -0.259644974
FINAL SINGLE POINT ENERGY     -4072.755059177624

DIPOLE MOMENT
-------------
                                X             Y             Z
Electronic contribution:     79.03489     -60.35761       2.39840
Nuclear contribution   :    -79.06968      60.79118      -2.40106
                        -----------------------------------------
Total Dipole Moment    :     -0.03479       0.43358      -0.00265
                        -----------------------------------------
Magnitude (a.u.)       :      0.43498
Magnitude (Debye)      :      1.10562

Rotational constants in cm-1:     0.000667     0.000396     0.000370
Rotational constants in MHz :    20.006217    11.866941    11.090787

                             ****ORCA TERMINATED NORMALLY****
TOTAL RUN TIME: 0 days 0 hours 16 minutes 6 seconds 950 msec
