                         Program Version 4.2.1 -  RELEASE  -
|  1> ! DFT SP B97-3c TightSCF printbasis  Grid6 NOFINALGRID SlowConv
|  2>
|  3> %base "_s_4d2_b_B97-3c"
|  4> %maxcore 3000
|  5> %scf
|  6>    MaxIter 2000
|  7> end
|  8> %pal
|  9>    nprocs 32
| 10> end
| 11>
| 12> * xyzfile 4 1 s_4d2_b.xyz
| 13>
| 14>                          ****END OF INPUT****

CARTESIAN COORDINATES (ANGSTROEM)
---------------------------------
  Pd     0.289100    4.165300   -0.506200
  Pd     1.042000   -5.225800    0.901800
  C      6.288700   -3.026500   -0.356800
  C      6.233200   -4.224700   -0.196800
  C      6.212300   -5.620600    0.000200
  C      7.371800   -6.358500   -0.147400
  C      7.376500   -7.742700    0.062700
  C      6.233800   -8.410800    0.425300
  C      5.027300   -7.704100    0.587900
  C      3.813300   -8.326000    0.959600
  C      2.675000   -7.580300    1.093100
  N      2.677000   -6.247600    0.877600
  C      3.787200   -5.627200    0.533000
  C      5.009000   -6.295200    0.371100
  H      8.287400   -5.860800   -0.428200
  H      8.300800   -8.285900   -0.062500
  H      6.247100   -9.477000    0.588900
  H      3.797600   -9.390200    1.132300
  H      1.721800   -8.018300    1.377300
  H      3.741800   -4.548200    0.370000
  C      6.399600   -1.624000   -0.490400
  C      7.669100   -1.036700   -0.510700
  C      7.786900    0.337700   -0.600700
  C      6.660300    1.139600   -0.668400
  C      5.384600    0.569700   -0.653600
  C      5.265500   -0.817100   -0.570400
  H      8.548600   -1.659200   -0.450500
  H      8.767100    0.789800   -0.611200
  H      6.778700    2.211100   -0.700200
  H      4.294000   -1.282900   -0.603100
  C      4.189500    1.421000   -0.690300
  C      4.160900    2.634200   -1.385500
  C      3.022800    3.417100   -1.355300
  N      1.922800    3.049900   -0.694100
  C      1.919300    1.882000   -0.035400
  C      3.022700    1.057300   -0.005200
  H      5.014900    2.963200   -1.954900
  H      2.985000    4.366000   -1.880400
  H      0.994700    1.627800    0.484700
  H      2.997700    0.149500    0.574000
  C     -0.544400    1.966500    5.492700
  C     -0.293200    3.105800    5.171200
  C      0.117700    4.439800    4.984400
  C      0.197000    5.267000    6.092100
  C      0.728800    6.556000    5.997500
  C      1.217700    7.028200    4.804600
  C      1.137300    6.231200    3.649500
  C      1.635900    6.656800    2.397100
  C      1.476200    5.864900    1.299800
  N      0.811700    4.678500    1.355300
  C      0.379300    4.225000    2.514800
  C      0.543100    4.936600    3.715800
  H     -0.139200    4.899400    7.049600
  H      0.775000    7.171200    6.883100
  H      1.664800    8.007700    4.739800
  H      2.135400    7.609700    2.323800
  H      1.881600    6.148300    0.325900
  H     -0.136700    3.270800    2.512800
  C     -0.713100    0.619100    5.878100
  C     -1.291700    0.300600    7.110500
  C     -1.356800   -1.020800    7.513800
  C     -0.847200   -2.031300    6.715200
  C     -0.268000   -1.727200    5.481600
  C     -0.218600   -0.398400    5.064900
  H     -1.676200    1.085300    7.743800
  H     -1.797700   -1.265700    8.468300
  H     -0.869100   -3.048900    7.071900
  H      0.197600   -0.140600    4.104600
  C      0.289700   -2.768100    4.613300
  C      1.396000   -2.492400    3.798300
  C      1.803400   -3.421900    2.866900
  N      1.195900   -4.605900    2.740000
  C      0.211500   -4.934500    3.580700
  C     -0.268000   -4.047600    4.523800
  H      1.926200   -1.558900    3.896300
  H      2.652700   -3.240100    2.211200
  H     -0.194000   -5.937100    3.478000
  H     -1.097900   -4.330700    5.150600
  C     -5.082400    1.797000    0.251400
  C     -5.013100    3.002400    0.316400
  C     -4.992000    4.409600    0.360300
  C     -6.165600    5.112100    0.561100
  C     -6.175500    6.511400    0.572900
  C     -5.022800    7.228100    0.370200
  C     -3.804800    6.555800    0.158800
  C     -2.587100    7.232100   -0.074500
  C     -1.440900    6.519600   -0.275300
  N     -1.420700    5.166700   -0.240400
  C     -2.538400    4.497100   -0.028000
  C     -3.774600    5.130800    0.166600
  H     -7.088400    4.572200    0.709100
  H     -7.109600    7.026900    0.736400
  H     -5.036400    8.306700    0.367200
  H     -2.574900    8.309900   -0.097000
  H     -0.492900    7.009800   -0.468400
  H     -2.468200    3.410500   -0.010700
  C     -5.145300    0.391800    0.133600
  C     -6.331500   -0.222900   -0.278800
  C     -6.375500   -1.597700   -0.420800
  C     -5.257300   -2.369600   -0.158100
  C     -4.064600   -1.768200    0.254600
  C     -4.019000   -0.383000    0.402500
  H     -7.202900    0.378700   -0.486800
  H     -7.290100   -2.072100   -0.742300
  H     -5.306700   -3.436200   -0.307100
  H     -3.129000    0.102500    0.770000
  C     -2.867900   -2.576800    0.496700
  C     -2.946400   -3.878900    1.000400
  C     -1.797800   -4.617900    1.156100
  N     -0.592600   -4.120100    0.857500
  C     -0.485500   -2.860600    0.417100
  C     -1.591800   -2.073000    0.214900
  H     -3.895900   -4.307400    1.276400
  H     -1.806300   -5.636800    1.523800
  H      0.526600   -2.515100    0.226200
  H     -1.475600   -1.079500   -0.185500
  C     -2.678200   -0.049500   -4.474700
  C     -2.467700    1.129000   -4.651100
  C     -2.247800    2.449200   -5.091500
  C     -2.785400    2.816100   -6.314500
  C     -2.531300    4.070900   -6.873900
  C     -1.721500    4.973100   -6.230300
  C     -1.170100    4.650700   -4.978200
  C     -0.326400    5.539800   -4.274600
  C      0.142800    5.195900   -3.042900
  N     -0.192600    4.021600   -2.441500
  C     -0.942900    3.149300   -3.083900
  C     -1.449800    3.389300   -4.374000
  H     -3.398700    2.109500   -6.852500
  H     -2.965700    4.318100   -7.830400
  H     -1.501100    5.931900   -6.672400
  H     -0.066900    6.486500   -4.720900
  H      0.810700    5.857700   -2.485500
  H     -1.171000    2.221500   -2.571200
  C     -2.859600   -1.443500   -4.344800
  C     -3.916700   -2.071200   -5.012100
  C     -4.039900   -3.447300   -4.958800
  C     -3.127900   -4.211600   -4.250300
  C     -2.072900   -3.597400   -3.572800
  C     -1.950000   -2.209700   -3.620100
  H     -4.624600   -1.480300   -5.572600
  H     -4.849100   -3.931800   -5.483800
  H     -3.219400   -5.286200   -4.256300
  H     -1.153100   -1.712600   -3.090400
  C     -1.108900   -4.371500   -2.786400
  C     -1.482500   -5.519100   -2.079200
  C     -0.595800   -6.083600   -1.184800
  N      0.618900   -5.568900   -0.977600
  C      1.041400   -4.551300   -1.736000
  C      0.218900   -3.941400   -2.658000
  H     -2.474200   -5.929000   -2.180100
  H     -0.849600   -6.959800   -0.595700
  H      2.075500   -4.242300   -1.597300
  H      0.592500   -3.128800   -3.260000

 Total Charge           Charge          ....    4
 Multiplicity           Mult            ....    1
 Number of Electrons    NEL             ....  672
 Basis Dimension        Dim             .... 2058

ORBITAL ENERGIES
----------------

  NO   OCC          E(Eh)            E(eV)
   0   2.0000     -14.351077      -390.5127
   1   2.0000     -14.350701      -390.5024
   2   2.0000     -14.345169      -390.3519
   3   2.0000     -14.341122      -390.2418
   4   2.0000     -14.339982      -390.2108
   5   2.0000     -14.339816      -390.2062
   6   2.0000     -14.339157      -390.1883
   7   2.0000     -14.338887      -390.1809
   8   2.0000     -10.257747      -279.1275
   9   2.0000     -10.253777      -279.0195
  10   2.0000     -10.252756      -278.9917
  11   2.0000     -10.248692      -278.8811
  12   2.0000     -10.247378      -278.8453
  13   2.0000     -10.247306      -278.8434
  14   2.0000     -10.246158      -278.8121
  15   2.0000     -10.245651      -278.7984
  16   2.0000     -10.242153      -278.7032
  17   2.0000     -10.241272      -278.6792
  18   2.0000     -10.238737      -278.6102
  19   2.0000     -10.236431      -278.5474
  20   2.0000     -10.235301      -278.5167
  21   2.0000     -10.229930      -278.3706
  22   2.0000     -10.229234      -278.3516
  23   2.0000     -10.228965      -278.3443
  24   2.0000     -10.228261      -278.3251
  25   2.0000     -10.228148      -278.3221
  26   2.0000     -10.225131      -278.2400
  27   2.0000     -10.221409      -278.1387
  28   2.0000     -10.220090      -278.1028
  29   2.0000     -10.215697      -277.9833
  30   2.0000     -10.214860      -277.9605
  31   2.0000     -10.211534      -277.8700
  32   2.0000     -10.211226      -277.8616
  33   2.0000     -10.210606      -277.8447
  34   2.0000     -10.209840      -277.8239
  35   2.0000     -10.209439      -277.8130
  36   2.0000     -10.207847      -277.7696
  37   2.0000     -10.207281      -277.7542
  38   2.0000     -10.206329      -277.7283
  39   2.0000     -10.205512      -277.7061
  40   2.0000     -10.204748      -277.6853
  41   2.0000     -10.204455      -277.6773
  42   2.0000     -10.202879      -277.6345
  43   2.0000     -10.201879      -277.6072
  44   2.0000     -10.200929      -277.5814
  45   2.0000     -10.200408      -277.5672
  46   2.0000     -10.199474      -277.5418
  47   2.0000     -10.199412      -277.5401
  48   2.0000     -10.198684      -277.5203
  49   2.0000     -10.198087      -277.5040
  50   2.0000     -10.196326      -277.4561
  51   2.0000     -10.195836      -277.4428
  52   2.0000     -10.195737      -277.4401
  53   2.0000     -10.195282      -277.4277
  54   2.0000     -10.194747      -277.4132
  55   2.0000     -10.193740      -277.3858
  56   2.0000     -10.193724      -277.3853
  57   2.0000     -10.191748      -277.3316
  58   2.0000     -10.191701      -277.3303
  59   2.0000     -10.189498      -277.2703
  60   2.0000     -10.188305      -277.2379
  61   2.0000     -10.186848      -277.1982
  62   2.0000     -10.183269      -277.1008
  63   2.0000     -10.183108      -277.0964
  64   2.0000     -10.180867      -277.0355
  65   2.0000     -10.178943      -276.9831
  66   2.0000     -10.177731      -276.9501
  67   2.0000     -10.177145      -276.9342
  68   2.0000     -10.177029      -276.9310
  69   2.0000     -10.176397      -276.9138
  70   2.0000     -10.175357      -276.8855
  71   2.0000     -10.174663      -276.8666
  72   2.0000     -10.174086      -276.8510
  73   2.0000     -10.174016      -276.8490
  74   2.0000     -10.173730      -276.8413
  75   2.0000     -10.173334      -276.8305
  76   2.0000     -10.172895      -276.8185
  77   2.0000     -10.172840      -276.8170
  78   2.0000     -10.172801      -276.8160
  79   2.0000     -10.172278      -276.8018
  80   2.0000     -10.172005      -276.7943
  81   2.0000     -10.171550      -276.7819
  82   2.0000     -10.171186      -276.7721
  83   2.0000     -10.171115      -276.7701
  84   2.0000     -10.170957      -276.7658
  85   2.0000     -10.170514      -276.7538
  86   2.0000     -10.169689      -276.7313
  87   2.0000     -10.169002      -276.7126
  88   2.0000     -10.168178      -276.6902
  89   2.0000     -10.168003      -276.6854
  90   2.0000     -10.167783      -276.6794
  91   2.0000     -10.166558      -276.6461
  92   2.0000     -10.165960      -276.6298
  93   2.0000     -10.165485      -276.6169
  94   2.0000     -10.163764      -276.5701
  95   2.0000     -10.162312      -276.5306
  96   2.0000      -3.665337       -99.7389
  97   2.0000      -3.655646       -99.4752
  98   2.0000      -2.397235       -65.2321
  99   2.0000      -2.395260       -65.1783
 100   2.0000      -2.386467       -64.9391
 101   2.0000      -2.385537       -64.9138
 102   2.0000      -2.354588       -64.0716
 103   2.0000      -2.344128       -63.7870
 104   2.0000      -1.223948       -33.3053
 105   2.0000      -1.212272       -32.9876
 106   2.0000      -1.210510       -32.9396
 107   2.0000      -1.208122       -32.8747
 108   2.0000      -1.201992       -32.7079
 109   2.0000      -1.198777       -32.6204
 110   2.0000      -1.197257       -32.5790
 111   2.0000      -1.195588       -32.5336
 112   2.0000      -1.094182       -29.7742
 113   2.0000      -1.090791       -29.6819
 114   2.0000      -1.087939       -29.6043
 115   2.0000      -1.087113       -29.5818
 116   2.0000      -1.086475       -29.5645
 117   2.0000      -1.085056       -29.5259
 118   2.0000      -1.084392       -29.5078
 119   2.0000      -1.079429       -29.3728
 120   2.0000      -1.060701       -28.8631
 121   2.0000      -1.056058       -28.7368
 122   2.0000      -1.053881       -28.6776
 123   2.0000      -1.053828       -28.6761
 124   2.0000      -1.032376       -28.0924
 125   2.0000      -1.029469       -28.0133
 126   2.0000      -1.028291       -27.9812
 127   2.0000      -1.027197       -27.9515
 128   2.0000      -1.022847       -27.8331
 129   2.0000      -1.021859       -27.8062
 130   2.0000      -1.021444       -27.7949
 131   2.0000      -1.019373       -27.7386
 132   2.0000      -1.000851       -27.2346
 133   2.0000      -1.000191       -27.2166
 134   2.0000      -0.998787       -27.1784
 135   2.0000      -0.997803       -27.1516
 136   2.0000      -0.996774       -27.1236
 137   2.0000      -0.995780       -27.0966
 138   2.0000      -0.994617       -27.0649
 139   2.0000      -0.991863       -26.9900
 140   2.0000      -0.981119       -26.6976
 141   2.0000      -0.979885       -26.6640
 142   2.0000      -0.978583       -26.6286
 143   2.0000      -0.974802       -26.5257
 144   2.0000      -0.974205       -26.5095
 145   2.0000      -0.971248       -26.4290
 146   2.0000      -0.967919       -26.3384
 147   2.0000      -0.966917       -26.3112
 148   2.0000      -0.936438       -25.4818
 149   2.0000      -0.935976       -25.4692
 150   2.0000      -0.933608       -25.4048
 151   2.0000      -0.930956       -25.3326
 152   2.0000      -0.912848       -24.8399
 153   2.0000      -0.904374       -24.6093
 154   2.0000      -0.904265       -24.6063
 155   2.0000      -0.902044       -24.5459
 156   2.0000      -0.897806       -24.4305
 157   2.0000      -0.896278       -24.3890
 158   2.0000      -0.894146       -24.3310
 159   2.0000      -0.891664       -24.2634
 160   2.0000      -0.891138       -24.2491
 161   2.0000      -0.889956       -24.2169
 162   2.0000      -0.888743       -24.1839
 163   2.0000      -0.888444       -24.1758
 164   2.0000      -0.874471       -23.7956
 165   2.0000      -0.872722       -23.7480
 166   2.0000      -0.871779       -23.7223
 167   2.0000      -0.868634       -23.6367
 168   2.0000      -0.859502       -23.3882
 169   2.0000      -0.858940       -23.3729
 170   2.0000      -0.857346       -23.3296
 171   2.0000      -0.853679       -23.2298
 172   2.0000      -0.838957       -22.8292
 173   2.0000      -0.838570       -22.8187
 174   2.0000      -0.837860       -22.7993
 175   2.0000      -0.835512       -22.7354
 176   2.0000      -0.832828       -22.6624
 177   2.0000      -0.831724       -22.6324
 178   2.0000      -0.830434       -22.5973
 179   2.0000      -0.829810       -22.5803
 180   2.0000      -0.810716       -22.0607
 181   2.0000      -0.803783       -21.8721
 182   2.0000      -0.801145       -21.8003
 183   2.0000      -0.796946       -21.6860
 184   2.0000      -0.790519       -21.5111
 185   2.0000      -0.786832       -21.4108
 186   2.0000      -0.782135       -21.2830
 187   2.0000      -0.780969       -21.2512
 188   2.0000      -0.772772       -21.0282
 189   2.0000      -0.770857       -20.9761
 190   2.0000      -0.769685       -20.9442
 191   2.0000      -0.767953       -20.8971
 192   2.0000      -0.766881       -20.8679
 193   2.0000      -0.764466       -20.8022
 194   2.0000      -0.763256       -20.7692
 195   2.0000      -0.762536       -20.7497
 196   2.0000      -0.761864       -20.7314
 197   2.0000      -0.761270       -20.7152
 198   2.0000      -0.758819       -20.6485
 199   2.0000      -0.758266       -20.6335
 200   2.0000      -0.749902       -20.4059
 201   2.0000      -0.748670       -20.3723
 202   2.0000      -0.746795       -20.3213
 203   2.0000      -0.746372       -20.3098
 204   2.0000      -0.745661       -20.2905
 205   2.0000      -0.740405       -20.1475
 206   2.0000      -0.738286       -20.0898
 207   2.0000      -0.736372       -20.0377
 208   2.0000      -0.736066       -20.0294
 209   2.0000      -0.725176       -19.7330
 210   2.0000      -0.722988       -19.6735
 211   2.0000      -0.721770       -19.6404
 212   2.0000      -0.718523       -19.5520
 213   2.0000      -0.717203       -19.5161
 214   2.0000      -0.714737       -19.4490
 215   2.0000      -0.714563       -19.4442
 216   2.0000      -0.710933       -19.3455
 217   2.0000      -0.708995       -19.2927
 218   2.0000      -0.707524       -19.2527
 219   2.0000      -0.706540       -19.2259
 220   2.0000      -0.705547       -19.1989
 221   2.0000      -0.704885       -19.1809
 222   2.0000      -0.704527       -19.1712
 223   2.0000      -0.703545       -19.1444
 224   2.0000      -0.703266       -19.1368
 225   2.0000      -0.701850       -19.0983
 226   2.0000      -0.699300       -19.0289
 227   2.0000      -0.698423       -19.0051
 228   2.0000      -0.696445       -18.9512
 229   2.0000      -0.694698       -18.9037
 230   2.0000      -0.694342       -18.8940
 231   2.0000      -0.693821       -18.8798
 232   2.0000      -0.691359       -18.8128
 233   2.0000      -0.690452       -18.7882
 234   2.0000      -0.687763       -18.7150
 235   2.0000      -0.686520       -18.6812
 236   2.0000      -0.683805       -18.6073
 237   2.0000      -0.680225       -18.5099
 238   2.0000      -0.678522       -18.4635
 239   2.0000      -0.676756       -18.4155
 240   2.0000      -0.675822       -18.3900
 241   2.0000      -0.674906       -18.3651
 242   2.0000      -0.673302       -18.3215
 243   2.0000      -0.672409       -18.2972
 244   2.0000      -0.669561       -18.2197
 245   2.0000      -0.669330       -18.2134
 246   2.0000      -0.668404       -18.1882
 247   2.0000      -0.667676       -18.1684
 248   2.0000      -0.664722       -18.0880
 249   2.0000      -0.662681       -18.0325
 250   2.0000      -0.659723       -17.9520
 251   2.0000      -0.659032       -17.9332
 252   2.0000      -0.658562       -17.9204
 253   2.0000      -0.651339       -17.7238
 254   2.0000      -0.649106       -17.6631
 255   2.0000      -0.648318       -17.6416
 256   2.0000      -0.644280       -17.5318
 257   2.0000      -0.642064       -17.4715
 258   2.0000      -0.641229       -17.4487
 259   2.0000      -0.640158       -17.4196
 260   2.0000      -0.637918       -17.3586
 261   2.0000      -0.636201       -17.3119
 262   2.0000      -0.635556       -17.2944
 263   2.0000      -0.634966       -17.2783
 264   2.0000      -0.633368       -17.2348
 265   2.0000      -0.631341       -17.1797
 266   2.0000      -0.628600       -17.1051
 267   2.0000      -0.626694       -17.0532
 268   2.0000      -0.625246       -17.0138
 269   2.0000      -0.621062       -16.9000
 270   2.0000      -0.620253       -16.8779
 271   2.0000      -0.614366       -16.7178
 272   2.0000      -0.613363       -16.6904
 273   2.0000      -0.608424       -16.5561
 274   2.0000      -0.607505       -16.5310
 275   2.0000      -0.605770       -16.4838
 276   2.0000      -0.601607       -16.3706
 277   2.0000      -0.600434       -16.3387
 278   2.0000      -0.598000       -16.2724
 279   2.0000      -0.597481       -16.2583
 280   2.0000      -0.596283       -16.2257
 281   2.0000      -0.596030       -16.2188
 282   2.0000      -0.594770       -16.1845
 283   2.0000      -0.593474       -16.1493
 284   2.0000      -0.592631       -16.1263
 285   2.0000      -0.592256       -16.1161
 286   2.0000      -0.592083       -16.1114
 287   2.0000      -0.590423       -16.0662
 288   2.0000      -0.587916       -15.9980
 289   2.0000      -0.585457       -15.9311
 290   2.0000      -0.585200       -15.9241
 291   2.0000      -0.584502       -15.9051
 292   2.0000      -0.582046       -15.8383
 293   2.0000      -0.580730       -15.8025
 294   2.0000      -0.580541       -15.7973
 295   2.0000      -0.577887       -15.7251
 296   2.0000      -0.575579       -15.6623
 297   2.0000      -0.573834       -15.6148
 298   2.0000      -0.570205       -15.5161
 299   2.0000      -0.569268       -15.4906
 300   2.0000      -0.568168       -15.4606
 301   2.0000      -0.565448       -15.3866
 302   2.0000      -0.560887       -15.2625
 303   2.0000      -0.557663       -15.1748
 304   2.0000      -0.556542       -15.1443
 305   2.0000      -0.554331       -15.0841
 306   2.0000      -0.552739       -15.0408
 307   2.0000      -0.550581       -14.9821
 308   2.0000      -0.549022       -14.9397
 309   2.0000      -0.545133       -14.8338
 310   2.0000      -0.544969       -14.8294
 311   2.0000      -0.540579       -14.7099
 312   2.0000      -0.539212       -14.6727
 313   2.0000      -0.537841       -14.6354
 314   2.0000      -0.527802       -14.3622
 315   2.0000      -0.526332       -14.3222
 316   2.0000      -0.525716       -14.3055
 317   2.0000      -0.524189       -14.2639
 318   2.0000      -0.522891       -14.2286
 319   2.0000      -0.520816       -14.1721
 320   2.0000      -0.520237       -14.1564
 321   2.0000      -0.518720       -14.1151
 322   2.0000      -0.515249       -14.0206
 323   2.0000      -0.514610       -14.0033
 324   2.0000      -0.509325       -13.8595
 325   2.0000      -0.508558       -13.8386
 326   2.0000      -0.506485       -13.7822
 327   2.0000      -0.505397       -13.7525
 328   2.0000      -0.504397       -13.7253
 329   2.0000      -0.503773       -13.7084
 330   2.0000      -0.501602       -13.6493
 331   2.0000      -0.500531       -13.6201
 332   2.0000      -0.469723       -12.7818
 333   2.0000      -0.468944       -12.7606
 334   2.0000      -0.466535       -12.6951
 335   2.0000      -0.462472       -12.5845
 336   0.0000      -0.406424       -11.0593
 337   0.0000      -0.394200       -10.7267
 338   0.0000      -0.392304       -10.6751
 339   0.0000      -0.383714       -10.4414
 340   0.0000      -0.380695       -10.3592

MULLIKEN ATOMIC CHARGES
-----------------------
   0 Pd:   -0.010729
   1 Pd:   -0.046068
   2 C :   -0.015791
   3 C :    0.067246
   4 C :   -0.175884
   5 C :   -0.104174
   6 C :   -0.169061
   7 C :   -0.205112
   8 C :   -0.051687
   9 C :   -0.134237
  10 C :   -0.145941
  11 N :    0.003694
  12 C :   -0.156237
  13 C :    0.379910
  14 H :    0.254005
  15 H :    0.232530
  16 H :    0.249386
  17 H :    0.255507
  18 H :    0.186547
  19 H :    0.132456
  20 C :   -0.179409
  21 C :   -0.119781
  22 C :   -0.166339
  23 C :   -0.127796
  24 C :   -0.056577
  25 C :   -0.124962
  26 H :    0.245523
  27 H :    0.226390
  28 H :    0.238119
  29 H :    0.210060
  30 C :   -0.122988
  31 C :   -0.053836
  32 C :   -0.106667
  33 N :   -0.043626
  34 C :   -0.139597
  35 C :   -0.046248
  36 H :    0.270672
  37 H :    0.190386
  38 H :    0.147527
  39 H :    0.218152
  40 C :   -0.021834
  41 C :    0.027851
  42 C :   -0.136909
  43 C :   -0.102327
  44 C :   -0.190560
  45 C :   -0.203566
  46 C :   -0.009387
  47 C :   -0.120243
  48 C :   -0.181775
  49 N :   -0.098578
  50 C :   -0.085572
  51 C :    0.307068
  52 H :    0.249298
  53 H :    0.230854
  54 H :    0.246157
  55 H :    0.252192
  56 H :    0.180960
  57 H :    0.177877
  58 C :   -0.180140
  59 C :   -0.118257
  60 C :   -0.153032
  61 C :   -0.134160
  62 C :   -0.057147
  63 C :   -0.155187
  64 H :    0.241634
  65 H :    0.227752
  66 H :    0.243264
  67 H :    0.213131
  68 C :   -0.083444
  69 C :   -0.099629
  70 C :   -0.112667
  71 N :   -0.088154
  72 C :   -0.134456
  73 C :   -0.051597
  74 H :    0.259019
  75 H :    0.167700
  76 H :    0.196206
  77 H :    0.261001
  78 C :    0.010273
  79 C :    0.056122
  80 C :   -0.212271
  81 C :   -0.087578
  82 C :   -0.178212
  83 C :   -0.221106
  84 C :   -0.048542
  85 C :   -0.141470
  86 C :   -0.126002
  87 N :   -0.081919
  88 C :   -0.127846
  89 C :    0.411337
  90 H :    0.254011
  91 H :    0.231211
  92 H :    0.246760
  93 H :    0.253556
  94 H :    0.179793
  95 H :    0.151857
  96 C :   -0.194649
  97 C :   -0.119020
  98 C :   -0.162765
  99 C :   -0.152292
 100 C :   -0.077780
 101 C :   -0.138402
 102 H :    0.245690
 103 H :    0.223844
 104 H :    0.227416
 105 H :    0.229181
 106 C :   -0.102238
 107 C :   -0.084659
 108 C :   -0.085196
 109 N :   -0.090667
 110 C :   -0.111759
 111 C :    0.009571
 112 H :    0.276942
 113 H :    0.218584
 114 H :    0.141377
 115 H :    0.220382
 116 C :   -0.005122
 117 C :    0.019129
 118 C :   -0.151621
 119 C :   -0.098321
 120 C :   -0.197234
 121 C :   -0.198956
 122 C :   -0.041032
 123 C :   -0.106191
 124 C :   -0.165738
 125 N :   -0.091921
 126 C :   -0.116689
 127 C :    0.351765
 128 H :    0.247449
 129 H :    0.231111
 130 H :    0.247413
 131 H :    0.254573
 132 H :    0.171906
 133 H :    0.174924
 134 C :   -0.190224
 135 C :   -0.131391
 136 C :   -0.145509
 137 C :   -0.152975
 138 C :   -0.052626
 139 C :   -0.158726
 140 H :    0.239892
 141 H :    0.227570
 142 H :    0.245972
 143 H :    0.212359
 144 C :   -0.039454
 145 C :   -0.054916
 146 C :   -0.127634
 147 N :   -0.090473
 148 C :   -0.136374
 149 C :   -0.075399
 150 H :    0.250830
 151 H :    0.197559
 152 H :    0.186985
 153 H :    0.256848
Sum of atomic charges:    4.0000000

LOEWDIN ATOMIC CHARGES
----------------------
   0 Pd:   -0.080435
   1 Pd:   -0.071707
   2 C :   -0.018548
   3 C :   -0.026331
   4 C :   -0.040724
   5 C :   -0.084885
   6 C :   -0.091710
   7 C :   -0.108770
   8 C :   -0.012814
   9 C :   -0.096682
  10 C :   -0.048257
  11 N :   -0.080669
  12 C :   -0.012933
  13 C :   -0.024879
  14 H :    0.198017
  15 H :    0.198135
  16 H :    0.195934
  17 H :    0.204316
  18 H :    0.188366
  19 H :    0.183971
  20 C :   -0.054990
  21 C :   -0.086835
  22 C :   -0.115363
  23 C :   -0.116871
  24 C :   -0.063985
  25 C :   -0.127026
  26 H :    0.196210
  27 H :    0.193313
  28 H :    0.184087
  29 H :    0.166781
  30 C :    0.009399
  31 C :   -0.120694
  32 C :   -0.018456
  33 N :   -0.086798
  34 C :   -0.036154
  35 C :   -0.143915
  36 H :    0.202997
  37 H :    0.189277
  38 H :    0.178092
  39 H :    0.181631
  40 C :   -0.006888
  41 C :   -0.035238
  42 C :   -0.037402
  43 C :   -0.087823
  44 C :   -0.092958
  45 C :   -0.114739
  46 C :   -0.015427
  47 C :   -0.106017
  48 C :   -0.064642
  49 N :   -0.086776
  50 C :   -0.004230
  51 C :   -0.030520
  52 H :    0.197773
  53 H :    0.197545
  54 H :    0.194206
  55 H :    0.201311
  56 H :    0.187070
  57 H :    0.185673
  58 C :   -0.057519
  59 C :   -0.089550
  60 C :   -0.115456
  61 C :   -0.113759
  62 C :   -0.063744
  63 C :   -0.121281
  64 H :    0.194987
  65 H :    0.193482
  66 H :    0.186376
  67 H :    0.171276
  68 C :    0.010725
  69 C :   -0.136923
  70 C :   -0.034138
  71 N :   -0.087971
  72 C :   -0.022869
  73 C :   -0.120318
  74 H :    0.193881
  75 H :    0.182973
  76 H :    0.191937
  77 H :    0.200942
  78 C :   -0.015515
  79 C :   -0.025394
  80 C :   -0.040378
  81 C :   -0.088291
  82 C :   -0.093981
  83 C :   -0.112746
  84 C :   -0.014815
  85 C :   -0.106056
  86 C :   -0.055714
  87 N :   -0.081975
  88 C :   -0.004684
  89 C :   -0.028561
  90 H :    0.197528
  91 H :    0.197290
  92 H :    0.194460
  93 H :    0.201429
  94 H :    0.184096
  95 H :    0.189000
  96 C :   -0.054442
  97 C :   -0.090126
  98 C :   -0.119438
  99 C :   -0.121407
 100 C :   -0.063859
 101 C :   -0.121315
 102 H :    0.195445
 103 H :    0.191384
 104 H :    0.181051
 105 H :    0.173808
 106 C :    0.011195
 107 C :   -0.127922
 108 C :   -0.026643
 109 N :   -0.090247
 110 C :   -0.031780
 111 C :   -0.144500
 112 H :    0.202068
 113 H :    0.190856
 114 H :    0.181292
 115 H :    0.183635
 116 C :   -0.010590
 117 C :   -0.034174
 118 C :   -0.038471
 119 C :   -0.087791
 120 C :   -0.093816
 121 C :   -0.112791
 122 C :   -0.015256
 123 C :   -0.104759
 124 C :   -0.063293
 125 N :   -0.085686
 126 C :   -0.003167
 127 C :   -0.030714
 128 H :    0.196706
 129 H :    0.197529
 130 H :    0.194580
 131 H :    0.201533
 132 H :    0.186327
 133 H :    0.186087
 134 C :   -0.057584
 135 C :   -0.092348
 136 C :   -0.118285
 137 C :   -0.116530
 138 C :   -0.063202
 139 C :   -0.119945
 140 H :    0.193708
 141 H :    0.192733
 142 H :    0.186817
 143 H :    0.172794
 144 C :    0.010566
 145 C :   -0.123229
 146 C :   -0.019720
 147 N :   -0.094345
 148 C :   -0.031513
 149 C :   -0.135137
 150 H :    0.198713
 151 H :    0.192899
 152 H :    0.186433
 153 H :    0.196106

  Mayer bond orders larger than 0.100000
B(  0-Pd, 33-N ) :   0.5060 B(  0-Pd, 49-N ) :   0.5525 B(  0-Pd, 87-N ) :   0.5215
B(  0-Pd,125-N ) :   0.5430 B(  1-Pd, 11-N ) :   0.5379 B(  1-Pd, 71-N ) :   0.5997
B(  1-Pd,109-N ) :   0.4539 B(  1-Pd,147-N ) :   0.6023 B(  2-C ,  3-C ) :   1.8574
B(  2-C ,  4-C ) :  -0.2920 B(  2-C , 20-C ) :   1.5112 B(  2-C , 25-C ) :  -0.1030
B(  3-C ,  4-C ) :   1.4637 B(  3-C ,  8-C ) :   0.1066 B(  3-C , 13-C ) :  -0.2524
B(  3-C , 20-C ) :  -0.4054 B(  3-C , 25-C ) :   0.1093 B(  4-C ,  5-C ) :   1.5361
B(  4-C , 13-C ) :   1.0210 B(  5-C ,  6-C ) :   1.4142 B(  5-C , 14-H ) :   0.8535
B(  6-C ,  7-C ) :   1.6390 B(  6-C , 15-H ) :   0.8694 B(  7-C ,  8-C ) :   1.3539
B(  7-C , 13-C ) :  -0.1167 B(  7-C , 16-H ) :   0.8546 B(  8-C ,  9-C ) :   1.3120
B(  8-C , 12-C ) :  -0.1406 B(  8-C , 13-C ) :   1.0653 B(  9-C , 10-C ) :   1.5641
B(  9-C , 17-H ) :   0.8757 B( 10-C , 11-N ) :   1.2595 B( 10-C , 18-H ) :   0.9182
B( 11-N , 12-C ) :   1.3873 B( 11-N ,109-N ) :   0.1264 B( 12-C , 13-C ) :   1.4316
B( 12-C , 19-H ) :   0.8809 B( 20-C , 21-C ) :   1.3585 B( 20-C , 25-C ) :   1.4030
B( 21-C , 22-C ) :   1.5470 B( 21-C , 26-H ) :   0.8833 B( 22-C , 23-C ) :   1.5815
B( 22-C , 27-H ) :   0.8693 B( 23-C , 24-C ) :   1.3468 B( 23-C , 28-H ) :   0.8434
B( 24-C , 25-C ) :   1.3104 B( 24-C , 30-C ) :   1.0074 B( 25-C , 29-H ) :   0.8826
B( 30-C , 31-C ) :   1.3714 B( 30-C , 33-N ) :   0.1026 B( 30-C , 35-C ) :   1.3502
B( 31-C , 32-C ) :   1.4944 B( 31-C , 36-H ) :   0.8473 B( 32-C , 33-N ) :   1.3838
B( 32-C , 37-H ) :   0.9096 B( 33-N , 34-C ) :   1.3746 B( 33-N , 87-N ) :   0.1002
B( 34-C , 35-C ) :   1.4355 B( 34-C , 38-H ) :   0.9515 B( 35-C , 39-H ) :   0.8751
B( 40-C , 41-C ) :   1.9395 B( 40-C , 42-C ) :  -0.2408 B( 40-C , 58-C ) :   1.4920
B( 41-C , 42-C ) :   1.3840 B( 41-C , 51-C ) :  -0.2039 B( 41-C , 58-C ) :  -0.3787
B( 42-C , 43-C ) :   1.5355 B( 42-C , 50-C ) :  -0.1009 B( 42-C , 51-C ) :   1.0015
B( 43-C , 44-C ) :   1.4212 B( 43-C , 52-H ) :   0.8620 B( 44-C , 45-C ) :   1.6140
B( 44-C , 53-H ) :   0.8724 B( 45-C , 46-C ) :   1.3617 B( 45-C , 51-C ) :  -0.1252
B( 45-C , 54-H ) :   0.8630 B( 46-C , 47-C ) :   1.2761 B( 46-C , 50-C ) :  -0.1102
B( 46-C , 51-C ) :   1.0505 B( 47-C , 48-C ) :   1.5767 B( 47-C , 55-H ) :   0.8731
B( 48-C , 49-N ) :   1.2145 B( 48-C , 56-H ) :   0.9162 B( 49-N , 50-C ) :   1.4760
B( 50-C , 51-C ) :   1.4145 B( 50-C , 57-H ) :   0.8888 B( 58-C , 59-C ) :   1.3464
B( 58-C , 63-C ) :   1.4550 B( 59-C , 60-C ) :   1.5272 B( 59-C , 64-H ) :   0.8838
B( 60-C , 61-C ) :   1.5578 B( 60-C , 65-H ) :   0.8675 B( 61-C , 62-C ) :   1.3492
B( 61-C , 66-H ) :   0.8533 B( 62-C , 63-C ) :   1.3366 B( 62-C , 68-C ) :   1.0094
B( 63-C , 67-H ) :   0.8728 B( 68-C , 69-C ) :   1.3373 B( 68-C , 71-N ) :   0.1109
B( 68-C , 73-C ) :   1.4142 B( 69-C , 70-C ) :   1.4574 B( 69-C , 74-H ) :   0.8597
B( 70-C , 71-N ) :   1.3643 B( 70-C , 75-H ) :   0.9230 B( 71-N , 72-C ) :   1.4022
B( 72-C , 73-C ) :   1.4321 B( 72-C , 76-H ) :   0.9316 B( 73-C , 77-H ) :   0.8520
B( 78-C , 79-C ) :   1.8559 B( 78-C , 80-C ) :  -0.2994 B( 78-C , 96-C ) :   1.5377
B( 78-C ,101-C ) :  -0.1105 B( 79-C , 80-C ) :   1.4811 B( 79-C , 81-C ) :  -0.1002
B( 79-C , 89-C ) :  -0.2371 B( 79-C , 96-C ) :  -0.4066 B( 80-C , 81-C ) :   1.5421
B( 80-C , 88-C ) :  -0.1151 B( 80-C , 89-C ) :   1.0369 B( 81-C , 82-C ) :   1.4122
B( 81-C , 90-H ) :   0.8505 B( 82-C , 83-C ) :   1.6328 B( 82-C , 91-H ) :   0.8711
B( 83-C , 84-C ) :   1.3673 B( 83-C , 89-C ) :  -0.1274 B( 83-C , 92-H ) :   0.8587
B( 84-C , 85-C ) :   1.2852 B( 84-C , 88-C ) :  -0.1241 B( 84-C , 89-C ) :   1.0555
B( 85-C , 86-C ) :   1.6110 B( 85-C , 93-H ) :   0.8702 B( 86-C , 87-N ) :   1.2649
B( 86-C , 94-H ) :   0.8897 B( 87-N , 88-C ) :   1.4217 B( 88-C , 89-C ) :   1.3773
B( 88-C , 95-H ) :   0.9033 B( 96-C , 97-C ) :   1.3663 B( 96-C ,101-C ) :   1.4284
B( 97-C , 98-C ) :   1.5388 B( 97-C ,102-H ) :   0.8811 B( 98-C , 99-C ) :   1.5701
B( 98-C ,103-H ) :   0.8717 B( 99-C ,100-C ) :   1.3466 B( 99-C ,104-H ) :   0.8542
B(100-C ,101-C ) :   1.3444 B(100-C ,106-C ) :   1.0395 B(101-C ,105-H ) :   0.8653
B(106-C ,107-C ) :   1.3617 B(106-C ,109-N ) :   0.1184 B(106-C ,111-C ) :   1.3365
B(107-C ,108-C ) :   1.5121 B(107-C ,112-H ) :   0.8351 B(108-C ,109-N ) :   1.3941
B(108-C ,113-H ) :   0.8940 B(109-N ,110-C ) :   1.4065 B(110-C ,111-C ) :   1.4498
B(110-C ,114-H ) :   0.9314 B(111-C ,115-H ) :   0.8482 B(116-C ,117-C ) :   1.9156
B(116-C ,118-C ) :  -0.2602 B(116-C ,127-C ) :   0.1140 B(116-C ,134-C ) :   1.5309
B(116-C ,139-C ) :  -0.1067 B(117-C ,118-C ) :   1.4280 B(117-C ,127-C ) :  -0.2329
B(117-C ,134-C ) :  -0.3943 B(118-C ,119-C ) :   1.5388 B(118-C ,126-C ) :  -0.1151
B(118-C ,127-C ) :   0.9869 B(119-C ,120-C ) :   1.4253 B(119-C ,128-H ) :   0.8637
B(120-C ,121-C ) :   1.6161 B(120-C ,129-H ) :   0.8713 B(121-C ,122-C ) :   1.3677
B(121-C ,127-C ) :  -0.1282 B(121-C ,130-H ) :   0.8613 B(122-C ,123-C ) :   1.2644
B(122-C ,126-C ) :  -0.1079 B(122-C ,127-C ) :   1.0304 B(123-C ,124-C ) :   1.5834
B(123-C ,131-H ) :   0.8684 B(124-C ,125-N ) :   1.2055 B(124-C ,132-H ) :   0.9164
B(125-N ,126-C ) :   1.4932 B(126-C ,127-C ) :   1.4006 B(126-C ,133-H ) :   0.8952
B(134-C ,135-C ) :   1.3520 B(134-C ,139-C ) :   1.4480 B(135-C ,136-C ) :   1.5259
B(135-C ,140-H ) :   0.8853 B(136-C ,137-C ) :   1.5477 B(136-C ,141-H ) :   0.8677
B(137-C ,138-C ) :   1.3643 B(137-C ,142-H ) :   0.8518 B(138-C ,139-C ) :   1.3075
B(138-C ,144-C ) :   1.0059 B(139-C ,143-H ) :   0.8702 B(144-C ,145-C ) :   1.3941
B(144-C ,147-N ) :   0.1130 B(144-C ,149-C ) :   1.3009 B(145-C ,146-C ) :   1.3979
B(145-C ,150-H ) :   0.8573 B(146-C ,147-N ) :   1.3907 B(146-C ,151-H ) :   0.9436
B(147-N ,148-C ) :   1.3509 B(148-C ,149-C ) :   1.4133 B(148-C ,152-H ) :   0.9178
B(149-C ,153-H ) :   0.8734

Dispersion correction           -0.601965201
FINAL SINGLE POINT ENERGY     -4078.514424125815

DIPOLE MOMENT
-------------
                                X             Y             Z
Electronic contribution:     79.05772     -60.35200       2.41537
Nuclear contribution   :    -79.06968      60.79118      -2.40106
                        -----------------------------------------
Total Dipole Moment    :     -0.01196       0.43918       0.01431
                        -----------------------------------------
Magnitude (a.u.)       :      0.43958
Magnitude (Debye)      :      1.11732

Rotational constants in cm-1:     0.000667     0.000396     0.000370
Rotational constants in MHz :    20.006217    11.866941    11.090787

                             ****ORCA TERMINATED NORMALLY****
TOTAL RUN TIME: 0 days 0 hours 10 minutes 32 seconds 118 msec
