                         Program Version 4.2.1 -  RELEASE  -
|  1> ! DFT SP RKS PBE0 def2-SVP D3BJ Grid6 NOFINALGRID SlowConv TightSCF printbasis
|  2>
|  3> %base "_s_4d2_a_PBE0"
|  4> %maxcore 3000
|  5> %scf
|  6>    MaxIter 2000
|  7> end
|  8> %pal
|  9>    nprocs 32
| 10> end
| 11>
| 12> * xyzfile 4 1 s_4d2_a.xyz
| 13>
| 14>                          ****END OF INPUT****

CARTESIAN COORDINATES (ANGSTROEM)
---------------------------------
  Pd     0.125800    5.029500   -0.038800
  Pd    -1.973300   -4.492900    1.364700
  C      4.910400    1.238100   -0.763900
  C      4.936500    2.345300   -1.249200
  C      5.082400    3.625400   -1.815400
  C      6.263300    3.948800   -2.459900
  C      6.464300    5.219900   -3.006800
  C      5.498800    6.190300   -2.905700
  C      4.284000    5.907000   -2.256200
  C      3.261900    6.869200   -2.100200
  C      2.109200    6.536300   -1.453200
  N      1.888700    5.290200   -0.963700
  C      2.819000    4.363000   -1.089400
  C      4.052700    4.609100   -1.713600
  H      7.043000    3.206600   -2.538200
  H      7.397000    5.435600   -3.505300
  H      5.659700    7.175100   -3.315400
  H      3.406000    7.864500   -2.488800
  H      1.314100    7.262600   -1.309800
  H      2.592700    3.381700   -0.681600
  C      4.864500   -0.049300   -0.189000
  C      6.051300   -0.738400    0.080800
  C      5.997900   -2.000900    0.642800
  C      4.780200   -2.595200    0.925900
  C      3.588400   -1.914700    0.662700
  C      3.637700   -0.636000    0.112300
  H      7.001200   -0.280300   -0.148300
  H      6.914400   -2.528800    0.858300
  H      4.758800   -3.571200    1.383700
  H      2.730200   -0.106800   -0.130000
  C      2.294500   -2.531200    0.958200
  C      2.076400   -3.898000    0.762000
  C      0.841400   -4.431700    1.027100
  N     -0.169400   -3.676300    1.483900
  C      0.014400   -2.364000    1.677600
  C      1.223200   -1.765700    1.429400
  H      2.860100   -4.531700    0.379400
  H      0.611900   -5.483400    0.891400
  H     -0.846600   -1.825700    2.050300
  H      1.343800   -0.711000    1.614500
  C      2.603900    0.798700    4.645900
  C      2.649300    1.992600    4.445500
  C      2.905900    3.378600    4.524800
  C      3.719400    3.763900    5.581100
  C      4.059400    5.099100    5.802100
  C      3.593400    6.078900    4.963000
  C      2.771200    5.735500    3.876800
  C      2.275000    6.717400    2.991300
  C      1.485700    6.349900    1.945300
  N      1.145500    5.051600    1.710100
  C      1.585200    4.106800    2.520000
  C      2.408000    4.375700    3.633000
  H      4.092400    3.006600    6.253500
  H      4.691000    5.352600    6.639600
  H      3.848200    7.114700    5.123300
  H      2.528800    7.752700    3.154100
  H      1.095000    7.100100    1.253200
  H      1.275000    3.092300    2.297700
  C      2.600800   -0.586300    4.928500
  C      3.741700   -1.148000    5.514500
  C      3.754200   -2.489100    5.848000
  C      2.654500   -3.291000    5.591700
  C      1.511800   -2.746900    5.004300
  C      1.490100   -1.388600    4.683700
  H      4.605000   -0.529800    5.706800
  H      4.629600   -2.916100    6.313300
  H      2.674800   -4.330000    5.879900
  H      0.615700   -0.945100    4.235200
  C      0.361400   -3.577500    4.636300
  C      0.511900   -4.884700    4.163300
  C     -0.541700   -5.496300    3.510300
  N     -1.711300   -4.877000    3.312900
  C     -1.928800   -3.705100    3.932700
  C     -0.933500   -3.041200    4.616500
  H      1.464100   -5.386200    4.224700
  H     -0.453700   -6.491100    3.085200
  H     -2.931600   -3.288800    3.859600
  H     -1.143100   -2.097500    5.094200
  C     -5.144800    1.552200   -1.358400
  C     -5.005400    2.574500   -0.725700
  C     -5.147100    3.750900    0.042700
  C     -6.442100    4.171900    0.294700
  C     -6.705900    5.290400    1.090300
  C     -5.677300    6.006900    1.646200
  C     -4.346200    5.626500    1.400800
  C     -3.252800    6.344600    1.930000
  C     -1.978900    5.976500    1.612400
  N     -1.704900    4.916700    0.805900
  C     -2.703300    4.188300    0.333300
  C     -4.055100    4.490100    0.587400
  H     -7.265200    3.616200   -0.128000
  H     -7.730000    5.581400    1.266800
  H     -5.872400    6.866900    2.267400
  H     -3.435800    7.193100    2.569800
  H     -1.131800    6.522100    2.015700
  H     -2.442200    3.333400   -0.283500
  C     -5.336400    0.284200   -1.955800
  C     -5.798100    0.138800   -3.265200
  C     -6.057100   -1.128500   -3.758700
  C     -5.856200   -2.254100   -2.976500
  C     -5.390200   -2.122300   -1.667800
  C     -5.132200   -0.846400   -1.168800
  H     -5.962500    1.009400   -3.881300
  H     -6.427200   -1.241300   -4.766600
  H     -6.093800   -3.228300   -3.373700
  H     -4.766600   -0.711500   -0.163000
  C     -5.079600   -3.269900   -0.810500
  C     -5.189900   -3.163500    0.585200
  C     -4.548500   -4.085800    1.385100
  N     -3.831500   -5.103300    0.871700
  C     -3.915100   -5.334800   -0.445200
  C     -4.536100   -4.456100   -1.313200
  H     -5.741600   -2.351800    1.032400
  H     -4.620900   -4.052100    2.469400
  H     -3.430300   -6.235500   -0.802000
  H     -4.510400   -4.644600   -2.374100
  C      0.220100    1.693100   -5.040800
  C     -0.229200    2.808600   -5.162500
  C     -0.766100    4.102500   -5.311600
  C     -1.114600    4.584700   -6.558200
  C     -1.678100    5.857400   -6.705500
  C     -1.897100    6.663700   -5.616300
  C     -1.544200    6.218300   -4.329700
  C     -1.720700    7.007500   -3.170700
  C     -1.319400    6.532500   -1.957100
  N     -0.760400    5.302300   -1.811500
  C     -0.601300    4.525900   -2.866100
  C     -0.970300    4.924700   -4.161600
  H     -0.955000    3.968300   -7.429700
  H     -1.943000    6.201600   -7.693600
  H     -2.333800    7.643000   -5.733600
  H     -2.160900    7.987800   -3.259200
  H     -1.435900    7.121700   -1.049100
  H     -0.156400    3.550100   -2.693700
  C      0.673300    0.389700   -4.737800
  C      1.869000   -0.121000   -5.245200
  C      2.287300   -1.381100   -4.853900
  C      1.542800   -2.130400   -3.959500
  C      0.339600   -1.631800   -3.447500
  C     -0.093200   -0.372300   -3.858800
  H      2.459300    0.467100   -5.930700
  H      3.211500   -1.779300   -5.243600
  H      1.918800   -3.087900   -3.638400
  H     -1.043500    0.022000   -3.536000
  C     -0.432300   -2.377400   -2.452100
  C     -0.387100   -3.772600   -2.363000
  C     -1.054400   -4.413300   -1.346600
  N     -1.782900   -3.740100   -0.447300
  C     -1.887400   -2.407700   -0.542600
  C     -1.223700   -1.701800   -1.511800
  H      0.164500   -4.356900   -3.081200
  H     -1.038200   -5.489600   -1.219600
  H     -2.523500   -1.935000    0.198800
  H     -1.295600   -0.626600   -1.514300

 Total Charge           Charge          ....    4
 Multiplicity           Mult            ....    1
 Number of Electrons    NEL             ....  672
 Basis Dimension        Dim             .... 1686

ORBITAL ENERGIES
----------------

  NO   OCC          E(Eh)            E(eV)
   0   2.0000     -14.776380      -402.0857
   1   2.0000     -14.774840      -402.0438
   2   2.0000     -14.758084      -401.5879
   3   2.0000     -14.757006      -401.5585
   4   2.0000     -14.756967      -401.5575
   5   2.0000     -14.755480      -401.5170
   6   2.0000     -14.745749      -401.2522
   7   2.0000     -14.736988      -401.0138
   8   2.0000     -10.614939      -288.8472
   9   2.0000     -10.613370      -288.8045
  10   2.0000     -10.611768      -288.7609
  11   2.0000     -10.610686      -288.7314
  12   2.0000     -10.597790      -288.3805
  13   2.0000     -10.597644      -288.3766
  14   2.0000     -10.596741      -288.3520
  15   2.0000     -10.595809      -288.3266
  16   2.0000     -10.594799      -288.2991
  17   2.0000     -10.594725      -288.2971
  18   2.0000     -10.594014      -288.2778
  19   2.0000     -10.592037      -288.2240
  20   2.0000     -10.591216      -288.2016
  21   2.0000     -10.589165      -288.1458
  22   2.0000     -10.580207      -287.9021
  23   2.0000     -10.579658      -287.8871
  24   2.0000     -10.579322      -287.8780
  25   2.0000     -10.577984      -287.8416
  26   2.0000     -10.577571      -287.8304
  27   2.0000     -10.577224      -287.8209
  28   2.0000     -10.573050      -287.7073
  29   2.0000     -10.571642      -287.6690
  30   2.0000     -10.569029      -287.5979
  31   2.0000     -10.568203      -287.5754
  32   2.0000     -10.557887      -287.2947
  33   2.0000     -10.557461      -287.2831
  34   2.0000     -10.557340      -287.2798
  35   2.0000     -10.557011      -287.2709
  36   2.0000     -10.556911      -287.2682
  37   2.0000     -10.556211      -287.2491
  38   2.0000     -10.555891      -287.2404
  39   2.0000     -10.555386      -287.2266
  40   2.0000     -10.554629      -287.2061
  41   2.0000     -10.554278      -287.1965
  42   2.0000     -10.553523      -287.1760
  43   2.0000     -10.553250      -287.1685
  44   2.0000     -10.552804      -287.1564
  45   2.0000     -10.552563      -287.1498
  46   2.0000     -10.551911      -287.1321
  47   2.0000     -10.551358      -287.1170
  48   2.0000     -10.550169      -287.0847
  49   2.0000     -10.549432      -287.0646
  50   2.0000     -10.548293      -287.0337
  51   2.0000     -10.547415      -287.0098
  52   2.0000     -10.547056      -287.0000
  53   2.0000     -10.546597      -286.9875
  54   2.0000     -10.546177      -286.9761
  55   2.0000     -10.544941      -286.9424
  56   2.0000     -10.544234      -286.9232
  57   2.0000     -10.543874      -286.9134
  58   2.0000     -10.542845      -286.8854
  59   2.0000     -10.542126      -286.8658
  60   2.0000     -10.539530      -286.7952
  61   2.0000     -10.538934      -286.7790
  62   2.0000     -10.537304      -286.7346
  63   2.0000     -10.536048      -286.7004
  64   2.0000     -10.534462      -286.6573
  65   2.0000     -10.530605      -286.5523
  66   2.0000     -10.529257      -286.5157
  67   2.0000     -10.529032      -286.5095
  68   2.0000     -10.528527      -286.4958
  69   2.0000     -10.527992      -286.4812
  70   2.0000     -10.527460      -286.4667
  71   2.0000     -10.525976      -286.4264
  72   2.0000     -10.525755      -286.4204
  73   2.0000     -10.525672      -286.4181
  74   2.0000     -10.525297      -286.4079
  75   2.0000     -10.524974      -286.3991
  76   2.0000     -10.524794      -286.3942
  77   2.0000     -10.524562      -286.3879
  78   2.0000     -10.524420      -286.3840
  79   2.0000     -10.524414      -286.3839
  80   2.0000     -10.523933      -286.3708
  81   2.0000     -10.523751      -286.3658
  82   2.0000     -10.523682      -286.3639
  83   2.0000     -10.523109      -286.3483
  84   2.0000     -10.523023      -286.3460
  85   2.0000     -10.522805      -286.3401
  86   2.0000     -10.522793      -286.3398
  87   2.0000     -10.522510      -286.3321
  88   2.0000     -10.522143      -286.3221
  89   2.0000     -10.521926      -286.3162
  90   2.0000     -10.521882      -286.3150
  91   2.0000     -10.520890      -286.2880
  92   2.0000     -10.520199      -286.2692
  93   2.0000     -10.519062      -286.2382
  94   2.0000     -10.516405      -286.1659
  95   2.0000     -10.515860      -286.1511
  96   2.0000      -3.872975      -105.3890
  97   2.0000      -3.857241      -104.9609
  98   2.0000      -2.552846       -69.4665
  99   2.0000      -2.549085       -69.3641
 100   2.0000      -2.534923       -68.9788
 101   2.0000      -2.533676       -68.9448
 102   2.0000      -2.514156       -68.4137
 103   2.0000      -2.497567       -67.9623
 104   2.0000      -1.337803       -36.4035
 105   2.0000      -1.322429       -35.9851
 106   2.0000      -1.309285       -35.6275
 107   2.0000      -1.307302       -35.5735
 108   2.0000      -1.302214       -35.4350
 109   2.0000      -1.301827       -35.4245
 110   2.0000      -1.300014       -35.3752
 111   2.0000      -1.299210       -35.3533
 112   2.0000      -1.197589       -32.5881
 113   2.0000      -1.195604       -32.5340
 114   2.0000      -1.189661       -32.3723
 115   2.0000      -1.189066       -32.3561
 116   2.0000      -1.187243       -32.3065
 117   2.0000      -1.186378       -32.2830
 118   2.0000      -1.185711       -32.2648
 119   2.0000      -1.185163       -32.2499
 120   2.0000      -1.161170       -31.5970
 121   2.0000      -1.158715       -31.5302
 122   2.0000      -1.150234       -31.2995
 123   2.0000      -1.147783       -31.2328
 124   2.0000      -1.131254       -30.7830
 125   2.0000      -1.124321       -30.5943
 126   2.0000      -1.123305       -30.5667
 127   2.0000      -1.123027       -30.5591
 128   2.0000      -1.122705       -30.5504
 129   2.0000      -1.122277       -30.5387
 130   2.0000      -1.106301       -30.1040
 131   2.0000      -1.102202       -29.9925
 132   2.0000      -1.095321       -29.8052
 133   2.0000      -1.093425       -29.7536
 134   2.0000      -1.092576       -29.7305
 135   2.0000      -1.091497       -29.7012
 136   2.0000      -1.091029       -29.6884
 137   2.0000      -1.089901       -29.6577
 138   2.0000      -1.089157       -29.6375
 139   2.0000      -1.088636       -29.6233
 140   2.0000      -1.072384       -29.1811
 141   2.0000      -1.070962       -29.1424
 142   2.0000      -1.070210       -29.1219
 143   2.0000      -1.069641       -29.1064
 144   2.0000      -1.067180       -29.0394
 145   2.0000      -1.064762       -28.9737
 146   2.0000      -1.059420       -28.8283
 147   2.0000      -1.058564       -28.8050
 148   2.0000      -1.024450       -27.8767
 149   2.0000      -1.023077       -27.8393
 150   2.0000      -1.022101       -27.8128
 151   2.0000      -1.021854       -27.8061
 152   2.0000      -1.001144       -27.2425
 153   2.0000      -0.993774       -27.0420
 154   2.0000      -0.984097       -26.7786
 155   2.0000      -0.980472       -26.6800
 156   2.0000      -0.979510       -26.6538
 157   2.0000      -0.979036       -26.6409
 158   2.0000      -0.976877       -26.5822
 159   2.0000      -0.975606       -26.5476
 160   2.0000      -0.975001       -26.5311
 161   2.0000      -0.974021       -26.5045
 162   2.0000      -0.969010       -26.3681
 163   2.0000      -0.966262       -26.2933
 164   2.0000      -0.956855       -26.0374
 165   2.0000      -0.955004       -25.9870
 166   2.0000      -0.954455       -25.9720
 167   2.0000      -0.954177       -25.9645
 168   2.0000      -0.941672       -25.6242
 169   2.0000      -0.939981       -25.5782
 170   2.0000      -0.938011       -25.5246
 171   2.0000      -0.937148       -25.5011
 172   2.0000      -0.921341       -25.0710
 173   2.0000      -0.919415       -25.0186
 174   2.0000      -0.918059       -24.9816
 175   2.0000      -0.916520       -24.9398
 176   2.0000      -0.915879       -24.9223
 177   2.0000      -0.915079       -24.9006
 178   2.0000      -0.907710       -24.7001
 179   2.0000      -0.905720       -24.6459
 180   2.0000      -0.891390       -24.2559
 181   2.0000      -0.884427       -24.0665
 182   2.0000      -0.873019       -23.7560
 183   2.0000      -0.870129       -23.6774
 184   2.0000      -0.868251       -23.6263
 185   2.0000      -0.862009       -23.4565
 186   2.0000      -0.858249       -23.3541
 187   2.0000      -0.856861       -23.3164
 188   2.0000      -0.849697       -23.1214
 189   2.0000      -0.847834       -23.0707
 190   2.0000      -0.845982       -23.0203
 191   2.0000      -0.845707       -23.0128
 192   2.0000      -0.844350       -22.9759
 193   2.0000      -0.844114       -22.9695
 194   2.0000      -0.838972       -22.8296
 195   2.0000      -0.835900       -22.7460
 196   2.0000      -0.833408       -22.6782
 197   2.0000      -0.831682       -22.6312
 198   2.0000      -0.831274       -22.6201
 199   2.0000      -0.827996       -22.5309
 200   2.0000      -0.825736       -22.4694
 201   2.0000      -0.821663       -22.3586
 202   2.0000      -0.821055       -22.3420
 203   2.0000      -0.819231       -22.2924
 204   2.0000      -0.817939       -22.2573
 205   2.0000      -0.815808       -22.1993
 206   2.0000      -0.810685       -22.0598
 207   2.0000      -0.801232       -21.8026
 208   2.0000      -0.797747       -21.7078
 209   2.0000      -0.795595       -21.6492
 210   2.0000      -0.792651       -21.5691
 211   2.0000      -0.791486       -21.5374
 212   2.0000      -0.791105       -21.5271
 213   2.0000      -0.790280       -21.5046
 214   2.0000      -0.785833       -21.3836
 215   2.0000      -0.784096       -21.3363
 216   2.0000      -0.783089       -21.3089
 217   2.0000      -0.782065       -21.2811
 218   2.0000      -0.779366       -21.2076
 219   2.0000      -0.778471       -21.1833
 220   2.0000      -0.774377       -21.0719
 221   2.0000      -0.773362       -21.0443
 222   2.0000      -0.772465       -21.0198
 223   2.0000      -0.771253       -20.9869
 224   2.0000      -0.770905       -20.9774
 225   2.0000      -0.770081       -20.9550
 226   2.0000      -0.769543       -20.9403
 227   2.0000      -0.768730       -20.9182
 228   2.0000      -0.768510       -20.9122
 229   2.0000      -0.766354       -20.8535
 230   2.0000      -0.763290       -20.7702
 231   2.0000      -0.762309       -20.7435
 232   2.0000      -0.761672       -20.7261
 233   2.0000      -0.760104       -20.6835
 234   2.0000      -0.757659       -20.6169
 235   2.0000      -0.756353       -20.5814
 236   2.0000      -0.755310       -20.5530
 237   2.0000      -0.749426       -20.3929
 238   2.0000      -0.746453       -20.3120
 239   2.0000      -0.744702       -20.2644
 240   2.0000      -0.742773       -20.2119
 241   2.0000      -0.742538       -20.2055
 242   2.0000      -0.742213       -20.1966
 243   2.0000      -0.741678       -20.1821
 244   2.0000      -0.739578       -20.1249
 245   2.0000      -0.738021       -20.0826
 246   2.0000      -0.737297       -20.0629
 247   2.0000      -0.734452       -19.9855
 248   2.0000      -0.731776       -19.9126
 249   2.0000      -0.729641       -19.8545
 250   2.0000      -0.726244       -19.7621
 251   2.0000      -0.724944       -19.7267
 252   2.0000      -0.723758       -19.6945
 253   2.0000      -0.719203       -19.5705
 254   2.0000      -0.713820       -19.4240
 255   2.0000      -0.711267       -19.3546
 256   2.0000      -0.707569       -19.2539
 257   2.0000      -0.706419       -19.2226
 258   2.0000      -0.706099       -19.2139
 259   2.0000      -0.703734       -19.1496
 260   2.0000      -0.701225       -19.0813
 261   2.0000      -0.699791       -19.0423
 262   2.0000      -0.699452       -19.0330
 263   2.0000      -0.699115       -19.0239
 264   2.0000      -0.697096       -18.9690
 265   2.0000      -0.694850       -18.9078
 266   2.0000      -0.693680       -18.8760
 267   2.0000      -0.691682       -18.8216
 268   2.0000      -0.688257       -18.7284
 269   2.0000      -0.687632       -18.7114
 270   2.0000      -0.685014       -18.6402
 271   2.0000      -0.677622       -18.4390
 272   2.0000      -0.675050       -18.3690
 273   2.0000      -0.674063       -18.3422
 274   2.0000      -0.672917       -18.3110
 275   2.0000      -0.666432       -18.1345
 276   2.0000      -0.663336       -18.0503
 277   2.0000      -0.661757       -18.0073
 278   2.0000      -0.660103       -17.9623
 279   2.0000      -0.659602       -17.9487
 280   2.0000      -0.658115       -17.9082
 281   2.0000      -0.657201       -17.8833
 282   2.0000      -0.656057       -17.8522
 283   2.0000      -0.654931       -17.8216
 284   2.0000      -0.654643       -17.8137
 285   2.0000      -0.653688       -17.7878
 286   2.0000      -0.653318       -17.7777
 287   2.0000      -0.652551       -17.7568
 288   2.0000      -0.652202       -17.7473
 289   2.0000      -0.652101       -17.7446
 290   2.0000      -0.648809       -17.6550
 291   2.0000      -0.646339       -17.5878
 292   2.0000      -0.643509       -17.5108
 293   2.0000      -0.641509       -17.4563
 294   2.0000      -0.641225       -17.4486
 295   2.0000      -0.639034       -17.3890
 296   2.0000      -0.635741       -17.2994
 297   2.0000      -0.634863       -17.2755
 298   2.0000      -0.630955       -17.1691
 299   2.0000      -0.630157       -17.1475
 300   2.0000      -0.629835       -17.1387
 301   2.0000      -0.627930       -17.0868
 302   2.0000      -0.622951       -16.9514
 303   2.0000      -0.621371       -16.9084
 304   2.0000      -0.618847       -16.8397
 305   2.0000      -0.614677       -16.7262
 306   2.0000      -0.613332       -16.6896
 307   2.0000      -0.604185       -16.4407
 308   2.0000      -0.604110       -16.4387
 309   2.0000      -0.599597       -16.3159
 310   2.0000      -0.598199       -16.2778
 311   2.0000      -0.596277       -16.2255
 312   2.0000      -0.589049       -16.0288
 313   2.0000      -0.586024       -15.9465
 314   2.0000      -0.584632       -15.9087
 315   2.0000      -0.582305       -15.8453
 316   2.0000      -0.579974       -15.7819
 317   2.0000      -0.579547       -15.7703
 318   2.0000      -0.577005       -15.7011
 319   2.0000      -0.575620       -15.6634
 320   2.0000      -0.574302       -15.6276
 321   2.0000      -0.573622       -15.6090
 322   2.0000      -0.572282       -15.5726
 323   2.0000      -0.569415       -15.4946
 324   2.0000      -0.558515       -15.1980
 325   2.0000      -0.556564       -15.1449
 326   2.0000      -0.554328       -15.0840
 327   2.0000      -0.550886       -14.9904
 328   2.0000      -0.550402       -14.9772
 329   2.0000      -0.546117       -14.8606
 330   2.0000      -0.541170       -14.7260
 331   2.0000      -0.534528       -14.5452
 332   2.0000      -0.519007       -14.1229
 333   2.0000      -0.517298       -14.0764
 334   2.0000      -0.510193       -13.8831
 335   2.0000      -0.509274       -13.8580
 336   0.0000      -0.406003       -11.0479
 337   0.0000      -0.389017       -10.5857
 338   0.0000      -0.371648       -10.1130
 339   0.0000      -0.370209       -10.0739
 340   0.0000      -0.366301        -9.9675

MULLIKEN ATOMIC CHARGES
-----------------------
   0 Pd:    0.384380
   1 Pd:    0.241985
   2 C :    0.016724
   3 C :   -0.067575
   4 C :   -0.011794
   5 C :    0.025316
   6 C :    0.032861
   7 C :    0.021261
   8 C :    0.027815
   9 C :   -0.001658
  10 C :    0.114136
  11 N :   -0.312193
  12 C :    0.158619
  13 C :   -0.003231
  14 H :    0.056001
  15 H :    0.080284
  16 H :    0.056752
  17 H :    0.062373
  18 H :    0.079822
  19 H :    0.050372
  20 C :   -0.054117
  21 C :    0.049306
  22 C :    0.008908
  23 C :   -0.010631
  24 C :    0.032354
  25 C :   -0.010445
  26 H :    0.057244
  27 H :    0.069483
  28 H :    0.037603
  29 H :   -0.003539
  30 C :    0.061612
  31 C :   -0.023410
  32 C :    0.155732
  33 N :   -0.345063
  34 C :    0.166004
  35 C :   -0.021964
  36 H :    0.064874
  37 H :    0.100397
  38 H :    0.075933
  39 H :    0.036356
  40 C :    0.043711
  41 C :   -0.100911
  42 C :   -0.012614
  43 C :    0.018681
  44 C :    0.035840
  45 C :    0.020256
  46 C :    0.022137
  47 C :    0.002186
  48 C :    0.108311
  49 N :   -0.315810
  50 C :    0.158956
  51 C :    0.008087
  52 H :    0.053788
  53 H :    0.079457
  54 H :    0.057385
  55 H :    0.062667
  56 H :    0.080423
  57 H :    0.042373
  58 C :   -0.066258
  59 C :    0.045786
  60 C :    0.007207
  61 C :   -0.008251
  62 C :    0.031043
  63 C :    0.004070
  64 H :    0.049807
  65 H :    0.069810
  66 H :    0.051677
  67 H :   -0.009311
  68 C :    0.040323
  69 C :    0.013976
  70 C :    0.116371
  71 N :   -0.280845
  72 C :    0.123058
  73 C :   -0.030732
  74 H :    0.063801
  75 H :    0.105787
  76 H :    0.083719
  77 H :    0.066717
  78 C :    0.031109
  79 C :   -0.085371
  80 C :   -0.023439
  81 C :    0.023960
  82 C :    0.032402
  83 C :    0.021331
  84 C :    0.024643
  85 C :   -0.000426
  86 C :    0.109226
  87 N :   -0.309287
  88 C :    0.159818
  89 C :    0.002740
  90 H :    0.057696
  91 H :    0.080391
  92 H :    0.057549
  93 H :    0.063018
  94 H :    0.078179
  95 H :    0.051058
  96 C :   -0.072201
  97 C :    0.049178
  98 C :    0.006558
  99 C :   -0.002812
 100 C :    0.049059
 101 C :   -0.036483
 102 H :    0.049278
 103 H :    0.069811
 104 H :    0.052528
 105 H :    0.003931
 106 C :    0.015020
 107 C :   -0.010572
 108 C :    0.121054
 109 N :   -0.282129
 110 C :    0.139075
 111 C :    0.013044
 112 H :    0.072497
 113 H :    0.107421
 114 H :    0.096368
 115 H :    0.063647
 116 C :   -0.010761
 117 C :   -0.028345
 118 C :   -0.019684
 119 C :    0.033201
 120 C :    0.031747
 121 C :    0.021229
 122 C :    0.028615
 123 C :    0.004786
 124 C :    0.097339
 125 N :   -0.321767
 126 C :    0.155988
 127 C :   -0.008174
 128 H :    0.060715
 129 H :    0.081642
 130 H :    0.057092
 131 H :    0.062822
 132 H :    0.096261
 133 H :    0.057444
 134 C :   -0.063884
 135 C :    0.057554
 136 C :    0.008117
 137 C :   -0.012976
 138 C :    0.042232
 139 C :   -0.030546
 140 H :    0.055822
 141 H :    0.065333
 142 H :    0.030737
 143 H :    0.021179
 144 C :    0.081810
 145 C :   -0.026754
 146 C :    0.134739
 147 N :   -0.344042
 148 C :    0.153074
 149 C :   -0.028537
 150 H :    0.071554
 151 H :    0.094128
 152 H :    0.076669
 153 H :    0.033209
Sum of atomic charges:    4.0000000

LOEWDIN ATOMIC CHARGES
----------------------
   0 Pd:   -0.346647
   1 Pd:   -0.358401
   2 C :   -0.010185
   3 C :   -0.028575
   4 C :   -0.028982
   5 C :    0.037983
   6 C :    0.034585
   7 C :    0.013325
   8 C :    0.009619
   9 C :    0.017529
  10 C :    0.037702
  11 N :    0.061032
  12 C :    0.092163
  13 C :   -0.020824
  14 H :    0.058482
  15 H :    0.063326
  16 H :    0.056243
  17 H :    0.062880
  18 H :    0.053023
  19 H :    0.049747
  20 C :   -0.042106
  21 C :    0.038445
  22 C :    0.008448
  23 C :    0.005148
  24 C :   -0.042818
  25 C :    0.002531
  26 H :    0.056834
  27 H :    0.058129
  28 H :    0.043123
  29 H :    0.030022
  30 C :    0.048465
  31 C :   -0.006424
  32 C :    0.077111
  33 N :    0.063860
  34 C :    0.068521
  35 C :   -0.015000
  36 H :    0.060767
  37 H :    0.061671
  38 H :    0.047826
  39 H :    0.047295
  40 C :   -0.007403
  41 C :   -0.041622
  42 C :   -0.026593
  43 C :    0.040589
  44 C :    0.034153
  45 C :    0.014813
  46 C :    0.009663
  47 C :    0.018944
  48 C :    0.031061
  49 N :    0.055076
  50 C :    0.092651
  51 C :   -0.023542
  52 H :    0.057178
  53 H :    0.063564
  54 H :    0.056371
  55 H :    0.063096
  56 H :    0.058230
  57 H :    0.046096
  58 C :   -0.047687
  59 C :    0.035296
  60 C :    0.007925
  61 C :    0.012709
  62 C :   -0.038460
  63 C :    0.001945
  64 H :    0.053618
  65 H :    0.058388
  66 H :    0.049001
  67 H :    0.026557
  68 C :    0.047827
  69 C :   -0.002956
  70 C :    0.090191
  71 N :    0.039927
  72 C :    0.076905
  73 C :   -0.011463
  74 H :    0.057339
  75 H :    0.065571
  76 H :    0.055882
  77 H :    0.057420
  78 C :   -0.008441
  79 C :   -0.042888
  80 C :   -0.029794
  81 C :    0.038785
  82 C :    0.034238
  83 C :    0.013453
  84 C :    0.009096
  85 C :    0.014906
  86 C :    0.037173
  87 N :    0.053737
  88 C :    0.091428
  89 C :   -0.024662
  90 H :    0.059099
  91 H :    0.063463
  92 H :    0.056468
  93 H :    0.062778
  94 H :    0.053130
  95 H :    0.047311
  96 C :   -0.051267
  97 C :    0.030048
  98 C :    0.009449
  99 C :    0.014372
 100 C :   -0.037711
 101 C :    0.000736
 102 H :    0.053583
 103 H :    0.058091
 104 H :    0.049622
 105 H :    0.029732
 106 C :    0.048156
 107 C :   -0.015186
 108 C :    0.085935
 109 N :    0.028501
 110 C :    0.095327
 111 C :   -0.004805
 112 H :    0.059002
 113 H :    0.062937
 114 H :    0.059884
 115 H :    0.057422
 116 C :   -0.010943
 117 C :   -0.024852
 118 C :   -0.029418
 119 C :    0.039268
 120 C :    0.036319
 121 C :    0.012777
 122 C :    0.009222
 123 C :    0.016927
 124 C :    0.035490
 125 N :    0.058270
 126 C :    0.092369
 127 C :   -0.020287
 128 H :    0.060726
 129 H :    0.063765
 130 H :    0.056353
 131 H :    0.063099
 132 H :    0.057492
 133 H :    0.051619
 134 C :   -0.042470
 135 C :    0.037668
 136 C :    0.006877
 137 C :    0.005019
 138 C :   -0.044107
 139 C :    0.007538
 140 H :    0.056545
 141 H :    0.056366
 142 H :    0.040314
 143 H :    0.037674
 144 C :    0.047219
 145 C :   -0.001719
 146 C :    0.075932
 147 N :    0.062638
 148 C :    0.070678
 149 C :   -0.012262
 150 H :    0.061827
 151 H :    0.060854
 152 H :    0.051113
 153 H :    0.046865

  Mayer bond orders larger than 0.100000
B(  0-Pd, 11-N ) :   0.5500 B(  0-Pd, 49-N ) :   0.5309 B(  0-Pd, 87-N ) :   0.5559
B(  0-Pd,125-N ) :   0.5523 B(  1-Pd, 33-N ) :   0.5635 B(  1-Pd, 71-N ) :   0.5901
B(  1-Pd,109-N ) :   0.6058 B(  1-Pd,147-N ) :   0.5630 B(  2-C ,  3-C ) :   2.6011
B(  2-C , 20-C ) :   0.9952 B(  3-C ,  4-C ) :   1.0021 B(  4-C ,  5-C ) :   1.4551
B(  4-C , 13-C ) :   1.2087 B(  5-C ,  6-C ) :   1.2666 B(  5-C , 14-H ) :   0.9928
B(  6-C ,  7-C ) :   1.4530 B(  6-C , 15-H ) :   0.9809 B(  7-C ,  8-C ) :   1.2675
B(  7-C , 16-H ) :   0.9953 B(  8-C ,  9-C ) :   1.2487 B(  8-C , 13-C ) :   1.2164
B(  9-C , 10-C ) :   1.5573 B(  9-C , 17-H ) :   0.9744 B( 10-C , 11-N ) :   1.1939
B( 10-C , 18-H ) :   0.9392 B( 11-N , 12-C ) :   1.4144 B( 12-C , 13-C ) :   1.3274
B( 12-C , 19-H ) :   0.9407 B( 20-C , 21-C ) :   1.3278 B( 20-C , 25-C ) :   1.3526
B( 21-C , 22-C ) :   1.3854 B( 21-C , 26-H ) :   0.9954 B( 22-C , 23-C ) :   1.3921
B( 22-C , 27-H ) :   0.9828 B( 23-C , 24-C ) :   1.3486 B( 23-C , 28-H ) :   0.9905
B( 24-C , 25-C ) :   1.3460 B( 24-C , 30-C ) :   1.0294 B( 25-C , 29-H ) :   0.9885
B( 30-C , 31-C ) :   1.3397 B( 30-C , 35-C ) :   1.3513 B( 31-C , 32-C ) :   1.4616
B( 31-C , 36-H ) :   0.9798 B( 32-C , 33-N ) :   1.2766 B( 32-C , 37-H ) :   0.9402
B( 33-N , 34-C ) :   1.3137 B( 34-C , 35-C ) :   1.4493 B( 34-C , 38-H ) :   0.9387
B( 35-C , 39-H ) :   0.9762 B( 40-C , 41-C ) :   2.5999 B( 40-C , 58-C ) :   0.9987
B( 41-C , 42-C ) :   1.0338 B( 42-C , 43-C ) :   1.4614 B( 42-C , 51-C ) :   1.1993
B( 43-C , 44-C ) :   1.2775 B( 43-C , 52-H ) :   0.9913 B( 44-C , 45-C ) :   1.4423
B( 44-C , 53-H ) :   0.9827 B( 45-C , 46-C ) :   1.2742 B( 45-C , 54-H ) :   0.9958
B( 46-C , 47-C ) :   1.2486 B( 46-C , 51-C ) :   1.2118 B( 47-C , 48-C ) :   1.5698
B( 47-C , 55-H ) :   0.9728 B( 48-C , 49-N ) :   1.1663 B( 48-C , 56-H ) :   0.9306
B( 49-N , 50-C ) :   1.4502 B( 50-C , 51-C ) :   1.3094 B( 50-C , 57-H ) :   0.9530
B( 58-C , 59-C ) :   1.3291 B( 58-C , 63-C ) :   1.3620 B( 59-C , 60-C ) :   1.3865
B( 59-C , 64-H ) :   0.9952 B( 60-C , 61-C ) :   1.3831 B( 60-C , 65-H ) :   0.9819
B( 61-C , 62-C ) :   1.3574 B( 61-C , 66-H ) :   0.9919 B( 62-C , 63-C ) :   1.3412
B( 62-C , 68-C ) :   1.0269 B( 63-C , 67-H ) :   0.9801 B( 68-C , 69-C ) :   1.3632
B( 68-C , 73-C ) :   1.3155 B( 69-C , 70-C ) :   1.4284 B( 69-C , 74-H ) :   0.9730
B( 70-C , 71-N ) :   1.2929 B( 70-C , 75-H ) :   0.9603 B( 71-N , 72-C ) :   1.2568
B( 72-C , 73-C ) :   1.4491 B( 72-C , 76-H ) :   0.9481 B( 73-C , 77-H ) :   0.9818
B( 78-C , 79-C ) :   2.6065 B( 78-C , 96-C ) :   0.9874 B( 79-C , 80-C ) :   1.0124
B( 80-C , 81-C ) :   1.4729 B( 80-C , 89-C ) :   1.2035 B( 81-C , 82-C ) :   1.2649
B( 81-C , 90-H ) :   0.9928 B( 82-C , 83-C ) :   1.4513 B( 82-C , 91-H ) :   0.9820
B( 83-C , 84-C ) :   1.2694 B( 83-C , 92-H ) :   0.9957 B( 84-C , 85-C ) :   1.2511
B( 84-C , 89-C ) :   1.2108 B( 85-C , 86-C ) :   1.5567 B( 85-C , 93-H ) :   0.9731
B( 86-C , 87-N ) :   1.1857 B( 86-C , 94-H ) :   0.9387 B( 87-N , 88-C ) :   1.4203
B( 88-C , 89-C ) :   1.3218 B( 88-C , 95-H ) :   0.9451 B( 96-C , 97-C ) :   1.3299
B( 96-C ,101-C ) :   1.3707 B( 97-C , 98-C ) :   1.3774 B( 97-C ,102-H ) :   0.9967
B( 98-C , 99-C ) :   1.3925 B( 98-C ,103-H ) :   0.9812 B( 99-C ,100-C ) :   1.3556
B( 99-C ,104-H ) :   0.9916 B(100-C ,101-C ) :   1.3407 B(100-C ,106-C ) :   1.0235
B(101-C ,105-H ) :   0.9828 B(106-C ,107-C ) :   1.3202 B(106-C ,111-C ) :   1.3588
B(107-C ,108-C ) :   1.4356 B(107-C ,112-H ) :   0.9799 B(108-C ,109-N ) :   1.2181
B(108-C ,113-H ) :   0.9526 B(109-N ,110-C ) :   1.2917 B(110-C ,111-C ) :   1.4354
B(110-C ,114-H ) :   0.9614 B(111-C ,115-H ) :   0.9727 B(116-C ,117-C ) :   2.6030
B(116-C ,134-C ) :   0.9949 B(117-C ,118-C ) :   0.9916 B(118-C ,119-C ) :   1.4596
B(118-C ,127-C ) :   1.2180 B(119-C ,120-C ) :   1.2594 B(119-C ,128-H ) :   0.9932
B(120-C ,121-C ) :   1.4565 B(120-C ,129-H ) :   0.9803 B(121-C ,122-C ) :   1.2668
B(121-C ,130-H ) :   0.9954 B(122-C ,123-C ) :   1.2456 B(122-C ,127-C ) :   1.2191
B(123-C ,124-C ) :   1.5559 B(123-C ,131-H ) :   0.9743 B(124-C ,125-N ) :   1.1855
B(124-C ,132-H ) :   0.9355 B(125-N ,126-C ) :   1.4146 B(126-C ,127-C ) :   1.3210
B(126-C ,133-H ) :   0.9424 B(134-C ,135-C ) :   1.3298 B(134-C ,139-C ) :   1.3615
B(135-C ,136-C ) :   1.3762 B(135-C ,140-H ) :   0.9960 B(136-C ,137-C ) :   1.4039
B(136-C ,141-H ) :   0.9816 B(137-C ,138-C ) :   1.3432 B(137-C ,142-H ) :   0.9876
B(138-C ,139-C ) :   1.3374 B(138-C ,144-C ) :   1.0423 B(139-C ,143-H ) :   0.9876
B(144-C ,145-C ) :   1.3372 B(144-C ,149-C ) :   1.3312 B(145-C ,146-C ) :   1.4570
B(145-C ,150-H ) :   0.9779 B(146-C ,147-N ) :   1.2898 B(146-C ,151-H ) :   0.9497
B(147-N ,148-C ) :   1.2918 B(148-C ,149-C ) :   1.4657 B(148-C ,152-H ) :   0.9436
B(149-C ,153-H ) :   0.9738

Dispersion correction           -0.271427681
FINAL SINGLE POINT ENERGY     -4072.697618555034

DIPOLE MOMENT
-------------
                                X             Y             Z
Electronic contribution:   -116.13096     -91.44908      81.83142
Nuclear contribution   :    116.90078      92.64346     -82.19128
                        -----------------------------------------
Total Dipole Moment    :      0.76982       1.19438      -0.35987
                        -----------------------------------------
Magnitude (a.u.)       :      1.46583
Magnitude (Debye)      :      3.72585

Rotational constants in cm-1:     0.000643     0.000474     0.000397
Rotational constants in MHz :    19.290435    14.219693    11.899369

                             ****ORCA TERMINATED NORMALLY****
TOTAL RUN TIME: 0 days 0 hours 17 minutes 19 seconds 758 msec
