                         Program Version 4.2.1 -  RELEASE  -
|  1> ! DFT SP RKS PBE0 def2-SVP D3BJ Grid6 NOFINALGRID SlowConv TightSCF printbasis
|  2>
|  3> %base "_s_4d2_d_PBE0"
|  4> %maxcore 3000
|  5> %scf
|  6>    MaxIter 2000
|  7> end
|  8> %pal
|  9>    nprocs 32
| 10> end
| 11>
| 12> * xyzfile 4 1 s_4d2_d.xyz
| 13>
| 14>                          ****END OF INPUT****

CARTESIAN COORDINATES (ANGSTROEM)
---------------------------------
  Pd     0.097500    4.090200    0.490700
  Pd     0.360900   -5.556700    0.184900
  C      6.131900   -2.844100    0.198400
  C      5.945100   -4.031600    0.335100
  C      5.877400   -5.431900    0.476500
  C      7.055100   -6.145400    0.618000
  C      7.048800   -7.538200    0.739800
  C      5.870500   -8.241800    0.714300
  C      4.649100   -7.559900    0.569600
  C      3.405800   -8.230900    0.524800
  C      2.251700   -7.518100    0.380000
  N      2.253600   -6.162700    0.284900
  C      3.391600   -5.500600    0.323400
  C      4.636900   -6.138600    0.456300
  H      7.994500   -5.614300    0.633400
  H      7.987500   -8.059100    0.850200
  H      5.867100   -9.316900    0.801000
  H      3.383400   -9.306200    0.603200
  H      1.278700   -8.013400    0.322500
  H      3.346900   -4.418700    0.251700
  C      6.285900   -1.455300   -0.006400
  C      7.499300   -0.935300   -0.467100
  C      7.615800    0.423600   -0.698600
  C      6.542500    1.273600   -0.489000
  C      5.324300    0.768500   -0.028700
  C      5.212200   -0.598300    0.222100
  H      8.335100   -1.594500   -0.644300
  H      8.552300    0.824400   -1.055700
  H      6.648000    2.322900   -0.715200
  H      4.304800   -1.010000    0.632400
  C      4.156900    1.634300    0.160900
  C      2.867800    1.124800   -0.053200
  C      1.769000    1.925200    0.154500
  N      1.888900    3.212500    0.519500
  C      3.103300    3.728100    0.705500
  C      4.252400    2.972100    0.553400
  H      2.734600    0.115400   -0.406400
  H      0.752100    1.538800    0.030400
  H      3.151100    4.770600    0.997100
  H      5.211400    3.423000    0.750300
  C      0.457400    1.350200    6.250700
  C      0.314400    2.538500    6.075300
  C      0.173700    3.938600    6.018100
  C      0.090800    4.648700    7.203500
  C     -0.025400    6.041800    7.207400
  C     -0.054000    6.748200    6.030800
  C      0.026500    6.068900    4.802300
  C      0.006500    6.743900    3.560300
  C      0.073700    6.032700    2.398400
  N      0.158500    4.675600    2.391400
  C      0.196800    4.010400    3.527400
  C      0.135600    4.647400    4.779700
  H      0.117200    4.114400    8.140900
  H     -0.088800    6.560400    8.151700
  H     -0.137700    7.823600    6.034200
  H     -0.064700    7.819800    3.545200
  H      0.054000    6.530400    1.424300
  H      0.282900    2.930200    3.472700
  C      0.693800   -0.033400    6.400200
  C      1.168300   -0.538900    7.614600
  C      1.453100   -1.887400    7.727300
  C      1.286800   -2.738500    6.647700
  C      0.807800   -2.249200    5.429300
  C      0.497800   -0.893800    5.322900
  H      1.316300    0.124600    8.452700
  H      1.821700   -2.278200    8.663600
  H      1.562300   -3.776100    6.749900
  H      0.072400   -0.492900    4.417000
  C      0.677300   -3.121700    4.259300
  C      0.418700   -4.492000    4.355200
  C      0.340300   -5.260100    3.207600
  N      0.482800   -4.732300    1.993600
  C      0.714400   -3.415100    1.871700
  C      0.830900   -2.594200    2.968500
  H      0.265900   -4.961000    5.313400
  H      0.160500   -6.327000    3.260000
  H      0.802700   -3.024700    0.851400
  H      1.059100   -1.550100    2.833400
  C     -4.673200   -1.902200   -2.234400
  C     -4.582600   -3.061600   -1.899200
  C     -4.766100   -4.412400   -1.544800
  C     -5.959600   -5.006000   -1.925500
  C     -6.275900   -6.314200   -1.552700
  C     -5.405500   -7.052100   -0.789900
  C     -4.172300   -6.500200   -0.403300
  C     -3.233500   -7.229200    0.360900
  C     -2.019200   -6.680900    0.644700
  N     -1.669400   -5.433800    0.217000
  C     -2.544300   -4.699900   -0.441100
  C     -3.824000   -5.170800   -0.787900
  H     -6.664100   -4.435000   -2.510200
  H     -7.219200   -6.736900   -1.862400
  H     -5.651100   -8.057000   -0.485100
  H     -3.484300   -8.222400    0.698300
  H     -1.280000   -7.220700    1.245600
  H     -2.231400   -3.703900   -0.730000
  C     -4.850900   -0.527300   -2.498100
  C     -5.796900   -0.109500   -3.439300
  C     -6.049800    1.239900   -3.600800
  C     -5.389000    2.182100   -2.830500
  C     -4.436000    1.780900   -1.892500
  C     -4.159300    0.421100   -1.750600
  H     -6.331700   -0.840800   -4.025100
  H     -6.785400    1.562500   -4.321800
  H     -5.643900    3.224200   -2.938500
  H     -3.408300    0.079000   -1.057200
  C     -3.707900    2.741100   -1.059500
  C     -3.425300    4.047700   -1.468800
  C     -2.538500    4.816800   -0.736800
  N     -1.937100    4.363500    0.364600
  C     -2.325100    3.170900    0.860000
  C     -3.206500    2.350600    0.191700
  H     -3.841800    4.445700   -2.379400
  H     -2.270000    5.816100   -1.052700
  H     -1.947600    2.899700    1.847100
  H     -3.499200    1.412200    0.634000
  C     -2.260800    0.529100   -4.620800
  C     -1.944500    1.693400   -4.524600
  C     -1.595000    3.048700   -4.683600
  C     -1.957800    3.663600   -5.871500
  C     -1.580000    4.977700   -6.157300
  C     -0.826600    5.699000   -5.264700
  C     -0.456700    5.125400   -4.036300
  C      0.304800    5.830700   -3.077100
  C      0.573700    5.258200   -1.870600
  N      0.125000    4.011900   -1.547000
  C     -0.530700    3.299500   -2.441500
  C     -0.853500    3.792200   -3.717400
  H     -2.531400    3.106000   -6.595700
  H     -1.876600    5.418100   -7.096700
  H     -0.515900    6.706900   -5.490000
  H      0.655300    6.824200   -3.307700
  H      1.181100    5.769100   -1.116700
  H     -0.838400    2.303100   -2.148400
  C     -2.521100   -0.845300   -4.809200
  C     -3.444200   -1.253300   -5.777500
  C     -3.612000   -2.600500   -6.037500
  C     -2.866600   -3.550800   -5.360000
  C     -1.946600   -3.160000   -4.385500
  C     -1.796100   -1.801800   -4.104300
  H     -4.011900   -0.515600   -6.322900
  H     -4.318800   -2.915000   -6.790100
  H     -2.979200   -4.591600   -5.618300
  H     -1.115800   -1.469200   -3.337100
  C     -1.143000   -4.132700   -3.640700
  C      0.108500   -3.767000   -3.121600
  C      0.749000   -4.601100   -2.232200
  N      0.224000   -5.782600   -1.848800
  C     -0.878300   -6.213800   -2.464800
  C     -1.581600   -5.430700   -3.362800
  H      0.572300   -2.837300   -3.409500
  H      1.739500   -4.353600   -1.846100
  H     -1.219300   -7.206100   -2.200300
  H     -2.494000   -5.811000   -3.791800

 Total Charge           Charge          ....    4
 Multiplicity           Mult            ....    1
 Number of Electrons    NEL             ....  672
 Basis Dimension        Dim             .... 1686

ORBITAL ENERGIES
----------------

  NO   OCC          E(Eh)            E(eV)
   0   2.0000     -14.766309      -401.8117
   1   2.0000     -14.765611      -401.7927
   2   2.0000     -14.754601      -401.4931
   3   2.0000     -14.754519      -401.4909
   4   2.0000     -14.754507      -401.4906
   5   2.0000     -14.754172      -401.4814
   6   2.0000     -14.744519      -401.2188
   7   2.0000     -14.743384      -401.1879
   8   2.0000     -10.602995      -288.5222
   9   2.0000     -10.602503      -288.5088
  10   2.0000     -10.599632      -288.4307
  11   2.0000     -10.598744      -288.4065
  12   2.0000     -10.597318      -288.3677
  13   2.0000     -10.596810      -288.3539
  14   2.0000     -10.595393      -288.3153
  15   2.0000     -10.594593      -288.2935
  16   2.0000     -10.590142      -288.1724
  17   2.0000     -10.589913      -288.1662
  18   2.0000     -10.589696      -288.1603
  19   2.0000     -10.589224      -288.1474
  20   2.0000     -10.582502      -287.9645
  21   2.0000     -10.582448      -287.9631
  22   2.0000     -10.575784      -287.7817
  23   2.0000     -10.575205      -287.7659
  24   2.0000     -10.575093      -287.7629
  25   2.0000     -10.574899      -287.7576
  26   2.0000     -10.572391      -287.6894
  27   2.0000     -10.572114      -287.6819
  28   2.0000     -10.560690      -287.3710
  29   2.0000     -10.559737      -287.3451
  30   2.0000     -10.559370      -287.3351
  31   2.0000     -10.558781      -287.3190
  32   2.0000     -10.558671      -287.3160
  33   2.0000     -10.558208      -287.3034
  34   2.0000     -10.555361      -287.2260
  35   2.0000     -10.554708      -287.2082
  36   2.0000     -10.554662      -287.2070
  37   2.0000     -10.554065      -287.1907
  38   2.0000     -10.553932      -287.1871
  39   2.0000     -10.553290      -287.1696
  40   2.0000     -10.552343      -287.1438
  41   2.0000     -10.552182      -287.1395
  42   2.0000     -10.547412      -287.0097
  43   2.0000     -10.547046      -286.9997
  44   2.0000     -10.546827      -286.9937
  45   2.0000     -10.546280      -286.9789
  46   2.0000     -10.545179      -286.9489
  47   2.0000     -10.544434      -286.9286
  48   2.0000     -10.544234      -286.9232
  49   2.0000     -10.543891      -286.9138
  50   2.0000     -10.542856      -286.8857
  51   2.0000     -10.542365      -286.8723
  52   2.0000     -10.538988      -286.7804
  53   2.0000     -10.538825      -286.7760
  54   2.0000     -10.536657      -286.7170
  55   2.0000     -10.536232      -286.7054
  56   2.0000     -10.534905      -286.6693
  57   2.0000     -10.533837      -286.6403
  58   2.0000     -10.533304      -286.6258
  59   2.0000     -10.532965      -286.6166
  60   2.0000     -10.532882      -286.6143
  61   2.0000     -10.532130      -286.5938
  62   2.0000     -10.530916      -286.5608
  63   2.0000     -10.530381      -286.5462
  64   2.0000     -10.526545      -286.4419
  65   2.0000     -10.525936      -286.4253
  66   2.0000     -10.525677      -286.4182
  67   2.0000     -10.525538      -286.4144
  68   2.0000     -10.525137      -286.4035
  69   2.0000     -10.524827      -286.3951
  70   2.0000     -10.524637      -286.3899
  71   2.0000     -10.524225      -286.3787
  72   2.0000     -10.523871      -286.3691
  73   2.0000     -10.523864      -286.3689
  74   2.0000     -10.522591      -286.3343
  75   2.0000     -10.522506      -286.3319
  76   2.0000     -10.520736      -286.2838
  77   2.0000     -10.520176      -286.2685
  78   2.0000     -10.517223      -286.1882
  79   2.0000     -10.516496      -286.1684
  80   2.0000     -10.516484      -286.1681
  81   2.0000     -10.515745      -286.1480
  82   2.0000     -10.514150      -286.1046
  83   2.0000     -10.514133      -286.1041
  84   2.0000     -10.513007      -286.0735
  85   2.0000     -10.512432      -286.0578
  86   2.0000     -10.512389      -286.0566
  87   2.0000     -10.512340      -286.0553
  88   2.0000     -10.512127      -286.0495
  89   2.0000     -10.511757      -286.0395
  90   2.0000     -10.511321      -286.0276
  91   2.0000     -10.511173      -286.0236
  92   2.0000     -10.508924      -285.9624
  93   2.0000     -10.507719      -285.9296
  94   2.0000     -10.504538      -285.8430
  95   2.0000     -10.503623      -285.8181
  96   2.0000      -3.860116      -105.0391
  97   2.0000      -3.859536      -105.0233
  98   2.0000      -2.538735       -69.0825
  99   2.0000      -2.538486       -69.0757
 100   2.0000      -2.536050       -69.0094
 101   2.0000      -2.535141       -68.9847
 102   2.0000      -2.501278       -68.0632
 103   2.0000      -2.500806       -68.0504
 104   2.0000      -1.315063       -35.7847
 105   2.0000      -1.314827       -35.7783
 106   2.0000      -1.307007       -35.5655
 107   2.0000      -1.306971       -35.5645
 108   2.0000      -1.298986       -35.3472
 109   2.0000      -1.298798       -35.3421
 110   2.0000      -1.298012       -35.3207
 111   2.0000      -1.297671       -35.3114
 112   2.0000      -1.189611       -32.3710
 113   2.0000      -1.188692       -32.3460
 114   2.0000      -1.185935       -32.2709
 115   2.0000      -1.185099       -32.2482
 116   2.0000      -1.181567       -32.1521
 117   2.0000      -1.180640       -32.1269
 118   2.0000      -1.176314       -32.0091
 119   2.0000      -1.175762       -31.9941
 120   2.0000      -1.147573       -31.2270
 121   2.0000      -1.146024       -31.1849
 122   2.0000      -1.145001       -31.1571
 123   2.0000      -1.144257       -31.1368
 124   2.0000      -1.125376       -30.6230
 125   2.0000      -1.124873       -30.6094
 126   2.0000      -1.113986       -30.3131
 127   2.0000      -1.113451       -30.2985
 128   2.0000      -1.110125       -30.2080
 129   2.0000      -1.109787       -30.1988
 130   2.0000      -1.102471       -29.9998
 131   2.0000      -1.102124       -29.9903
 132   2.0000      -1.093155       -29.7463
 133   2.0000      -1.092447       -29.7270
 134   2.0000      -1.090706       -29.6796
 135   2.0000      -1.090320       -29.6691
 136   2.0000      -1.081791       -29.4370
 137   2.0000      -1.081125       -29.4189
 138   2.0000      -1.080968       -29.4146
 139   2.0000      -1.080251       -29.3951
 140   2.0000      -1.071285       -29.1511
 141   2.0000      -1.069658       -29.1069
 142   2.0000      -1.060762       -28.8648
 143   2.0000      -1.060098       -28.8467
 144   2.0000      -1.057106       -28.7653
 145   2.0000      -1.056022       -28.7358
 146   2.0000      -1.050618       -28.5888
 147   2.0000      -1.049827       -28.5673
 148   2.0000      -1.022039       -27.8111
 149   2.0000      -1.021450       -27.7951
 150   2.0000      -1.011641       -27.5281
 151   2.0000      -1.010827       -27.5060
 152   2.0000      -0.982866       -26.7451
 153   2.0000      -0.982706       -26.7408
 154   2.0000      -0.979788       -26.6614
 155   2.0000      -0.979135       -26.6436
 156   2.0000      -0.975654       -26.5489
 157   2.0000      -0.975341       -26.5404
 158   2.0000      -0.969584       -26.3837
 159   2.0000      -0.969249       -26.3746
 160   2.0000      -0.967423       -26.3249
 161   2.0000      -0.966921       -26.3113
 162   2.0000      -0.965410       -26.2701
 163   2.0000      -0.964992       -26.2588
 164   2.0000      -0.956435       -26.0259
 165   2.0000      -0.955487       -26.0001
 166   2.0000      -0.945772       -25.7358
 167   2.0000      -0.945067       -25.7166
 168   2.0000      -0.939322       -25.5603
 169   2.0000      -0.938563       -25.5396
 170   2.0000      -0.929240       -25.2859
 171   2.0000      -0.928447       -25.2643
 172   2.0000      -0.915238       -24.9049
 173   2.0000      -0.914698       -24.8902
 174   2.0000      -0.906714       -24.6729
 175   2.0000      -0.905872       -24.6500
 176   2.0000      -0.905350       -24.6358
 177   2.0000      -0.904027       -24.5998
 178   2.0000      -0.902781       -24.5659
 179   2.0000      -0.902265       -24.5519
 180   2.0000      -0.876833       -23.8598
 181   2.0000      -0.872802       -23.7501
 182   2.0000      -0.870859       -23.6973
 183   2.0000      -0.868495       -23.6330
 184   2.0000      -0.861573       -23.4446
 185   2.0000      -0.859246       -23.3813
 186   2.0000      -0.852965       -23.2104
 187   2.0000      -0.852478       -23.1971
 188   2.0000      -0.848542       -23.0900
 189   2.0000      -0.847727       -23.0678
 190   2.0000      -0.839583       -22.8462
 191   2.0000      -0.839071       -22.8323
 192   2.0000      -0.833288       -22.6749
 193   2.0000      -0.832449       -22.6521
 194   2.0000      -0.831114       -22.6158
 195   2.0000      -0.830639       -22.6028
 196   2.0000      -0.827365       -22.5138
 197   2.0000      -0.826869       -22.5002
 198   2.0000      -0.824374       -22.4323
 199   2.0000      -0.823400       -22.4059
 200   2.0000      -0.816896       -22.2289
 201   2.0000      -0.816467       -22.2172
 202   2.0000      -0.813252       -22.1297
 203   2.0000      -0.812751       -22.1161
 204   2.0000      -0.800635       -21.7864
 205   2.0000      -0.800066       -21.7709
 206   2.0000      -0.798617       -21.7315
 207   2.0000      -0.797845       -21.7105
 208   2.0000      -0.792587       -21.5674
 209   2.0000      -0.791797       -21.5459
 210   2.0000      -0.789748       -21.4901
 211   2.0000      -0.788543       -21.4574
 212   2.0000      -0.782688       -21.2980
 213   2.0000      -0.781784       -21.2734
 214   2.0000      -0.774067       -21.0634
 215   2.0000      -0.773445       -21.0465
 216   2.0000      -0.772682       -21.0257
 217   2.0000      -0.772010       -21.0075
 218   2.0000      -0.770626       -20.9698
 219   2.0000      -0.770173       -20.9575
 220   2.0000      -0.769063       -20.9273
 221   2.0000      -0.767488       -20.8844
 222   2.0000      -0.766363       -20.8538
 223   2.0000      -0.765983       -20.8435
 224   2.0000      -0.765550       -20.8317
 225   2.0000      -0.765072       -20.8187
 226   2.0000      -0.763774       -20.7833
 227   2.0000      -0.761381       -20.7182
 228   2.0000      -0.760803       -20.7025
 229   2.0000      -0.758986       -20.6530
 230   2.0000      -0.757745       -20.6193
 231   2.0000      -0.756884       -20.5959
 232   2.0000      -0.755355       -20.5543
 233   2.0000      -0.754242       -20.5240
 234   2.0000      -0.751801       -20.4575
 235   2.0000      -0.750215       -20.4144
 236   2.0000      -0.747732       -20.3468
 237   2.0000      -0.746413       -20.3109
 238   2.0000      -0.746167       -20.3042
 239   2.0000      -0.745056       -20.2740
 240   2.0000      -0.744495       -20.2587
 241   2.0000      -0.743033       -20.2189
 242   2.0000      -0.736673       -20.0459
 243   2.0000      -0.735533       -20.0149
 244   2.0000      -0.733503       -19.9596
 245   2.0000      -0.732616       -19.9355
 246   2.0000      -0.731980       -19.9182
 247   2.0000      -0.731325       -19.9004
 248   2.0000      -0.724257       -19.7080
 249   2.0000      -0.723205       -19.6794
 250   2.0000      -0.721307       -19.6278
 251   2.0000      -0.720972       -19.6186
 252   2.0000      -0.716444       -19.4954
 253   2.0000      -0.716096       -19.4860
 254   2.0000      -0.707586       -19.2544
 255   2.0000      -0.704869       -19.1805
 256   2.0000      -0.704476       -19.1698
 257   2.0000      -0.699027       -19.0215
 258   2.0000      -0.698294       -19.0015
 259   2.0000      -0.696890       -18.9633
 260   2.0000      -0.694652       -18.9024
 261   2.0000      -0.694087       -18.8871
 262   2.0000      -0.692700       -18.8493
 263   2.0000      -0.691943       -18.8287
 264   2.0000      -0.691247       -18.8098
 265   2.0000      -0.691178       -18.8079
 266   2.0000      -0.688712       -18.7408
 267   2.0000      -0.684151       -18.6167
 268   2.0000      -0.682340       -18.5674
 269   2.0000      -0.680679       -18.5222
 270   2.0000      -0.679153       -18.4807
 271   2.0000      -0.675892       -18.3920
 272   2.0000      -0.672995       -18.3131
 273   2.0000      -0.672327       -18.2949
 274   2.0000      -0.659505       -17.9461
 275   2.0000      -0.658533       -17.9196
 276   2.0000      -0.658524       -17.9194
 277   2.0000      -0.657702       -17.8970
 278   2.0000      -0.656800       -17.8724
 279   2.0000      -0.653615       -17.7858
 280   2.0000      -0.653107       -17.7719
 281   2.0000      -0.650834       -17.7101
 282   2.0000      -0.650235       -17.6938
 283   2.0000      -0.649795       -17.6818
 284   2.0000      -0.647943       -17.6314
 285   2.0000      -0.647537       -17.6204
 286   2.0000      -0.643918       -17.5219
 287   2.0000      -0.643179       -17.5018
 288   2.0000      -0.642372       -17.4798
 289   2.0000      -0.642279       -17.4773
 290   2.0000      -0.639287       -17.3959
 291   2.0000      -0.638858       -17.3842
 292   2.0000      -0.634625       -17.2690
 293   2.0000      -0.633978       -17.2514
 294   2.0000      -0.633261       -17.2319
 295   2.0000      -0.631957       -17.1964
 296   2.0000      -0.629529       -17.1304
 297   2.0000      -0.627856       -17.0848
 298   2.0000      -0.625559       -17.0223
 299   2.0000      -0.624744       -17.0002
 300   2.0000      -0.622068       -16.9273
 301   2.0000      -0.621686       -16.9169
 302   2.0000      -0.615019       -16.7355
 303   2.0000      -0.614497       -16.7213
 304   2.0000      -0.611660       -16.6441
 305   2.0000      -0.607876       -16.5411
 306   2.0000      -0.601948       -16.3798
 307   2.0000      -0.600109       -16.3298
 308   2.0000      -0.599445       -16.3117
 309   2.0000      -0.598735       -16.2924
 310   2.0000      -0.595127       -16.1942
 311   2.0000      -0.590061       -16.0564
 312   2.0000      -0.587364       -15.9830
 313   2.0000      -0.586404       -15.9569
 314   2.0000      -0.577287       -15.7088
 315   2.0000      -0.576815       -15.6959
 316   2.0000      -0.573866       -15.6157
 317   2.0000      -0.572173       -15.5696
 318   2.0000      -0.570747       -15.5308
 319   2.0000      -0.570455       -15.5229
 320   2.0000      -0.564812       -15.3693
 321   2.0000      -0.562805       -15.3147
 322   2.0000      -0.561707       -15.2848
 323   2.0000      -0.561466       -15.2783
 324   2.0000      -0.557612       -15.1734
 325   2.0000      -0.553049       -15.0492
 326   2.0000      -0.549595       -14.9552
 327   2.0000      -0.543560       -14.7910
 328   2.0000      -0.543361       -14.7856
 329   2.0000      -0.540946       -14.7199
 330   2.0000      -0.540271       -14.7015
 331   2.0000      -0.539162       -14.6713
 332   2.0000      -0.508769       -13.8443
 333   2.0000      -0.508227       -13.8296
 334   2.0000      -0.498306       -13.5596
 335   2.0000      -0.497125       -13.5275
 336   0.0000      -0.386917       -10.5285
 337   0.0000      -0.384506       -10.4629
 338   0.0000      -0.371001       -10.0954
 339   0.0000      -0.370706       -10.0874
 340   0.0000      -0.360745        -9.8164

MULLIKEN ATOMIC CHARGES
-----------------------
   0 Pd:    0.354882
   1 Pd:    0.368973
   2 C :    0.017622
   3 C :   -0.073005
   4 C :   -0.007322
   5 C :    0.028956
   6 C :    0.035134
   7 C :    0.022220
   8 C :    0.027629
   9 C :    0.004574
  10 C :    0.130221
  11 N :   -0.319849
  12 C :    0.156191
  13 C :   -0.012479
  14 H :    0.058462
  15 H :    0.080836
  16 H :    0.057306
  17 H :    0.065128
  18 H :    0.094645
  19 H :    0.038685
  20 C :   -0.049919
  21 C :    0.054067
  22 C :    0.010263
  23 C :   -0.006463
  24 C :    0.042756
  25 C :   -0.021605
  26 H :    0.057352
  27 H :    0.070162
  28 H :    0.040593
  29 H :   -0.007429
  30 C :    0.073049
  31 C :   -0.042337
  32 C :    0.147268
  33 N :   -0.329184
  34 C :    0.144010
  35 C :   -0.030816
  36 H :    0.030338
  37 H :    0.076178
  38 H :    0.095456
  39 H :    0.073098
  40 C :    0.016309
  41 C :   -0.072190
  42 C :   -0.006841
  43 C :    0.028830
  44 C :    0.035724
  45 C :    0.021871
  46 C :    0.027996
  47 C :    0.005221
  48 C :    0.134379
  49 N :   -0.327629
  50 C :    0.156096
  51 C :   -0.015281
  52 H :    0.058471
  53 H :    0.080887
  54 H :    0.057288
  55 H :    0.065159
  56 H :    0.095373
  57 H :    0.049162
  58 C :   -0.048579
  59 C :    0.053838
  60 C :    0.011240
  61 C :   -0.009702
  62 C :    0.045809
  63 C :   -0.021019
  64 H :    0.057049
  65 H :    0.069496
  66 H :    0.040067
  67 H :   -0.003725
  68 C :    0.076782
  69 C :   -0.035550
  70 C :    0.151021
  71 N :   -0.325454
  72 C :    0.142439
  73 C :   -0.039765
  74 H :    0.072843
  75 H :    0.084188
  76 H :    0.075000
  77 H :    0.030096
  78 C :    0.049112
  79 C :   -0.082528
  80 C :   -0.033424
  81 C :    0.021111
  82 C :    0.033383
  83 C :    0.022363
  84 C :    0.004080
  85 C :    0.015543
  86 C :    0.104075
  87 N :   -0.308553
  88 C :    0.142675
  89 C :    0.013682
  90 H :    0.053138
  91 H :    0.081199
  92 H :    0.058522
  93 H :    0.065494
  94 H :    0.087364
  95 H :    0.050855
  96 C :   -0.056801
  97 C :    0.042466
  98 C :    0.007154
  99 C :   -0.007933
 100 C :    0.065870
 101 C :   -0.019623
 102 H :    0.045220
 103 H :    0.065100
 104 H :    0.045226
 105 H :   -0.009233
 106 C :    0.041712
 107 C :   -0.022596
 108 C :    0.142182
 109 N :   -0.312038
 110 C :    0.133497
 111 C :   -0.025392
 112 H :    0.060945
 113 H :    0.090390
 114 H :    0.086244
 115 H :    0.054507
 116 C :    0.049017
 117 C :   -0.081876
 118 C :   -0.031017
 119 C :    0.021149
 120 C :    0.033441
 121 C :    0.021879
 122 C :    0.005271
 123 C :    0.014374
 124 C :    0.103045
 125 N :   -0.307719
 126 C :    0.143724
 127 C :    0.008922
 128 H :    0.053473
 129 H :    0.081419
 130 H :    0.058565
 131 H :    0.065496
 132 H :    0.096151
 133 H :    0.043606
 134 C :   -0.057337
 135 C :    0.041674
 136 C :    0.007471
 137 C :   -0.008413
 138 C :    0.065446
 139 C :   -0.017028
 140 H :    0.045438
 141 H :    0.065339
 142 H :    0.045587
 143 H :   -0.011343
 144 C :    0.043502
 145 C :   -0.023262
 146 C :    0.133548
 147 N :   -0.312710
 148 C :    0.141156
 149 C :   -0.023207
 150 H :    0.052438
 151 H :    0.081584
 152 H :    0.092280
 153 H :    0.061382
Sum of atomic charges:    4.0000000

LOEWDIN ATOMIC CHARGES
----------------------
   0 Pd:   -0.361275
   1 Pd:   -0.362492
   2 C :   -0.004089
   3 C :   -0.034260
   4 C :   -0.026735
   5 C :    0.041611
   6 C :    0.037210
   7 C :    0.013893
   8 C :    0.010723
   9 C :    0.022220
  10 C :    0.044533
  11 N :    0.065256
  12 C :    0.085893
  13 C :   -0.019638
  14 H :    0.059778
  15 H :    0.063767
  16 H :    0.056491
  17 H :    0.064233
  18 H :    0.062979
  19 H :    0.043837
  20 C :   -0.042972
  21 C :    0.041618
  22 C :    0.011015
  23 C :    0.011443
  24 C :   -0.042881
  25 C :    0.001145
  26 H :    0.057098
  27 H :    0.058696
  28 H :    0.044667
  29 H :    0.027271
  30 C :    0.047060
  31 C :   -0.020599
  32 C :    0.064668
  33 N :    0.064849
  34 C :    0.084473
  35 C :    0.001590
  36 H :    0.043699
  37 H :    0.055624
  38 H :    0.061880
  39 H :    0.062432
  40 C :   -0.003465
  41 C :   -0.033995
  42 C :   -0.026315
  43 C :    0.041515
  44 C :    0.037805
  45 C :    0.013514
  46 C :    0.010843
  47 C :    0.021947
  48 C :    0.044204
  49 N :    0.063720
  50 C :    0.086991
  51 C :   -0.020616
  52 H :    0.059786
  53 H :    0.063823
  54 H :    0.056467
  55 H :    0.064191
  56 H :    0.063449
  57 H :    0.047747
  58 C :   -0.042334
  59 C :    0.042294
  60 C :    0.010551
  61 C :    0.011757
  62 C :   -0.042753
  63 C :    0.002975
  64 H :    0.056953
  65 H :    0.058524
  66 H :    0.044148
  67 H :    0.028590
  68 C :    0.047169
  69 C :    0.002476
  70 C :    0.084565
  71 N :    0.067277
  72 C :    0.062352
  73 C :   -0.018165
  74 H :    0.062050
  75 H :    0.058923
  76 H :    0.055996
  77 H :    0.043828
  78 C :    0.001677
  79 C :   -0.042607
  80 C :   -0.028588
  81 C :    0.035979
  82 C :    0.034523
  83 C :    0.012636
  84 C :    0.006982
  85 C :    0.017329
  86 C :    0.038939
  87 N :    0.048266
  88 C :    0.091751
  89 C :   -0.025856
  90 H :    0.057571
  91 H :    0.063946
  92 H :    0.057061
  93 H :    0.064231
  94 H :    0.062303
  95 H :    0.045717
  96 C :   -0.045588
  97 C :    0.032176
  98 C :    0.005470
  99 C :    0.015716
 100 C :   -0.036074
 101 C :    0.009011
 102 H :    0.051063
 103 H :    0.056512
 104 H :    0.046250
 105 H :    0.028232
 106 C :    0.045245
 107 C :   -0.006979
 108 C :    0.084575
 109 N :    0.030855
 110 C :    0.075743
 111 C :   -0.020377
 112 H :    0.055566
 113 H :    0.057010
 114 H :    0.058687
 115 H :    0.052323
 116 C :    0.001495
 117 C :   -0.042341
 118 C :   -0.028458
 119 C :    0.035845
 120 C :    0.034805
 121 C :    0.012461
 122 C :    0.007116
 123 C :    0.017242
 124 C :    0.040556
 125 N :    0.046191
 126 C :    0.089729
 127 C :   -0.025766
 128 H :    0.057729
 129 H :    0.063996
 130 H :    0.057105
 131 H :    0.064367
 132 H :    0.064889
 133 H :    0.043312
 134 C :   -0.045804
 135 C :    0.032252
 136 C :    0.005484
 137 C :    0.015785
 138 C :   -0.035654
 139 C :    0.008742
 140 H :    0.051157
 141 H :    0.056639
 142 H :    0.046393
 143 H :    0.027561
 144 C :    0.045333
 145 C :   -0.020514
 146 C :    0.074470
 147 N :    0.033721
 148 C :    0.085101
 149 C :   -0.006138
 150 H :    0.051479
 151 H :    0.057590
 152 H :    0.057614
 153 H :    0.055747

  Mayer bond orders larger than 0.100000
B(  0-Pd, 33-N ) :   0.5347 B(  0-Pd, 49-N ) :   0.5604 B(  0-Pd,109-N ) :   0.5444
B(  0-Pd,125-N ) :   0.5307 B(  1-Pd, 11-N ) :   0.5588 B(  1-Pd, 71-N ) :   0.5363
B(  1-Pd, 87-N ) :   0.5324 B(  1-Pd,147-N ) :   0.5435 B(  2-C ,  3-C ) :   2.6089
B(  2-C , 20-C ) :   0.9965 B(  3-C ,  4-C ) :   1.0025 B(  4-C ,  5-C ) :   1.4558
B(  4-C , 13-C ) :   1.2091 B(  5-C ,  6-C ) :   1.2682 B(  5-C , 14-H ) :   0.9922
B(  6-C ,  7-C ) :   1.4499 B(  6-C , 15-H ) :   0.9809 B(  7-C ,  8-C ) :   1.2715
B(  7-C , 16-H ) :   0.9948 B(  8-C ,  9-C ) :   1.2484 B(  8-C , 13-C ) :   1.2138
B(  9-C , 10-C ) :   1.5583 B(  9-C , 17-H ) :   0.9723 B( 10-C , 11-N ) :   1.1684
B( 10-C , 18-H ) :   0.9349 B( 11-N , 12-C ) :   1.4259 B( 12-C , 13-C ) :   1.3358
B( 12-C , 19-H ) :   0.9355 B( 20-C , 21-C ) :   1.3261 B( 20-C , 25-C ) :   1.3578
B( 21-C , 22-C ) :   1.3862 B( 21-C , 26-H ) :   0.9950 B( 22-C , 23-C ) :   1.3962
B( 22-C , 27-H ) :   0.9815 B( 23-C , 24-C ) :   1.3508 B( 23-C , 28-H ) :   0.9890
B( 24-C , 25-C ) :   1.3396 B( 24-C , 30-C ) :   1.0344 B( 25-C , 29-H ) :   0.9847
B( 30-C , 31-C ) :   1.3377 B( 30-C , 35-C ) :   1.3698 B( 31-C , 32-C ) :   1.4708
B( 31-C , 36-H ) :   0.9669 B( 32-C , 33-N ) :   1.2849 B( 32-C , 37-H ) :   0.9434
B( 33-N , 34-C ) :   1.3427 B( 34-C , 35-C ) :   1.4421 B( 34-C , 38-H ) :   0.9509
B( 35-C , 39-H ) :   0.9710 B( 40-C , 41-C ) :   2.6084 B( 40-C , 58-C ) :   0.9983
B( 41-C , 42-C ) :   1.0047 B( 42-C , 43-C ) :   1.4547 B( 42-C , 51-C ) :   1.2095
B( 43-C , 44-C ) :   1.2689 B( 43-C , 52-H ) :   0.9921 B( 44-C , 45-C ) :   1.4484
B( 44-C , 53-H ) :   0.9810 B( 45-C , 46-C ) :   1.2726 B( 45-C , 54-H ) :   0.9948
B( 46-C , 47-C ) :   1.2481 B( 46-C , 51-C ) :   1.2131 B( 47-C , 48-C ) :   1.5598
B( 47-C , 55-H ) :   0.9716 B( 48-C , 49-N ) :   1.1624 B( 48-C , 56-H ) :   0.9323
B( 49-N , 50-C ) :   1.4254 B( 50-C , 51-C ) :   1.3289 B( 50-C , 57-H ) :   0.9391
B( 58-C , 59-C ) :   1.3255 B( 58-C , 63-C ) :   1.3573 B( 59-C , 60-C ) :   1.3866
B( 59-C , 64-H ) :   0.9948 B( 60-C , 61-C ) :   1.3976 B( 60-C , 65-H ) :   0.9816
B( 61-C , 62-C ) :   1.3490 B( 61-C , 66-H ) :   0.9876 B( 62-C , 63-C ) :   1.3394
B( 62-C , 68-C ) :   1.0389 B( 63-C , 67-H ) :   0.9841 B( 68-C , 69-C ) :   1.3662
B( 68-C , 73-C ) :   1.3391 B( 69-C , 70-C ) :   1.4463 B( 69-C , 74-H ) :   0.9706
B( 70-C , 71-N ) :   1.3443 B( 70-C , 75-H ) :   0.9531 B( 71-N , 72-C ) :   1.2822
B( 72-C , 73-C ) :   1.4732 B( 72-C , 76-H ) :   0.9415 B( 73-C , 77-H ) :   0.9659
B( 78-C , 79-C ) :   2.5622 B( 78-C , 96-C ) :   0.9833 B( 79-C , 80-C ) :   1.0114
B( 80-C , 81-C ) :   1.4575 B( 80-C , 89-C ) :   1.2044 B( 81-C , 82-C ) :   1.2711
B( 81-C , 90-H ) :   0.9938 B( 82-C , 83-C ) :   1.4400 B( 82-C , 91-H ) :   0.9816
B( 83-C , 84-C ) :   1.2756 B( 83-C , 92-H ) :   0.9963 B( 84-C , 85-C ) :   1.2397
B( 84-C , 89-C ) :   1.2097 B( 85-C , 86-C ) :   1.5528 B( 85-C , 93-H ) :   0.9755
B( 86-C , 87-N ) :   1.1546 B( 86-C , 94-H ) :   0.9370 B( 87-N , 88-C ) :   1.4415
B( 88-C , 89-C ) :   1.3178 B( 88-C , 95-H ) :   0.9472 B( 96-C , 97-C ) :   1.3248
B( 96-C ,101-C ) :   1.3631 B( 97-C , 98-C ) :   1.3853 B( 97-C ,102-H ) :   0.9946
B( 98-C , 99-C ) :   1.3873 B( 98-C ,103-H ) :   0.9829 B( 99-C ,100-C ) :   1.3522
B( 99-C ,104-H ) :   0.9893 B(100-C ,101-C ) :   1.3376 B(100-C ,106-C ) :   1.0325
B(101-C ,105-H ) :   0.9853 B(106-C ,107-C ) :   1.3611 B(106-C ,111-C ) :   1.3299
B(107-C ,108-C ) :   1.4335 B(107-C ,112-H ) :   0.9723 B(108-C ,109-N ) :   1.3380
B(108-C ,113-H ) :   0.9557 B(109-N ,110-C ) :   1.2496 B(110-C ,111-C ) :   1.4583
B(110-C ,114-H ) :   0.9388 B(111-C ,115-H ) :   0.9729 B(116-C ,117-C ) :   2.5611
B(116-C ,134-C ) :   0.9835 B(117-C ,118-C ) :   1.0082 B(118-C ,119-C ) :   1.4573
B(118-C ,127-C ) :   1.2050 B(119-C ,120-C ) :   1.2708 B(119-C ,128-H ) :   0.9938
B(120-C ,121-C ) :   1.4406 B(120-C ,129-H ) :   0.9814 B(121-C ,122-C ) :   1.2753
B(121-C ,130-H ) :   0.9963 B(122-C ,123-C ) :   1.2380 B(122-C ,127-C ) :   1.2098
B(123-C ,124-C ) :   1.5523 B(123-C ,131-H ) :   0.9761 B(124-C ,125-N ) :   1.1573
B(124-C ,132-H ) :   0.9339 B(125-N ,126-C ) :   1.4377 B(126-C ,127-C ) :   1.3268
B(126-C ,133-H ) :   0.9447 B(134-C ,135-C ) :   1.3252 B(134-C ,139-C ) :   1.3615
B(135-C ,136-C ) :   1.3855 B(135-C ,140-H ) :   0.9948 B(136-C ,137-C ) :   1.3868
B(136-C ,141-H ) :   0.9831 B(137-C ,138-C ) :   1.3525 B(137-C ,142-H ) :   0.9892
B(138-C ,139-C ) :   1.3386 B(138-C ,144-C ) :   1.0319 B(139-C ,143-H ) :   0.9854
B(144-C ,145-C ) :   1.3311 B(144-C ,149-C ) :   1.3634 B(145-C ,146-C ) :   1.4574
B(145-C ,150-H ) :   0.9719 B(146-C ,147-N ) :   1.2517 B(146-C ,151-H ) :   0.9404
B(147-N ,148-C ) :   1.3394 B(148-C ,149-C ) :   1.4325 B(148-C ,152-H ) :   0.9559
B(149-C ,153-H ) :   0.9718

Dispersion correction           -0.266677002
FINAL SINGLE POINT ENERGY     -4072.724775949233

DIPOLE MOMENT
-------------
                                X             Y             Z
Electronic contribution:     29.46545      -1.77967      41.71935
Nuclear contribution   :    -29.24855       1.81365     -41.51395
                        -----------------------------------------
Total Dipole Moment    :      0.21690       0.03398       0.20541
                        -----------------------------------------
Magnitude (a.u.)       :      0.30065
Magnitude (Debye)      :      0.76420

Rotational constants in cm-1:     0.000579     0.000444     0.000351
Rotational constants in MHz :    17.369918    13.325673    10.532996

                             ****ORCA TERMINATED NORMALLY****
TOTAL RUN TIME: 0 days 0 hours 16 minutes 27 seconds 37 msec
