                         Program Version 4.2.1 -  RELEASE  -
|  1> ! DFT SP B97-3c TightSCF printbasis  Grid6 NOFINALGRID SlowConv
|  2>
|  3> %base "_s_4d2_c_B97-3c"
|  4> %maxcore 3000
|  5> %scf
|  6>    MaxIter 2000
|  7> end
|  8> %pal
|  9>    nprocs 32
| 10> end
| 11>
| 12> * xyzfile 4 1 s_4d2_c.xyz
| 13>
| 14>                          ****END OF INPUT****

CARTESIAN COORDINATES (ANGSTROEM)
---------------------------------
  Pd     0.466900    3.600700    0.244100
  Pd     1.352600   -5.611700    1.251500
  C      6.843100   -2.924200    1.129800
  C      6.759600   -4.129900    1.185100
  C      6.763000   -5.536900    1.126600
  C      7.970100   -6.211600    1.087100
  C      8.017000   -7.598100    0.907900
  C      6.866700   -8.326100    0.732000
  C      5.615700   -7.684200    0.776500
  C      4.396400   -8.369400    0.574200
  C      3.214900   -7.692900    0.660000
  N      3.162300   -6.377100    0.982600
  C      4.279500   -5.695100    1.143400
  C      5.549000   -6.280800    1.017400
  H      8.890700   -5.656100    1.180300
  H      8.977000   -8.091000    0.885200
  H      6.907900   -9.389700    0.556900
  H      4.413600   -9.423700    0.348900
  H      2.260700   -8.181400    0.473600
  H      4.189900   -4.641600    1.397100
  C      6.936000   -1.525200    0.966900
  C      8.190700   -0.910500    0.902400
  C      8.275100    0.448600    0.662100
  C      7.130800    1.206500    0.479300
  C      5.870200    0.607800    0.546500
  C      5.783500   -0.759700    0.801700
  H      9.085000   -1.500400    1.032000
  H      9.244000    0.921200    0.605900
  H      7.225100    2.256200    0.250200
  H      4.823200   -1.240200    0.898000
  C      4.647900    1.389900    0.338700
  C      4.542700    2.727600    0.733300
  C      3.348400    3.397900    0.564600
  N      2.269400    2.804600    0.045900
  C      2.357500    1.537000   -0.376100
  C      3.520700    0.810300   -0.259500
  H      5.376200    3.232800    1.193400
  H      3.233400    4.437900    0.855800
  H      1.452900    1.119200   -0.815600
  H      3.569800   -0.196900   -0.640500
  C      1.977500   -2.816600    6.633500
  C      2.002300   -4.024900    6.578300
  C      1.920300   -5.429900    6.624600
  C      2.023900   -6.077400    7.842700
  C      1.826800   -7.458600    7.945400
  C      1.491200   -8.207300    6.845000
  C      1.386000   -7.593700    5.583400
  C      1.015900   -8.300100    4.416800
  C      0.960800   -7.650600    3.218200
  N      1.297800   -6.343500    3.093500
  C      1.614400   -5.641900    4.164400
  C      1.642300   -6.197600    5.453000
  H      2.244600   -5.504400    8.730200
  H      1.918700   -7.930100    8.911900
  H      1.303300   -9.265800    6.934000
  H      0.775600   -9.348800    4.487600
  H      0.643700   -8.154800    2.307900
  H      1.874900   -4.596100    4.018000
  C      1.848200   -1.412900    6.707700
  C      1.927100   -0.768800    7.946700
  C      1.717400    0.595800    8.022900
  C      1.424400    1.330300    6.886300
  C      1.348500    0.702200    5.640500
  C      1.573200   -0.671100    5.560700
  H      2.142300   -1.340400    8.836400
  H      1.771800    1.091300    8.980300
  H      1.221500    2.385500    6.979000
  H      1.561300   -1.174600    4.607400
  C      1.020900    1.460600    4.429500
  C      1.415600    2.790900    4.253900
  C      1.122800    3.440300    3.072100
  N      0.481800    2.833100    2.069300
  C      0.061600    1.571700    2.227900
  C      0.299000    0.866000    3.385600
  H      1.969600    3.306600    5.021100
  H      1.409900    4.474300    2.904700
  H     -0.477700    1.141600    1.385100
  H     -0.082600   -0.136100    3.495300
  C     -5.023000    0.912000    0.360900
  C     -4.939100    2.117900    0.312200
  C     -4.942700    3.524600    0.378500
  C     -6.150100    4.198500    0.424800
  C     -6.197300    5.584000    0.612000
  C     -5.046900    6.311500    0.788900
  C     -3.795700    5.670600    0.737500
  C     -2.576200    6.355300    0.940200
  C     -1.394500    5.679900    0.847700
  N     -1.342100    4.365800    0.518100
  C     -2.459400    3.684100    0.356400
  C     -3.728900    4.268500    0.488700
  H     -7.070600    3.643000    0.331000
  H     -7.157400    6.076200    0.640000
  H     -5.088100    7.374100    0.970000
  H     -2.593300    7.408400    1.171000
  H     -0.440200    6.168000    1.034200
  H     -2.369800    2.632000    0.096700
  C     -5.116100   -0.487800    0.516300
  C     -6.370600   -1.103800    0.569600
  C     -6.455500   -2.464100    0.802800
  C     -5.311700   -3.222000    0.989500
  C     -4.051300   -2.622000    0.933600
  C     -3.964100   -1.253200    0.685400
  H     -7.264600   -0.514100    0.437000
  H     -7.424300   -2.937800    0.850400
  H     -5.406700   -4.272800    1.213000
  H     -3.003500   -0.771500    0.598000
  C     -2.829600   -3.403900    1.145300
  C     -2.720700   -4.739500    0.744700
  C     -1.526700   -5.409400    0.917200
  N     -0.451200   -4.817600    1.445000
  C     -0.543400   -3.552300    1.873000
  C     -1.706600   -2.826200    1.753300
  H     -3.550900   -5.243300    0.277200
  H     -1.408900   -6.447900    0.621400
  H      0.358100   -3.135800    2.320000
  H     -1.759000   -1.821200    2.139400
  C     -0.132700    0.807000   -5.143900
  C     -0.161800    2.015200   -5.087500
  C     -0.084400    3.420500   -5.132300
  C     -0.184600    4.068600   -6.350400
  C      0.008000    5.450500   -6.451200
  C      0.335800    6.199500   -5.348700
  C      0.437400    5.585300   -4.087100
  C      0.800000    6.292000   -2.918400
  C      0.852400    5.641800   -1.720100
  N      0.519500    4.333400   -1.597700
  C      0.209800    3.631500   -2.670500
  C      0.185500    4.188200   -3.958800
  H     -0.399200    3.495400   -7.239400
  H     -0.081100    5.922400   -7.417800
  H      0.520300    7.258700   -5.436000
  H      1.036900    7.341700   -2.987300
  H      1.164000    6.146500   -0.808200
  H     -0.047500    2.584800   -2.526200
  C      0.001600   -0.596200   -5.218400
  C     -0.064400   -1.239200   -6.458700
  C      0.149800   -2.603100   -6.534400
  C      0.434700   -3.338100   -5.396000
  C      0.497800   -2.711000   -4.149000
  C      0.268400   -1.338500   -4.069800
  H     -0.273200   -0.667200   -7.349700
  H      0.105300   -3.097700   -7.492800
  H      0.641400   -4.392500   -5.487900
  H      0.270300   -0.835900   -3.115900
  C      0.817500   -3.469600   -2.936000
  C      0.425400   -4.801200   -2.764600
  C      0.711300   -5.450900   -1.581300
  N      1.343000   -4.842800   -0.573200
  C      1.760300   -3.579900   -0.727200
  C      1.529300   -2.873700   -1.885900
  H     -0.121200   -5.317800   -3.536600
  H      0.426000   -6.485900   -1.416900
  H      2.291600   -3.148700    0.120200
  H      1.908100   -1.870200   -1.991700

 Total Charge           Charge          ....    4
 Multiplicity           Mult            ....    1
 Number of Electrons    NEL             ....  672
 Basis Dimension        Dim             .... 2058

ORBITAL ENERGIES
----------------

  NO   OCC          E(Eh)            E(eV)
   0   2.0000     -14.350003      -390.4834
   1   2.0000     -14.349976      -390.4827
   2   2.0000     -14.349760      -390.4768
   3   2.0000     -14.349724      -390.4758
   4   2.0000     -14.338039      -390.1579
   5   2.0000     -14.338037      -390.1578
   6   2.0000     -14.337998      -390.1568
   7   2.0000     -14.337988      -390.1565
   8   2.0000     -10.253514      -279.0123
   9   2.0000     -10.253473      -279.0112
  10   2.0000     -10.253241      -279.0049
  11   2.0000     -10.253156      -279.0026
  12   2.0000     -10.248823      -278.8847
  13   2.0000     -10.248815      -278.8844
  14   2.0000     -10.248616      -278.8790
  15   2.0000     -10.248583      -278.8781
  16   2.0000     -10.236757      -278.5563
  17   2.0000     -10.236745      -278.5560
  18   2.0000     -10.236694      -278.5546
  19   2.0000     -10.236655      -278.5535
  20   2.0000     -10.229920      -278.3703
  21   2.0000     -10.229920      -278.3703
  22   2.0000     -10.229683      -278.3638
  23   2.0000     -10.229625      -278.3623
  24   2.0000     -10.223463      -278.1946
  25   2.0000     -10.223457      -278.1944
  26   2.0000     -10.223350      -278.1915
  27   2.0000     -10.223319      -278.1906
  28   2.0000     -10.216197      -277.9969
  29   2.0000     -10.216172      -277.9962
  30   2.0000     -10.215863      -277.9878
  31   2.0000     -10.215769      -277.9852
  32   2.0000     -10.210947      -277.8540
  33   2.0000     -10.210940      -277.8538
  34   2.0000     -10.210776      -277.8493
  35   2.0000     -10.210725      -277.8480
  36   2.0000     -10.201518      -277.5974
  37   2.0000     -10.201496      -277.5968
  38   2.0000     -10.201448      -277.5955
  39   2.0000     -10.201416      -277.5946
  40   2.0000     -10.200710      -277.5754
  41   2.0000     -10.200682      -277.5747
  42   2.0000     -10.200669      -277.5743
  43   2.0000     -10.200630      -277.5732
  44   2.0000     -10.197308      -277.4829
  45   2.0000     -10.197282      -277.4821
  46   2.0000     -10.197254      -277.4814
  47   2.0000     -10.197210      -277.4802
  48   2.0000     -10.193459      -277.3781
  49   2.0000     -10.193418      -277.3770
  50   2.0000     -10.193288      -277.3735
  51   2.0000     -10.193232      -277.3720
  52   2.0000     -10.191728      -277.3310
  53   2.0000     -10.191698      -277.3302
  54   2.0000     -10.191516      -277.3253
  55   2.0000     -10.191452      -277.3235
  56   2.0000     -10.191091      -277.3137
  57   2.0000     -10.191079      -277.3134
  58   2.0000     -10.191014      -277.3116
  59   2.0000     -10.190981      -277.3107
  60   2.0000     -10.182957      -277.0924
  61   2.0000     -10.182915      -277.0912
  62   2.0000     -10.182759      -277.0870
  63   2.0000     -10.182720      -277.0859
  64   2.0000     -10.173299      -276.8295
  65   2.0000     -10.173266      -276.8286
  66   2.0000     -10.173125      -276.8248
  67   2.0000     -10.173069      -276.8233
  68   2.0000     -10.172745      -276.8145
  69   2.0000     -10.172739      -276.8143
  70   2.0000     -10.172724      -276.8139
  71   2.0000     -10.172705      -276.8134
  72   2.0000     -10.169527      -276.7269
  73   2.0000     -10.169489      -276.7259
  74   2.0000     -10.169384      -276.7230
  75   2.0000     -10.169328      -276.7215
  76   2.0000     -10.168575      -276.7010
  77   2.0000     -10.168534      -276.6999
  78   2.0000     -10.168532      -276.6998
  79   2.0000     -10.168487      -276.6986
  80   2.0000     -10.168061      -276.6870
  81   2.0000     -10.168021      -276.6859
  82   2.0000     -10.168017      -276.6858
  83   2.0000     -10.167971      -276.6846
  84   2.0000     -10.167581      -276.6739
  85   2.0000     -10.167546      -276.6730
  86   2.0000     -10.167525      -276.6724
  87   2.0000     -10.167476      -276.6711
  88   2.0000     -10.165012      -276.6040
  89   2.0000     -10.164978      -276.6031
  90   2.0000     -10.164930      -276.6018
  91   2.0000     -10.164883      -276.6005
  92   2.0000     -10.162657      -276.5399
  93   2.0000     -10.162630      -276.5392
  94   2.0000     -10.162505      -276.5358
  95   2.0000     -10.162463      -276.5347
  96   2.0000      -3.658167       -99.5438
  97   2.0000      -3.658163       -99.5437
  98   2.0000      -2.390073       -65.0372
  99   2.0000      -2.390057       -65.0368
 100   2.0000      -2.387142       -64.9574
 101   2.0000      -2.387136       -64.9573
 102   2.0000      -2.346650       -63.8556
 103   2.0000      -2.346646       -63.8555
 104   2.0000      -1.216844       -33.1120
 105   2.0000      -1.216819       -33.1113
 106   2.0000      -1.210132       -32.9294
 107   2.0000      -1.210117       -32.9290
 108   2.0000      -1.197457       -32.5845
 109   2.0000      -1.197398       -32.5829
 110   2.0000      -1.194101       -32.4931
 111   2.0000      -1.194067       -32.4922
 112   2.0000      -1.088114       -29.6091
 113   2.0000      -1.087948       -29.6046
 114   2.0000      -1.087508       -29.5926
 115   2.0000      -1.087472       -29.5916
 116   2.0000      -1.081047       -29.4168
 117   2.0000      -1.080811       -29.4104
 118   2.0000      -1.080475       -29.4012
 119   2.0000      -1.080409       -29.3994
 120   2.0000      -1.055022       -28.7086
 121   2.0000      -1.054765       -28.7016
 122   2.0000      -1.054002       -28.6809
 123   2.0000      -1.053969       -28.6799
 124   2.0000      -1.025674       -27.9100
 125   2.0000      -1.025238       -27.8981
 126   2.0000      -1.024217       -27.8704
 127   2.0000      -1.023842       -27.8601
 128   2.0000      -1.023819       -27.8595
 129   2.0000      -1.023518       -27.8513
 130   2.0000      -1.022147       -27.8140
 131   2.0000      -1.022126       -27.8135
 132   2.0000      -0.995560       -27.0906
 133   2.0000      -0.995528       -27.0897
 134   2.0000      -0.994877       -27.0720
 135   2.0000      -0.994763       -27.0689
 136   2.0000      -0.993516       -27.0349
 137   2.0000      -0.993130       -27.0244
 138   2.0000      -0.992072       -26.9956
 139   2.0000      -0.992040       -26.9948
 140   2.0000      -0.976269       -26.5656
 141   2.0000      -0.975819       -26.5534
 142   2.0000      -0.975096       -26.5337
 143   2.0000      -0.975020       -26.5317
 144   2.0000      -0.967684       -26.3320
 145   2.0000      -0.967593       -26.3295
 146   2.0000      -0.967255       -26.3204
 147   2.0000      -0.967174       -26.3181
 148   2.0000      -0.931396       -25.3446
 149   2.0000      -0.930993       -25.3336
 150   2.0000      -0.930877       -25.3305
 151   2.0000      -0.930714       -25.3260
 152   2.0000      -0.907683       -24.6993
 153   2.0000      -0.907564       -24.6961
 154   2.0000      -0.903908       -24.5966
 155   2.0000      -0.903871       -24.5956
 156   2.0000      -0.892667       -24.2907
 157   2.0000      -0.892311       -24.2810
 158   2.0000      -0.890868       -24.2417
 159   2.0000      -0.890236       -24.2246
 160   2.0000      -0.890076       -24.2202
 161   2.0000      -0.889693       -24.2098
 162   2.0000      -0.888155       -24.1679
 163   2.0000      -0.887760       -24.1572
 164   2.0000      -0.869508       -23.6605
 165   2.0000      -0.869411       -23.6579
 166   2.0000      -0.868328       -23.6284
 167   2.0000      -0.867848       -23.6153
 168   2.0000      -0.854694       -23.2574
 169   2.0000      -0.854517       -23.2526
 170   2.0000      -0.854088       -23.2409
 171   2.0000      -0.853971       -23.2377
 172   2.0000      -0.833937       -22.6926
 173   2.0000      -0.833686       -22.6857
 174   2.0000      -0.833018       -22.6676
 175   2.0000      -0.832675       -22.6583
 176   2.0000      -0.832217       -22.6458
 177   2.0000      -0.831783       -22.6340
 178   2.0000      -0.830010       -22.5857
 179   2.0000      -0.829969       -22.5846
 180   2.0000      -0.806803       -21.9542
 181   2.0000      -0.801611       -21.8129
 182   2.0000      -0.800849       -21.7922
 183   2.0000      -0.799894       -21.7662
 184   2.0000      -0.787220       -21.4214
 185   2.0000      -0.784048       -21.3350
 186   2.0000      -0.780029       -21.2257
 187   2.0000      -0.778623       -21.1874
 188   2.0000      -0.768134       -20.9020
 189   2.0000      -0.766848       -20.8670
 190   2.0000      -0.765817       -20.8390
 191   2.0000      -0.765039       -20.8178
 192   2.0000      -0.764850       -20.8126
 193   2.0000      -0.764049       -20.7908
 194   2.0000      -0.764012       -20.7898
 195   2.0000      -0.762122       -20.7384
 196   2.0000      -0.759742       -20.6736
 197   2.0000      -0.759343       -20.6628
 198   2.0000      -0.756695       -20.5907
 199   2.0000      -0.756619       -20.5887
 200   2.0000      -0.746512       -20.3136
 201   2.0000      -0.746063       -20.3014
 202   2.0000      -0.745363       -20.2824
 203   2.0000      -0.744604       -20.2617
 204   2.0000      -0.741692       -20.1825
 205   2.0000      -0.741004       -20.1638
 206   2.0000      -0.737859       -20.0782
 207   2.0000      -0.737501       -20.0684
 208   2.0000      -0.724321       -19.7098
 209   2.0000      -0.723580       -19.6896
 210   2.0000      -0.720128       -19.5957
 211   2.0000      -0.719346       -19.5744
 212   2.0000      -0.719137       -19.5687
 213   2.0000      -0.717194       -19.5159
 214   2.0000      -0.712074       -19.3765
 215   2.0000      -0.710562       -19.3354
 216   2.0000      -0.708403       -19.2766
 217   2.0000      -0.706126       -19.2147
 218   2.0000      -0.706010       -19.2115
 219   2.0000      -0.705518       -19.1981
 220   2.0000      -0.703985       -19.1564
 221   2.0000      -0.703650       -19.1473
 222   2.0000      -0.702087       -19.1048
 223   2.0000      -0.700592       -19.0641
 224   2.0000      -0.699263       -19.0279
 225   2.0000      -0.697751       -18.9868
 226   2.0000      -0.694489       -18.8980
 227   2.0000      -0.694400       -18.8956
 228   2.0000      -0.694318       -18.8933
 229   2.0000      -0.693424       -18.8690
 230   2.0000      -0.690931       -18.8012
 231   2.0000      -0.690458       -18.7883
 232   2.0000      -0.689041       -18.7498
 233   2.0000      -0.687893       -18.7185
 234   2.0000      -0.687724       -18.7139
 235   2.0000      -0.684982       -18.6393
 236   2.0000      -0.681909       -18.5557
 237   2.0000      -0.679789       -18.4980
 238   2.0000      -0.676069       -18.3968
 239   2.0000      -0.674404       -18.3515
 240   2.0000      -0.672890       -18.3103
 241   2.0000      -0.670448       -18.2438
 242   2.0000      -0.669939       -18.2300
 243   2.0000      -0.669767       -18.2253
 244   2.0000      -0.669431       -18.2162
 245   2.0000      -0.669353       -18.2140
 246   2.0000      -0.667613       -18.1667
 247   2.0000      -0.667189       -18.1551
 248   2.0000      -0.660682       -17.9781
 249   2.0000      -0.660163       -17.9640
 250   2.0000      -0.659901       -17.9568
 251   2.0000      -0.659216       -17.9382
 252   2.0000      -0.648947       -17.6588
 253   2.0000      -0.648447       -17.6451
 254   2.0000      -0.647338       -17.6150
 255   2.0000      -0.646668       -17.5967
 256   2.0000      -0.644064       -17.5259
 257   2.0000      -0.642677       -17.4881
 258   2.0000      -0.641857       -17.4658
 259   2.0000      -0.640445       -17.4274
 260   2.0000      -0.634601       -17.2684
 261   2.0000      -0.634565       -17.2674
 262   2.0000      -0.634491       -17.2654
 263   2.0000      -0.634454       -17.2644
 264   2.0000      -0.632202       -17.2031
 265   2.0000      -0.628503       -17.1024
 266   2.0000      -0.626468       -17.0471
 267   2.0000      -0.624867       -17.0035
 268   2.0000      -0.623231       -16.9590
 269   2.0000      -0.620377       -16.8813
 270   2.0000      -0.614858       -16.7311
 271   2.0000      -0.611822       -16.6485
 272   2.0000      -0.607221       -16.5233
 273   2.0000      -0.606629       -16.5072
 274   2.0000      -0.606372       -16.5002
 275   2.0000      -0.606347       -16.4996
 276   2.0000      -0.600266       -16.3341
 277   2.0000      -0.596357       -16.2277
 278   2.0000      -0.595518       -16.2049
 279   2.0000      -0.594817       -16.1858
 280   2.0000      -0.594177       -16.1684
 281   2.0000      -0.593833       -16.1590
 282   2.0000      -0.590089       -16.0571
 283   2.0000      -0.589036       -16.0285
 284   2.0000      -0.588999       -16.0275
 285   2.0000      -0.588938       -16.0258
 286   2.0000      -0.588895       -16.0246
 287   2.0000      -0.587991       -16.0000
 288   2.0000      -0.586015       -15.9463
 289   2.0000      -0.585465       -15.9313
 290   2.0000      -0.583347       -15.8737
 291   2.0000      -0.581062       -15.8115
 292   2.0000      -0.578162       -15.7326
 293   2.0000      -0.577672       -15.7193
 294   2.0000      -0.577582       -15.7168
 295   2.0000      -0.575456       -15.6590
 296   2.0000      -0.573922       -15.6172
 297   2.0000      -0.567628       -15.4459
 298   2.0000      -0.566473       -15.4145
 299   2.0000      -0.566061       -15.4033
 300   2.0000      -0.565829       -15.3970
 301   2.0000      -0.565135       -15.3781
 302   2.0000      -0.558151       -15.1881
 303   2.0000      -0.554957       -15.1011
 304   2.0000      -0.554877       -15.0990
 305   2.0000      -0.554721       -15.0947
 306   2.0000      -0.552676       -15.0391
 307   2.0000      -0.550686       -14.9849
 308   2.0000      -0.550496       -14.9798
 309   2.0000      -0.550415       -14.9775
 310   2.0000      -0.540528       -14.7085
 311   2.0000      -0.539808       -14.6889
 312   2.0000      -0.539590       -14.6830
 313   2.0000      -0.539089       -14.6694
 314   2.0000      -0.521314       -14.1857
 315   2.0000      -0.521265       -14.1843
 316   2.0000      -0.520892       -14.1742
 317   2.0000      -0.520460       -14.1624
 318   2.0000      -0.520320       -14.1586
 319   2.0000      -0.518826       -14.1180
 320   2.0000      -0.513447       -13.9716
 321   2.0000      -0.513398       -13.9703
 322   2.0000      -0.512357       -13.9419
 323   2.0000      -0.511981       -13.9317
 324   2.0000      -0.507904       -13.8208
 325   2.0000      -0.507197       -13.8015
 326   2.0000      -0.505750       -13.7622
 327   2.0000      -0.505709       -13.7611
 328   2.0000      -0.502423       -13.6716
 329   2.0000      -0.502017       -13.6606
 330   2.0000      -0.501838       -13.6557
 331   2.0000      -0.501131       -13.6365
 332   2.0000      -0.463255       -12.6058
 333   2.0000      -0.462718       -12.5912
 334   2.0000      -0.462382       -12.5821
 335   2.0000      -0.462250       -12.5785
 336   0.0000      -0.389440       -10.5972
 337   0.0000      -0.388221       -10.5640
 338   0.0000      -0.388086       -10.5604
 339   0.0000      -0.387272       -10.5382
 340   0.0000      -0.377177       -10.2635

MULLIKEN ATOMIC CHARGES
-----------------------
   0 Pd:   -0.036352
   1 Pd:   -0.036540
   2 C :   -0.012485
   3 C :    0.036693
   4 C :   -0.139601
   5 C :   -0.106070
   6 C :   -0.181510
   7 C :   -0.204661
   8 C :   -0.045380
   9 C :   -0.122829
  10 C :   -0.168665
  11 N :   -0.064130
  12 C :   -0.117736
  13 C :    0.358418
  14 H :    0.250398
  15 H :    0.230621
  16 H :    0.246387
  17 H :    0.253375
  18 H :    0.175844
  19 H :    0.159172
  20 C :   -0.178362
  21 C :   -0.113576
  22 C :   -0.164364
  23 C :   -0.119261
  24 C :   -0.065585
  25 C :   -0.131863
  26 H :    0.243455
  27 H :    0.227003
  28 H :    0.241492
  29 H :    0.210992
  30 C :   -0.109612
  31 C :   -0.064193
  32 C :   -0.098408
  33 N :   -0.081462
  34 C :   -0.104657
  35 C :   -0.081260
  36 H :    0.267623
  37 H :    0.196892
  38 H :    0.145816
  39 H :    0.249316
  40 C :   -0.012233
  41 C :    0.038650
  42 C :   -0.140278
  43 C :   -0.106822
  44 C :   -0.180708
  45 C :   -0.204984
  46 C :   -0.044109
  47 C :   -0.124069
  48 C :   -0.167567
  49 N :   -0.063744
  50 C :   -0.119833
  51 C :    0.358458
  52 H :    0.250429
  53 H :    0.230700
  54 H :    0.246370
  55 H :    0.253420
  56 H :    0.176443
  57 H :    0.158820
  58 C :   -0.176956
  59 C :   -0.115151
  60 C :   -0.163572
  61 C :   -0.120838
  62 C :   -0.067698
  63 C :   -0.131855
  64 H :    0.243482
  65 H :    0.227035
  66 H :    0.241163
  67 H :    0.211259
  68 C :   -0.112953
  69 C :   -0.061897
  70 C :   -0.099274
  71 N :   -0.082097
  72 C :   -0.105907
  73 C :   -0.072399
  74 H :    0.268254
  75 H :    0.197501
  76 H :    0.145548
  77 H :    0.245939
  78 C :   -0.012483
  79 C :    0.036344
  80 C :   -0.138985
  81 C :   -0.106301
  82 C :   -0.181466
  83 C :   -0.204703
  84 C :   -0.044958
  85 C :   -0.122859
  86 C :   -0.169683
  87 N :   -0.063953
  88 C :   -0.118647
  89 C :    0.358882
  90 H :    0.250400
  91 H :    0.230669
  92 H :    0.246363
  93 H :    0.253336
  94 H :    0.176274
  95 H :    0.159594
  96 C :   -0.178777
  97 C :   -0.113274
  98 C :   -0.164451
  99 C :   -0.118881
 100 C :   -0.065529
 101 C :   -0.131198
 102 H :    0.243439
 103 H :    0.227041
 104 H :    0.241529
 105 H :    0.210564
 106 C :   -0.109882
 107 C :   -0.064386
 108 C :   -0.097863
 109 N :   -0.081183
 110 C :   -0.104266
 111 C :   -0.081926
 112 H :    0.267555
 113 H :    0.196392
 114 H :    0.145665
 115 H :    0.249570
 116 C :   -0.012143
 117 C :    0.038053
 118 C :   -0.139583
 119 C :   -0.106731
 120 C :   -0.180751
 121 C :   -0.204887
 122 C :   -0.044492
 123 C :   -0.123818
 124 C :   -0.166745
 125 N :   -0.063593
 126 C :   -0.119011
 127 C :    0.357441
 128 H :    0.250352
 129 H :    0.230693
 130 H :    0.246378
 131 H :    0.253364
 132 H :    0.175563
 133 H :    0.158674
 134 C :   -0.176655
 135 C :   -0.115149
 136 C :   -0.163604
 137 C :   -0.121074
 138 C :   -0.067908
 139 C :   -0.132256
 140 H :    0.243482
 141 H :    0.226990
 142 H :    0.241192
 143 H :    0.211726
 144 C :   -0.112748
 145 C :   -0.061595
 146 C :   -0.099936
 147 N :   -0.081985
 148 C :   -0.106765
 149 C :   -0.071521
 150 H :    0.268320
 151 H :    0.197967
 152 H :    0.145517
 153 H :    0.245820
Sum of atomic charges:    4.0000000

LOEWDIN ATOMIC CHARGES
----------------------
   0 Pd:   -0.063220
   1 Pd:   -0.063242
   2 C :   -0.012058
   3 C :   -0.028823
   4 C :   -0.038536
   5 C :   -0.087069
   6 C :   -0.092837
   7 C :   -0.112901
   8 C :   -0.014378
   9 C :   -0.103286
  10 C :   -0.058948
  11 N :   -0.086282
  12 C :   -0.004195
  13 C :   -0.027989
  14 H :    0.197632
  15 H :    0.197475
  16 H :    0.194596
  17 H :    0.202082
  18 H :    0.183240
  19 H :    0.185449
  20 C :   -0.054761
  21 C :   -0.087293
  22 C :   -0.115289
  23 C :   -0.116088
  24 C :   -0.064679
  25 C :   -0.123157
  26 H :    0.195783
  27 H :    0.193373
  28 H :    0.184802
  29 H :    0.167838
  30 C :    0.011309
  31 C :   -0.120125
  32 C :   -0.020823
  33 N :   -0.087996
  34 C :   -0.035601
  35 C :   -0.142245
  36 H :    0.202127
  37 H :    0.190278
  38 H :    0.176884
  39 H :    0.184083
  40 C :   -0.012438
  41 C :   -0.028455
  42 C :   -0.038635
  43 C :   -0.087031
  44 C :   -0.092831
  45 C :   -0.112757
  46 C :   -0.014335
  47 C :   -0.103178
  48 C :   -0.058594
  49 N :   -0.086246
  50 C :   -0.004475
  51 C :   -0.027857
  52 H :    0.197633
  53 H :    0.197486
  54 H :    0.194625
  55 H :    0.202132
  56 H :    0.183232
  57 H :    0.185364
  58 C :   -0.054630
  59 C :   -0.087172
  60 C :   -0.115279
  61 C :   -0.116165
  62 C :   -0.064679
  63 C :   -0.123374
  64 H :    0.195838
  65 H :    0.193380
  66 H :    0.184722
  67 H :    0.167732
  68 C :    0.011307
  69 C :   -0.120181
  70 C :   -0.020842
  71 N :   -0.088025
  72 C :   -0.035502
  73 C :   -0.142159
  74 H :    0.202161
  75 H :    0.190281
  76 H :    0.177133
  77 H :    0.183432
  78 C :   -0.012025
  79 C :   -0.028873
  80 C :   -0.038533
  81 C :   -0.087018
  82 C :   -0.092834
  83 C :   -0.112886
  84 C :   -0.014375
  85 C :   -0.103258
  86 C :   -0.059020
  87 N :   -0.086265
  88 C :   -0.004225
  89 C :   -0.027983
  90 H :    0.197629
  91 H :    0.197479
  92 H :    0.194594
  93 H :    0.202080
  94 H :    0.183196
  95 H :    0.185490
  96 C :   -0.054786
  97 C :   -0.087312
  98 C :   -0.115265
  99 C :   -0.116073
 100 C :   -0.064691
 101 C :   -0.123102
 102 H :    0.195781
 103 H :    0.193373
 104 H :    0.184807
 105 H :    0.167805
 106 C :    0.011312
 107 C :   -0.120157
 108 C :   -0.020809
 109 N :   -0.088038
 110 C :   -0.035539
 111 C :   -0.142222
 112 H :    0.202117
 113 H :    0.190231
 114 H :    0.176858
 115 H :    0.184234
 116 C :   -0.012411
 117 C :   -0.028448
 118 C :   -0.038630
 119 C :   -0.087018
 120 C :   -0.092837
 121 C :   -0.112752
 122 C :   -0.014342
 123 C :   -0.103183
 124 C :   -0.058608
 125 N :   -0.086257
 126 C :   -0.004404
 127 C :   -0.027845
 128 H :    0.197636
 129 H :    0.197489
 130 H :    0.194620
 131 H :    0.202123
 132 H :    0.183195
 133 H :    0.185358
 134 C :   -0.054621
 135 C :   -0.087184
 136 C :   -0.115273
 137 C :   -0.116186
 138 C :   -0.064700
 139 C :   -0.123386
 140 H :    0.195839
 141 H :    0.193373
 142 H :    0.184718
 143 H :    0.167769
 144 C :    0.011337
 145 C :   -0.120143
 146 C :   -0.020824
 147 N :   -0.088018
 148 C :   -0.035563
 149 C :   -0.142205
 150 H :    0.202195
 151 H :    0.190311
 152 H :    0.177120
 153 H :    0.183313

  Mayer bond orders larger than 0.100000
B(  0-Pd, 33-N ) :   0.5324 B(  0-Pd, 71-N ) :   0.5306 B(  0-Pd, 87-N ) :   0.5517
B(  0-Pd,125-N ) :   0.5515 B(  1-Pd, 11-N ) :   0.5516 B(  1-Pd, 49-N ) :   0.5517
B(  1-Pd,109-N ) :   0.5327 B(  1-Pd,147-N ) :   0.5303 B(  2-C ,  3-C ) :   1.9172
B(  2-C ,  4-C ) :  -0.2710 B(  2-C , 20-C ) :   1.4934 B(  3-C ,  4-C ) :   1.3981
B(  3-C , 13-C ) :  -0.1982 B(  3-C , 20-C ) :  -0.3846 B(  3-C , 25-C ) :   0.1024
B(  4-C ,  5-C ) :   1.5259 B(  4-C , 12-C ) :  -0.1100 B(  4-C , 13-C ) :   1.0121
B(  5-C ,  6-C ) :   1.4157 B(  5-C , 14-H ) :   0.8598 B(  6-C ,  7-C ) :   1.6235
B(  6-C , 15-H ) :   0.8722 B(  7-C ,  8-C ) :   1.3547 B(  7-C , 13-C ) :  -0.1233
B(  7-C , 16-H ) :   0.8607 B(  8-C ,  9-C ) :   1.2864 B(  8-C , 12-C ) :  -0.1138
B(  8-C , 13-C ) :   1.0574 B(  9-C , 10-C ) :   1.5943 B(  9-C , 17-H ) :   0.8730
B( 10-C , 11-N ) :   1.2381 B( 10-C , 18-H ) :   0.9126 B( 11-N , 12-C ) :   1.4285
B( 12-C , 13-C ) :   1.4029 B( 12-C , 19-H ) :   0.9012 B( 20-C , 21-C ) :   1.3464
B( 20-C , 25-C ) :   1.4303 B( 21-C , 22-C ) :   1.5369 B( 21-C , 26-H ) :   0.8849
B( 22-C , 23-C ) :   1.5679 B( 22-C , 27-H ) :   0.8680 B( 23-C , 24-C ) :   1.3399
B( 23-C , 28-H ) :   0.8458 B( 24-C , 25-C ) :   1.3253 B( 24-C , 30-C ) :   1.0134
B( 25-C , 29-H ) :   0.8811 B( 30-C , 31-C ) :   1.3964 B( 30-C , 33-N ) :   0.1058
B( 30-C , 35-C ) :   1.3500 B( 31-C , 32-C ) :   1.4929 B( 31-C , 36-H ) :   0.8414
B( 32-C , 33-N ) :   1.3792 B( 32-C , 37-H ) :   0.9155 B( 33-N , 34-C ) :   1.3829
B( 34-C , 35-C ) :   1.4581 B( 34-C , 38-H ) :   0.9389 B( 35-C , 39-H ) :   0.8557
B( 40-C , 41-C ) :   1.9182 B( 40-C , 42-C ) :  -0.2719 B( 40-C , 58-C ) :   1.4908
B( 41-C , 42-C ) :   1.3983 B( 41-C , 51-C ) :  -0.1975 B( 41-C , 58-C ) :  -0.3836
B( 41-C , 63-C ) :   0.1019 B( 42-C , 43-C ) :   1.5259 B( 42-C , 50-C ) :  -0.1086
B( 42-C , 51-C ) :   1.0134 B( 43-C , 44-C ) :   1.4153 B( 43-C , 52-H ) :   0.8597
B( 44-C , 45-C ) :   1.6241 B( 44-C , 53-H ) :   0.8722 B( 45-C , 46-C ) :   1.3542
B( 45-C , 51-C ) :  -0.1230 B( 45-C , 54-H ) :   0.8606 B( 46-C , 47-C ) :   1.2878
B( 46-C , 50-C ) :  -0.1141 B( 46-C , 51-C ) :   1.0596 B( 47-C , 48-C ) :   1.5940
B( 47-C , 55-H ) :   0.8731 B( 48-C , 49-N ) :   1.2403 B( 48-C , 56-H ) :   0.9125
B( 49-N , 50-C ) :   1.4268 B( 50-C , 51-C ) :   1.4019 B( 50-C , 57-H ) :   0.9014
B( 58-C , 59-C ) :   1.3481 B( 58-C , 63-C ) :   1.4303 B( 59-C , 60-C ) :   1.5378
B( 59-C , 64-H ) :   0.8850 B( 60-C , 61-C ) :   1.5686 B( 60-C , 65-H ) :   0.8680
B( 61-C , 62-C ) :   1.3395 B( 61-C , 66-H ) :   0.8456 B( 62-C , 63-C ) :   1.3262
B( 62-C , 68-C ) :   1.0135 B( 63-C , 67-H ) :   0.8798 B( 68-C , 69-C ) :   1.3916
B( 68-C , 71-N ) :   0.1063 B( 68-C , 73-C ) :   1.3540 B( 69-C , 70-C ) :   1.4930
B( 69-C , 74-H ) :   0.8406 B( 70-C , 71-N ) :   1.3790 B( 70-C , 75-H ) :   0.9154
B( 71-N , 72-C ) :   1.3839 B( 72-C , 73-C ) :   1.4544 B( 72-C , 76-H ) :   0.9391
B( 73-C , 77-H ) :   0.8577 B( 78-C , 79-C ) :   1.9173 B( 78-C , 80-C ) :  -0.2708
B( 78-C , 96-C ) :   1.4936 B( 79-C , 80-C ) :   1.3982 B( 79-C , 89-C ) :  -0.1985
B( 79-C , 96-C ) :  -0.3847 B( 79-C ,101-C ) :   0.1024 B( 80-C , 81-C ) :   1.5261
B( 80-C , 88-C ) :  -0.1101 B( 80-C , 89-C ) :   1.0121 B( 81-C , 82-C ) :   1.4157
B( 81-C , 90-H ) :   0.8599 B( 82-C , 83-C ) :   1.6235 B( 82-C , 91-H ) :   0.8722
B( 83-C , 84-C ) :   1.3549 B( 83-C , 89-C ) :  -0.1233 B( 83-C , 92-H ) :   0.8607
B( 84-C , 85-C ) :   1.2865 B( 84-C , 88-C ) :  -0.1137 B( 84-C , 89-C ) :   1.0572
B( 85-C , 86-C ) :   1.5946 B( 85-C , 93-H ) :   0.8730 B( 86-C , 87-N ) :   1.2381
B( 86-C , 94-H ) :   0.9126 B( 87-N , 88-C ) :   1.4283 B( 88-C , 89-C ) :   1.4022
B( 88-C , 95-H ) :   0.9015 B( 96-C , 97-C ) :   1.3460 B( 96-C ,100-C ) :   0.1004
B( 96-C ,101-C ) :   1.4303 B( 97-C , 98-C ) :   1.5369 B( 97-C ,102-H ) :   0.8849
B( 98-C , 99-C ) :   1.5676 B( 98-C ,103-H ) :   0.8679 B( 99-C ,100-C ) :   1.3399
B( 99-C ,104-H ) :   0.8458 B(100-C ,101-C ) :   1.3248 B(100-C ,106-C ) :   1.0135
B(101-C ,105-H ) :   0.8815 B(106-C ,107-C ) :   1.3963 B(106-C ,109-N ) :   0.1057
B(106-C ,111-C ) :   1.3501 B(107-C ,108-C ) :   1.4929 B(107-C ,112-H ) :   0.8415
B(108-C ,109-N ) :   1.3788 B(108-C ,113-H ) :   0.9156 B(109-N ,110-C ) :   1.3827
B(110-C ,111-C ) :   1.4585 B(110-C ,114-H ) :   0.9388 B(111-C ,115-H ) :   0.8557
B(116-C ,117-C ) :   1.9181 B(116-C ,118-C ) :  -0.2720 B(116-C ,134-C ) :   1.4909
B(117-C ,118-C ) :   1.3978 B(117-C ,127-C ) :  -0.1967 B(117-C ,134-C ) :  -0.3834
B(117-C ,139-C ) :   0.1020 B(118-C ,119-C ) :   1.5258 B(118-C ,126-C ) :  -0.1090
B(118-C ,127-C ) :   1.0137 B(119-C ,120-C ) :   1.4154 B(119-C ,128-H ) :   0.8598
B(120-C ,121-C ) :   1.6241 B(120-C ,129-H ) :   0.8722 B(121-C ,122-C ) :   1.3542
B(121-C ,127-C ) :  -0.1231 B(121-C ,130-H ) :   0.8606 B(122-C ,123-C ) :   1.2875
B(122-C ,126-C ) :  -0.1138 B(122-C ,127-C ) :   1.0594 B(123-C ,124-C ) :   1.5941
B(123-C ,131-H ) :   0.8731 B(124-C ,125-N ) :   1.2398 B(124-C ,132-H ) :   0.9126
B(125-N ,126-C ) :   1.4271 B(126-C ,127-C ) :   1.4026 B(126-C ,133-H ) :   0.9012
B(134-C ,135-C ) :   1.3481 B(134-C ,139-C ) :   1.4307 B(135-C ,136-C ) :   1.5378
B(135-C ,140-H ) :   0.8849 B(136-C ,137-C ) :   1.5686 B(136-C ,141-H ) :   0.8681
B(137-C ,138-C ) :   1.3398 B(137-C ,142-H ) :   0.8457 B(138-C ,139-C ) :   1.3265
B(138-C ,144-C ) :   1.0133 B(139-C ,143-H ) :   0.8794 B(144-C ,145-C ) :   1.3917
B(144-C ,147-N ) :   0.1063 B(144-C ,149-C ) :   1.3538 B(145-C ,146-C ) :   1.4927
B(145-C ,150-H ) :   0.8406 B(146-C ,147-N ) :   1.3793 B(146-C ,151-H ) :   0.9153
B(147-N ,148-C ) :   1.3836 B(148-C ,149-C ) :   1.4540 B(148-C ,152-H ) :   0.9394
B(149-C ,153-H ) :   0.8577

Dispersion correction           -0.590568931
FINAL SINGLE POINT ENERGY     -4078.547041991511

DIPOLE MOMENT
-------------
                                X             Y             Z
Electronic contribution:     -0.49974       0.01087       0.09862
Nuclear contribution   :      0.50324      -0.01147      -0.09552
                        -----------------------------------------
Total Dipole Moment    :      0.00350      -0.00060       0.00310
                        -----------------------------------------
Magnitude (a.u.)       :      0.00472
Magnitude (Debye)      :      0.01199

Rotational constants in cm-1:     0.000680     0.000373     0.000358
Rotational constants in MHz :    20.384374    11.189231    10.733663

                             ****ORCA TERMINATED NORMALLY****
TOTAL RUN TIME: 0 days 0 hours 8 minutes 55 seconds 0 msec
