                         Program Version 4.2.1 -  RELEASE  -
|  1> ! DFT SP B97-3c TightSCF printbasis  Grid6 NOFINALGRID SlowConv
|  2>
|  3> %base "_s_4d2_d_B97-3c"
|  4> %maxcore 3000
|  5> %scf
|  6>    MaxIter 2000
|  7> end
|  8> %pal
|  9>    nprocs 32
| 10> end
| 11>
| 12> * xyzfile 4 1 s_4d2_d.xyz
| 13>
| 14>                          ****END OF INPUT****

CARTESIAN COORDINATES (ANGSTROEM)
---------------------------------
  Pd     0.097500    4.090200    0.490700
  Pd     0.360900   -5.556700    0.184900
  C      6.131900   -2.844100    0.198400
  C      5.945100   -4.031600    0.335100
  C      5.877400   -5.431900    0.476500
  C      7.055100   -6.145400    0.618000
  C      7.048800   -7.538200    0.739800
  C      5.870500   -8.241800    0.714300
  C      4.649100   -7.559900    0.569600
  C      3.405800   -8.230900    0.524800
  C      2.251700   -7.518100    0.380000
  N      2.253600   -6.162700    0.284900
  C      3.391600   -5.500600    0.323400
  C      4.636900   -6.138600    0.456300
  H      7.994500   -5.614300    0.633400
  H      7.987500   -8.059100    0.850200
  H      5.867100   -9.316900    0.801000
  H      3.383400   -9.306200    0.603200
  H      1.278700   -8.013400    0.322500
  H      3.346900   -4.418700    0.251700
  C      6.285900   -1.455300   -0.006400
  C      7.499300   -0.935300   -0.467100
  C      7.615800    0.423600   -0.698600
  C      6.542500    1.273600   -0.489000
  C      5.324300    0.768500   -0.028700
  C      5.212200   -0.598300    0.222100
  H      8.335100   -1.594500   -0.644300
  H      8.552300    0.824400   -1.055700
  H      6.648000    2.322900   -0.715200
  H      4.304800   -1.010000    0.632400
  C      4.156900    1.634300    0.160900
  C      2.867800    1.124800   -0.053200
  C      1.769000    1.925200    0.154500
  N      1.888900    3.212500    0.519500
  C      3.103300    3.728100    0.705500
  C      4.252400    2.972100    0.553400
  H      2.734600    0.115400   -0.406400
  H      0.752100    1.538800    0.030400
  H      3.151100    4.770600    0.997100
  H      5.211400    3.423000    0.750300
  C      0.457400    1.350200    6.250700
  C      0.314400    2.538500    6.075300
  C      0.173700    3.938600    6.018100
  C      0.090800    4.648700    7.203500
  C     -0.025400    6.041800    7.207400
  C     -0.054000    6.748200    6.030800
  C      0.026500    6.068900    4.802300
  C      0.006500    6.743900    3.560300
  C      0.073700    6.032700    2.398400
  N      0.158500    4.675600    2.391400
  C      0.196800    4.010400    3.527400
  C      0.135600    4.647400    4.779700
  H      0.117200    4.114400    8.140900
  H     -0.088800    6.560400    8.151700
  H     -0.137700    7.823600    6.034200
  H     -0.064700    7.819800    3.545200
  H      0.054000    6.530400    1.424300
  H      0.282900    2.930200    3.472700
  C      0.693800   -0.033400    6.400200
  C      1.168300   -0.538900    7.614600
  C      1.453100   -1.887400    7.727300
  C      1.286800   -2.738500    6.647700
  C      0.807800   -2.249200    5.429300
  C      0.497800   -0.893800    5.322900
  H      1.316300    0.124600    8.452700
  H      1.821700   -2.278200    8.663600
  H      1.562300   -3.776100    6.749900
  H      0.072400   -0.492900    4.417000
  C      0.677300   -3.121700    4.259300
  C      0.418700   -4.492000    4.355200
  C      0.340300   -5.260100    3.207600
  N      0.482800   -4.732300    1.993600
  C      0.714400   -3.415100    1.871700
  C      0.830900   -2.594200    2.968500
  H      0.265900   -4.961000    5.313400
  H      0.160500   -6.327000    3.260000
  H      0.802700   -3.024700    0.851400
  H      1.059100   -1.550100    2.833400
  C     -4.673200   -1.902200   -2.234400
  C     -4.582600   -3.061600   -1.899200
  C     -4.766100   -4.412400   -1.544800
  C     -5.959600   -5.006000   -1.925500
  C     -6.275900   -6.314200   -1.552700
  C     -5.405500   -7.052100   -0.789900
  C     -4.172300   -6.500200   -0.403300
  C     -3.233500   -7.229200    0.360900
  C     -2.019200   -6.680900    0.644700
  N     -1.669400   -5.433800    0.217000
  C     -2.544300   -4.699900   -0.441100
  C     -3.824000   -5.170800   -0.787900
  H     -6.664100   -4.435000   -2.510200
  H     -7.219200   -6.736900   -1.862400
  H     -5.651100   -8.057000   -0.485100
  H     -3.484300   -8.222400    0.698300
  H     -1.280000   -7.220700    1.245600
  H     -2.231400   -3.703900   -0.730000
  C     -4.850900   -0.527300   -2.498100
  C     -5.796900   -0.109500   -3.439300
  C     -6.049800    1.239900   -3.600800
  C     -5.389000    2.182100   -2.830500
  C     -4.436000    1.780900   -1.892500
  C     -4.159300    0.421100   -1.750600
  H     -6.331700   -0.840800   -4.025100
  H     -6.785400    1.562500   -4.321800
  H     -5.643900    3.224200   -2.938500
  H     -3.408300    0.079000   -1.057200
  C     -3.707900    2.741100   -1.059500
  C     -3.425300    4.047700   -1.468800
  C     -2.538500    4.816800   -0.736800
  N     -1.937100    4.363500    0.364600
  C     -2.325100    3.170900    0.860000
  C     -3.206500    2.350600    0.191700
  H     -3.841800    4.445700   -2.379400
  H     -2.270000    5.816100   -1.052700
  H     -1.947600    2.899700    1.847100
  H     -3.499200    1.412200    0.634000
  C     -2.260800    0.529100   -4.620800
  C     -1.944500    1.693400   -4.524600
  C     -1.595000    3.048700   -4.683600
  C     -1.957800    3.663600   -5.871500
  C     -1.580000    4.977700   -6.157300
  C     -0.826600    5.699000   -5.264700
  C     -0.456700    5.125400   -4.036300
  C      0.304800    5.830700   -3.077100
  C      0.573700    5.258200   -1.870600
  N      0.125000    4.011900   -1.547000
  C     -0.530700    3.299500   -2.441500
  C     -0.853500    3.792200   -3.717400
  H     -2.531400    3.106000   -6.595700
  H     -1.876600    5.418100   -7.096700
  H     -0.515900    6.706900   -5.490000
  H      0.655300    6.824200   -3.307700
  H      1.181100    5.769100   -1.116700
  H     -0.838400    2.303100   -2.148400
  C     -2.521100   -0.845300   -4.809200
  C     -3.444200   -1.253300   -5.777500
  C     -3.612000   -2.600500   -6.037500
  C     -2.866600   -3.550800   -5.360000
  C     -1.946600   -3.160000   -4.385500
  C     -1.796100   -1.801800   -4.104300
  H     -4.011900   -0.515600   -6.322900
  H     -4.318800   -2.915000   -6.790100
  H     -2.979200   -4.591600   -5.618300
  H     -1.115800   -1.469200   -3.337100
  C     -1.143000   -4.132700   -3.640700
  C      0.108500   -3.767000   -3.121600
  C      0.749000   -4.601100   -2.232200
  N      0.224000   -5.782600   -1.848800
  C     -0.878300   -6.213800   -2.464800
  C     -1.581600   -5.430700   -3.362800
  H      0.572300   -2.837300   -3.409500
  H      1.739500   -4.353600   -1.846100
  H     -1.219300   -7.206100   -2.200300
  H     -2.494000   -5.811000   -3.791800

 Total Charge           Charge          ....    4
 Multiplicity           Mult            ....    1
 Number of Electrons    NEL             ....  672
 Basis Dimension        Dim             .... 2058

ORBITAL ENERGIES
----------------

  NO   OCC          E(Eh)            E(eV)
   0   2.0000     -14.353322      -390.5738
   1   2.0000     -14.352573      -390.5534
   2   2.0000     -14.342304      -390.2739
   3   2.0000     -14.342191      -390.2708
   4   2.0000     -14.340902      -390.2358
   5   2.0000     -14.340884      -390.2353
   6   2.0000     -14.332503      -390.0072
   7   2.0000     -14.331293      -389.9743
   8   2.0000     -10.252309      -278.9795
   9   2.0000     -10.251893      -278.9682
  10   2.0000     -10.247543      -278.8498
  11   2.0000     -10.247070      -278.8370
  12   2.0000     -10.246766      -278.8287
  13   2.0000     -10.246595      -278.8240
  14   2.0000     -10.244632      -278.7706
  15   2.0000     -10.243764      -278.7470
  16   2.0000     -10.239018      -278.6178
  17   2.0000     -10.238941      -278.6158
  18   2.0000     -10.238737      -278.6102
  19   2.0000     -10.238464      -278.6028
  20   2.0000     -10.233598      -278.4704
  21   2.0000     -10.233523      -278.4683
  22   2.0000     -10.227786      -278.3122
  23   2.0000     -10.227008      -278.2910
  24   2.0000     -10.226577      -278.2793
  25   2.0000     -10.226382      -278.2740
  26   2.0000     -10.224674      -278.2275
  27   2.0000     -10.224444      -278.2213
  28   2.0000     -10.214234      -277.9434
  29   2.0000     -10.213858      -277.9332
  30   2.0000     -10.213660      -277.9278
  31   2.0000     -10.213549      -277.9248
  32   2.0000     -10.213120      -277.9131
  33   2.0000     -10.212897      -277.9071
  34   2.0000     -10.209044      -277.8022
  35   2.0000     -10.208864      -277.7973
  36   2.0000     -10.208428      -277.7854
  37   2.0000     -10.208133      -277.7774
  38   2.0000     -10.206802      -277.7412
  39   2.0000     -10.205965      -277.7184
  40   2.0000     -10.205668      -277.7103
  41   2.0000     -10.205459      -277.7047
  42   2.0000     -10.202887      -277.6347
  43   2.0000     -10.202374      -277.6207
  44   2.0000     -10.201108      -277.5863
  45   2.0000     -10.200888      -277.5803
  46   2.0000     -10.200483      -277.5692
  47   2.0000     -10.200422      -277.5676
  48   2.0000     -10.200373      -277.5663
  49   2.0000     -10.200068      -277.5580
  50   2.0000     -10.197554      -277.4895
  51   2.0000     -10.197071      -277.4764
  52   2.0000     -10.195617      -277.4368
  53   2.0000     -10.195441      -277.4321
  54   2.0000     -10.191574      -277.3268
  55   2.0000     -10.191434      -277.3230
  56   2.0000     -10.191054      -277.3127
  57   2.0000     -10.190598      -277.3003
  58   2.0000     -10.189750      -277.2772
  59   2.0000     -10.189042      -277.2579
  60   2.0000     -10.187755      -277.2229
  61   2.0000     -10.187319      -277.2111
  62   2.0000     -10.185647      -277.1656
  63   2.0000     -10.185112      -277.1510
  64   2.0000     -10.181102      -277.0419
  65   2.0000     -10.180624      -277.0289
  66   2.0000     -10.180520      -277.0260
  67   2.0000     -10.180269      -277.0192
  68   2.0000     -10.180053      -277.0133
  69   2.0000     -10.179461      -276.9972
  70   2.0000     -10.179283      -276.9924
  71   2.0000     -10.179256      -276.9916
  72   2.0000     -10.178851      -276.9806
  73   2.0000     -10.178346      -276.9669
  74   2.0000     -10.178266      -276.9647
  75   2.0000     -10.178245      -276.9641
  76   2.0000     -10.175300      -276.8840
  77   2.0000     -10.174727      -276.8684
  78   2.0000     -10.172675      -276.8126
  79   2.0000     -10.171995      -276.7940
  80   2.0000     -10.171839      -276.7898
  81   2.0000     -10.171173      -276.7717
  82   2.0000     -10.170648      -276.7574
  83   2.0000     -10.170627      -276.7568
  84   2.0000     -10.168510      -276.6992
  85   2.0000     -10.168181      -276.6903
  86   2.0000     -10.167949      -276.6840
  87   2.0000     -10.167906      -276.6828
  88   2.0000     -10.167438      -276.6700
  89   2.0000     -10.167384      -276.6686
  90   2.0000     -10.167092      -276.6606
  91   2.0000     -10.165994      -276.6308
  92   2.0000     -10.164106      -276.5794
  93   2.0000     -10.162979      -276.5487
  94   2.0000     -10.161229      -276.5011
  95   2.0000     -10.160377      -276.4779
  96   2.0000      -3.657368       -99.5220
  97   2.0000      -3.656949       -99.5106
  98   2.0000      -2.389251       -65.0148
  99   2.0000      -2.389134       -65.0116
 100   2.0000      -2.386072       -64.9283
 101   2.0000      -2.385220       -64.9051
 102   2.0000      -2.346590       -63.8539
 103   2.0000      -2.346147       -63.8419
 104   2.0000      -1.212854       -33.0034
 105   2.0000      -1.212646       -32.9978
 106   2.0000      -1.204616       -32.7793
 107   2.0000      -1.204543       -32.7773
 108   2.0000      -1.197357       -32.5818
 109   2.0000      -1.197219       -32.5780
 110   2.0000      -1.197018       -32.5725
 111   2.0000      -1.196647       -32.5624
 112   2.0000      -1.093439       -29.7540
 113   2.0000      -1.092528       -29.7292
 114   2.0000      -1.090264       -29.6676
 115   2.0000      -1.089581       -29.6490
 116   2.0000      -1.086023       -29.5522
 117   2.0000      -1.085148       -29.5284
 118   2.0000      -1.080897       -29.4127
 119   2.0000      -1.080376       -29.3985
 120   2.0000      -1.054905       -28.7054
 121   2.0000      -1.053513       -28.6675
 122   2.0000      -1.052578       -28.6421
 123   2.0000      -1.051867       -28.6228
 124   2.0000      -1.034674       -28.1549
 125   2.0000      -1.034189       -28.1417
 126   2.0000      -1.024137       -27.8682
 127   2.0000      -1.023637       -27.8546
 128   2.0000      -1.021680       -27.8013
 129   2.0000      -1.021321       -27.7916
 130   2.0000      -1.013758       -27.5858
 131   2.0000      -1.013367       -27.5751
 132   2.0000      -1.005034       -27.3484
 133   2.0000      -1.004129       -27.3237
 134   2.0000      -1.002908       -27.2905
 135   2.0000      -1.002643       -27.2833
 136   2.0000      -0.994724       -27.0678
 137   2.0000      -0.994049       -27.0494
 138   2.0000      -0.993163       -27.0253
 139   2.0000      -0.992515       -27.0077
 140   2.0000      -0.985353       -26.8128
 141   2.0000      -0.983933       -26.7742
 142   2.0000      -0.975336       -26.5402
 143   2.0000      -0.974721       -26.5235
 144   2.0000      -0.972160       -26.4538
 145   2.0000      -0.971181       -26.4272
 146   2.0000      -0.965680       -26.2775
 147   2.0000      -0.964940       -26.2573
 148   2.0000      -0.940301       -25.5869
 149   2.0000      -0.939745       -25.5718
 150   2.0000      -0.930212       -25.3123
 151   2.0000      -0.929447       -25.2915
 152   2.0000      -0.903937       -24.5974
 153   2.0000      -0.903736       -24.5919
 154   2.0000      -0.900639       -24.5076
 155   2.0000      -0.900027       -24.4910
 156   2.0000      -0.896734       -24.4014
 157   2.0000      -0.896378       -24.3917
 158   2.0000      -0.891185       -24.2504
 159   2.0000      -0.890856       -24.2414
 160   2.0000      -0.889467       -24.2036
 161   2.0000      -0.889019       -24.1914
 162   2.0000      -0.887583       -24.1524
 163   2.0000      -0.887143       -24.1404
 164   2.0000      -0.878805       -23.9135
 165   2.0000      -0.877936       -23.8899
 166   2.0000      -0.868785       -23.6408
 167   2.0000      -0.868127       -23.6229
 168   2.0000      -0.863389       -23.4940
 169   2.0000      -0.862671       -23.4745
 170   2.0000      -0.853800       -23.2331
 171   2.0000      -0.853050       -23.2127
 172   2.0000      -0.841007       -22.8850
 173   2.0000      -0.840497       -22.8711
 174   2.0000      -0.832639       -22.6573
 175   2.0000      -0.832115       -22.6430
 176   2.0000      -0.831525       -22.6270
 177   2.0000      -0.830598       -22.6017
 178   2.0000      -0.829049       -22.5596
 179   2.0000      -0.828552       -22.5460
 180   2.0000      -0.803412       -21.8619
 181   2.0000      -0.799973       -21.7684
 182   2.0000      -0.798119       -21.7179
 183   2.0000      -0.795921       -21.6581
 184   2.0000      -0.789053       -21.4712
 185   2.0000      -0.787119       -21.4186
 186   2.0000      -0.781343       -21.2614
 187   2.0000      -0.780503       -21.2386
 188   2.0000      -0.777182       -21.1482
 189   2.0000      -0.776503       -21.1297
 190   2.0000      -0.768562       -20.9136
 191   2.0000      -0.768163       -20.9028
 192   2.0000      -0.763119       -20.7655
 193   2.0000      -0.763031       -20.7631
 194   2.0000      -0.761729       -20.7277
 195   2.0000      -0.760987       -20.7075
 196   2.0000      -0.756055       -20.5733
 197   2.0000      -0.755788       -20.5660
 198   2.0000      -0.755276       -20.5521
 199   2.0000      -0.754604       -20.5338
 200   2.0000      -0.749465       -20.3940
 201   2.0000      -0.749187       -20.3864
 202   2.0000      -0.745046       -20.2737
 203   2.0000      -0.744517       -20.2593
 204   2.0000      -0.737366       -20.0648
 205   2.0000      -0.737125       -20.0582
 206   2.0000      -0.735341       -20.0096
 207   2.0000      -0.734689       -19.9919
 208   2.0000      -0.726959       -19.7815
 209   2.0000      -0.726420       -19.7669
 210   2.0000      -0.719754       -19.5855
 211   2.0000      -0.719225       -19.5711
 212   2.0000      -0.717982       -19.5373
 213   2.0000      -0.716789       -19.5048
 214   2.0000      -0.709746       -19.3132
 215   2.0000      -0.709424       -19.3044
 216   2.0000      -0.709052       -19.2943
 217   2.0000      -0.708212       -19.2714
 218   2.0000      -0.706827       -19.2337
 219   2.0000      -0.705508       -19.1979
 220   2.0000      -0.703995       -19.1567
 221   2.0000      -0.702523       -19.1166
 222   2.0000      -0.701989       -19.1021
 223   2.0000      -0.701472       -19.0880
 224   2.0000      -0.700631       -19.0651
 225   2.0000      -0.700294       -19.0560
 226   2.0000      -0.699691       -19.0396
 227   2.0000      -0.697984       -18.9931
 228   2.0000      -0.696821       -18.9615
 229   2.0000      -0.694782       -18.9060
 230   2.0000      -0.692913       -18.8551
 231   2.0000      -0.692259       -18.8373
 232   2.0000      -0.689593       -18.7648
 233   2.0000      -0.688105       -18.7243
 234   2.0000      -0.686743       -18.6872
 235   2.0000      -0.684925       -18.6378
 236   2.0000      -0.683172       -18.5900
 237   2.0000      -0.681726       -18.5507
 238   2.0000      -0.681456       -18.5434
 239   2.0000      -0.680316       -18.5123
 240   2.0000      -0.679449       -18.4888
 241   2.0000      -0.677918       -18.4471
 242   2.0000      -0.672545       -18.3009
 243   2.0000      -0.671206       -18.2644
 244   2.0000      -0.670500       -18.2452
 245   2.0000      -0.669613       -18.2211
 246   2.0000      -0.669473       -18.2173
 247   2.0000      -0.668841       -18.2001
 248   2.0000      -0.663343       -18.0505
 249   2.0000      -0.662683       -18.0325
 250   2.0000      -0.659822       -17.9547
 251   2.0000      -0.659582       -17.9481
 252   2.0000      -0.656052       -17.8521
 253   2.0000      -0.655786       -17.8448
 254   2.0000      -0.646317       -17.5872
 255   2.0000      -0.645720       -17.5709
 256   2.0000      -0.645437       -17.5632
 257   2.0000      -0.640584       -17.4312
 258   2.0000      -0.639902       -17.4126
 259   2.0000      -0.637434       -17.3455
 260   2.0000      -0.636393       -17.3171
 261   2.0000      -0.635902       -17.3038
 262   2.0000      -0.634392       -17.2627
 263   2.0000      -0.632205       -17.2032
 264   2.0000      -0.631691       -17.1892
 265   2.0000      -0.631003       -17.1705
 266   2.0000      -0.628433       -17.1005
 267   2.0000      -0.624317       -16.9885
 268   2.0000      -0.623609       -16.9693
 269   2.0000      -0.621628       -16.9154
 270   2.0000      -0.620429       -16.8827
 271   2.0000      -0.617497       -16.8029
 272   2.0000      -0.615127       -16.7385
 273   2.0000      -0.614997       -16.7349
 274   2.0000      -0.603390       -16.4191
 275   2.0000      -0.602956       -16.4073
 276   2.0000      -0.601715       -16.3735
 277   2.0000      -0.601517       -16.3681
 278   2.0000      -0.601013       -16.3544
 279   2.0000      -0.597635       -16.2625
 280   2.0000      -0.597058       -16.2468
 281   2.0000      -0.595879       -16.2147
 282   2.0000      -0.594855       -16.1868
 283   2.0000      -0.594116       -16.1667
 284   2.0000      -0.592263       -16.1163
 285   2.0000      -0.591471       -16.0947
 286   2.0000      -0.589097       -16.0301
 287   2.0000      -0.588321       -16.0090
 288   2.0000      -0.587720       -15.9927
 289   2.0000      -0.587509       -15.9869
 290   2.0000      -0.584267       -15.8987
 291   2.0000      -0.583364       -15.8741
 292   2.0000      -0.580377       -15.7929
 293   2.0000      -0.579440       -15.7674
 294   2.0000      -0.577994       -15.7280
 295   2.0000      -0.576963       -15.7000
 296   2.0000      -0.574215       -15.6252
 297   2.0000      -0.572631       -15.5821
 298   2.0000      -0.568488       -15.4693
 299   2.0000      -0.566939       -15.4272
 300   2.0000      -0.560416       -15.2497
 301   2.0000      -0.558748       -15.2043
 302   2.0000      -0.557080       -15.1589
 303   2.0000      -0.556446       -15.1417
 304   2.0000      -0.555470       -15.1151
 305   2.0000      -0.553241       -15.0545
 306   2.0000      -0.551772       -15.0145
 307   2.0000      -0.549219       -14.9450
 308   2.0000      -0.547594       -14.9008
 309   2.0000      -0.546955       -14.8834
 310   2.0000      -0.544068       -14.8048
 311   2.0000      -0.540018       -14.6946
 312   2.0000      -0.539474       -14.6798
 313   2.0000      -0.538186       -14.6448
 314   2.0000      -0.530458       -14.4345
 315   2.0000      -0.530124       -14.4254
 316   2.0000      -0.527746       -14.3607
 317   2.0000      -0.525200       -14.2914
 318   2.0000      -0.520531       -14.1644
 319   2.0000      -0.520186       -14.1550
 320   2.0000      -0.517290       -14.0762
 321   2.0000      -0.515474       -14.0268
 322   2.0000      -0.514788       -14.0081
 323   2.0000      -0.512103       -13.9350
 324   2.0000      -0.511547       -13.9199
 325   2.0000      -0.510483       -13.8910
 326   2.0000      -0.507543       -13.8109
 327   2.0000      -0.501709       -13.6522
 328   2.0000      -0.501273       -13.6403
 329   2.0000      -0.500736       -13.6257
 330   2.0000      -0.499840       -13.6013
 331   2.0000      -0.498774       -13.5723
 332   2.0000      -0.473409       -12.8821
 333   2.0000      -0.472912       -12.8686
 334   2.0000      -0.463193       -12.6041
 335   2.0000      -0.462139       -12.5754
 336   0.0000      -0.415240       -11.2992
 337   0.0000      -0.412949       -11.2369
 338   0.0000      -0.390618       -10.6293
 339   0.0000      -0.390106       -10.6153
 340   0.0000      -0.382731       -10.4146

MULLIKEN ATOMIC CHARGES
-----------------------
   0 Pd:   -0.004192
   1 Pd:   -0.021447
   2 C :    0.020822
   3 C :   -0.001896
   4 C :   -0.156883
   5 C :   -0.087153
   6 C :   -0.182909
   7 C :   -0.206904
   8 C :   -0.059649
   9 C :   -0.074843
  10 C :   -0.164288
  11 N :   -0.064232
  12 C :   -0.093187
  13 C :    0.319962
  14 H :    0.252727
  15 H :    0.231756
  16 H :    0.248690
  17 H :    0.255228
  18 H :    0.176437
  19 H :    0.171543
  20 C :   -0.196294
  21 C :   -0.115877
  22 C :   -0.157718
  23 C :   -0.131772
  24 C :   -0.064303
  25 C :   -0.131893
  26 H :    0.244258
  27 H :    0.226446
  28 H :    0.235526
  29 H :    0.232470
  30 C :   -0.123345
  31 C :   -0.035764
  32 C :   -0.109494
  33 N :   -0.134106
  34 C :   -0.112576
  35 C :   -0.045934
  36 H :    0.228790
  37 H :    0.151245
  38 H :    0.209570
  39 H :    0.269433
  40 C :    0.024242
  41 C :   -0.009218
  42 C :   -0.155395
  43 C :   -0.086852
  44 C :   -0.182634
  45 C :   -0.206664
  46 C :   -0.061517
  47 C :   -0.069199
  48 C :   -0.158668
  49 N :   -0.091033
  50 C :   -0.102738
  51 C :    0.334472
  52 H :    0.252341
  53 H :    0.231920
  54 H :    0.248230
  55 H :    0.256331
  56 H :    0.175200
  57 H :    0.177146
  58 C :   -0.182176
  59 C :   -0.121177
  60 C :   -0.159485
  61 C :   -0.133345
  62 C :   -0.072716
  63 C :   -0.116682
  64 H :    0.243519
  65 H :    0.225977
  66 H :    0.232789
  67 H :    0.225143
  68 C :   -0.113581
  69 C :   -0.053927
  70 C :   -0.092247
  71 N :   -0.128500
  72 C :   -0.125962
  73 C :   -0.008688
  74 H :    0.269099
  75 H :    0.198188
  76 H :    0.149875
  77 H :    0.225346
  78 C :    0.025488
  79 C :   -0.091263
  80 C :   -0.194742
  81 C :   -0.100268
  82 C :   -0.202347
  83 C :   -0.201687
  84 C :   -0.051698
  85 C :   -0.155109
  86 C :   -0.128140
  87 N :   -0.077769
  88 C :   -0.031600
  89 C :    0.267714
  90 H :    0.245914
  91 H :    0.233470
  92 H :    0.251260
  93 H :    0.257454
  94 H :    0.179260
  95 H :    0.183622
  96 C :   -0.043234
  97 C :   -0.137055
  98 C :   -0.156276
  99 C :   -0.114231
 100 C :   -0.053142
 101 C :   -0.176580
 102 H :    0.227254
 103 H :    0.225190
 104 H :    0.242580
 105 H :    0.221411
 106 C :   -0.134472
 107 C :   -0.008659
 108 C :   -0.130417
 109 N :   -0.089609
 110 C :   -0.077940
 111 C :   -0.078359
 112 H :    0.229538
 113 H :    0.204714
 114 H :    0.176717
 115 H :    0.247982
 116 C :    0.025740
 117 C :   -0.079836
 118 C :   -0.198897
 119 C :   -0.099378
 120 C :   -0.200520
 121 C :   -0.202868
 122 C :   -0.048040
 123 C :   -0.148885
 124 C :   -0.129921
 125 N :   -0.085725
 126 C :   -0.013069
 127 C :    0.246497
 128 H :    0.246476
 129 H :    0.233536
 130 H :    0.251514
 131 H :    0.257215
 132 H :    0.185082
 133 H :    0.179316
 134 C :   -0.049685
 135 C :   -0.141031
 136 C :   -0.156369
 137 C :   -0.115559
 138 C :   -0.040174
 139 C :   -0.174658
 140 H :    0.228226
 141 H :    0.225478
 142 H :    0.243407
 143 H :    0.215843
 144 C :   -0.140430
 145 C :   -0.080504
 146 C :   -0.082872
 147 N :   -0.082659
 148 C :   -0.130127
 149 C :   -0.014659
 150 H :    0.244999
 151 H :    0.175241
 152 H :    0.206198
 153 H :    0.230470
Sum of atomic charges:    4.0000000

LOEWDIN ATOMIC CHARGES
----------------------
   0 Pd:   -0.107693
   1 Pd:   -0.108033
   2 C :   -0.007915
   3 C :   -0.033671
   4 C :   -0.038374
   5 C :   -0.085752
   6 C :   -0.091726
   7 C :   -0.111591
   8 C :   -0.014084
   9 C :   -0.100777
  10 C :   -0.053436
  11 N :   -0.076722
  12 C :   -0.010055
  13 C :   -0.028377
  14 H :    0.198139
  15 H :    0.197906
  16 H :    0.195078
  17 H :    0.202879
  18 H :    0.192134
  19 H :    0.184901
  20 C :   -0.056310
  21 C :   -0.087606
  22 C :   -0.115576
  23 C :   -0.114954
  24 C :   -0.064382
  25 C :   -0.122831
  26 H :    0.195709
  27 H :    0.193138
  28 H :    0.184225
  29 H :    0.171904
  30 C :    0.011314
  31 C :   -0.142721
  32 C :   -0.036373
  33 N :   -0.078936
  34 C :   -0.016946
  35 C :   -0.119428
  36 H :    0.184570
  37 H :    0.183313
  38 H :    0.194110
  39 H :    0.203509
  40 C :   -0.007264
  41 C :   -0.033234
  42 C :   -0.038004
  43 C :   -0.085694
  44 C :   -0.091212
  45 C :   -0.111882
  46 C :   -0.014099
  47 C :   -0.101036
  48 C :   -0.054602
  49 N :   -0.079088
  50 C :   -0.010063
  51 C :   -0.029061
  52 H :    0.198152
  53 H :    0.197966
  54 H :    0.195036
  55 H :    0.202859
  56 H :    0.192409
  57 H :    0.188244
  58 C :   -0.055557
  59 C :   -0.086849
  60 C :   -0.115983
  61 C :   -0.114693
  62 C :   -0.063882
  63 C :   -0.120417
  64 H :    0.195544
  65 H :    0.192942
  66 H :    0.183576
  67 H :    0.172236
  68 C :    0.012075
  69 C :   -0.118908
  70 C :   -0.016037
  71 N :   -0.075995
  72 C :   -0.038637
  73 C :   -0.140182
  74 H :    0.203029
  75 H :    0.190953
  76 H :    0.183943
  77 H :    0.184901
  78 C :   -0.001744
  79 C :   -0.039469
  80 C :   -0.041403
  81 C :   -0.091633
  82 C :   -0.094879
  83 C :   -0.113261
  84 C :   -0.018526
  85 C :   -0.108408
  86 C :   -0.059694
  87 N :   -0.086104
  88 C :   -0.002307
  89 C :   -0.037791
  90 H :    0.196009
  91 H :    0.198147
  92 H :    0.195806
  93 H :    0.202705
  94 H :    0.191797
  95 H :    0.188361
  96 C :   -0.061508
  97 C :   -0.097248
  98 C :   -0.121658
  99 C :   -0.110024
 100 C :   -0.059352
 101 C :   -0.115608
 102 H :    0.190850
 103 H :    0.190959
 104 H :    0.185774
 105 H :    0.174526
 106 C :    0.006494
 107 C :   -0.128367
 108 C :   -0.015454
 109 N :   -0.094736
 110 C :   -0.027648
 111 C :   -0.145764
 112 H :    0.197008
 113 H :    0.192529
 114 H :    0.188683
 115 H :    0.192733
 116 C :   -0.001896
 117 C :   -0.039334
 118 C :   -0.041204
 119 C :   -0.091741
 120 C :   -0.094636
 121 C :   -0.113355
 122 C :   -0.018332
 123 C :   -0.108048
 124 C :   -0.057680
 125 N :   -0.086769
 126 C :   -0.004947
 127 C :   -0.037555
 128 H :    0.196124
 129 H :    0.198188
 130 H :    0.195844
 131 H :    0.202850
 132 H :    0.194737
 133 H :    0.186610
 134 C :   -0.061701
 135 C :   -0.097244
 136 C :   -0.121656
 137 C :   -0.109989
 138 C :   -0.059006
 139 C :   -0.115695
 140 H :    0.190941
 141 H :    0.191111
 142 H :    0.185944
 143 H :    0.173701
 144 C :    0.006681
 145 C :   -0.145786
 146 C :   -0.028923
 147 N :   -0.093739
 148 C :   -0.015109
 149 C :   -0.127627
 150 H :    0.191781
 151 H :    0.187107
 152 H :    0.193241
 153 H :    0.197272

  Mayer bond orders larger than 0.100000
B(  0-Pd, 33-N ) :   0.5534 B(  0-Pd, 49-N ) :   0.5437 B(  0-Pd,109-N ) :   0.5667
B(  0-Pd,125-N ) :   0.5078 B(  1-Pd, 11-N ) :   0.5439 B(  1-Pd, 71-N ) :   0.5593
B(  1-Pd, 87-N ) :   0.5207 B(  1-Pd,147-N ) :   0.5694 B(  2-C ,  3-C ) :   1.8959
B(  2-C ,  4-C ) :  -0.2819 B(  2-C , 13-C ) :   0.1080 B(  2-C , 20-C ) :   1.5196
B(  3-C ,  4-C ) :   1.4311 B(  3-C ,  8-C ) :   0.1095 B(  3-C , 13-C ) :  -0.2169
B(  3-C , 20-C ) :  -0.3824 B(  3-C , 25-C ) :   0.1006 B(  4-C ,  5-C ) :   1.5458
B(  4-C , 12-C ) :  -0.1226 B(  4-C , 13-C ) :   1.0144 B(  5-C ,  6-C ) :   1.4253
B(  5-C , 14-H ) :   0.8539 B(  6-C ,  7-C ) :   1.6237 B(  6-C , 15-H ) :   0.8702
B(  7-C ,  8-C ) :   1.3675 B(  7-C , 13-C ) :  -0.1288 B(  7-C , 16-H ) :   0.8574
B(  8-C ,  9-C ) :   1.2640 B(  8-C , 10-C ) :   0.1073 B(  8-C , 12-C ) :  -0.1223
B(  8-C , 13-C ) :   1.0436 B(  9-C , 10-C ) :   1.5420 B(  9-C , 17-H ) :   0.8734
B( 10-C , 11-N ) :   1.1925 B( 10-C , 18-H ) :   0.9262 B( 11-N , 12-C ) :   1.4625
B( 12-C , 13-C ) :   1.4741 B( 12-C , 19-H ) :   0.8534 B( 20-C , 21-C ) :   1.3661
B( 20-C , 25-C ) :   1.4513 B( 21-C , 22-C ) :   1.5370 B( 21-C , 26-H ) :   0.8809
B( 22-C , 23-C ) :   1.5776 B( 22-C , 27-H ) :   0.8698 B( 23-C , 24-C ) :   1.3513
B( 23-C , 28-H ) :   0.8508 B( 24-C , 25-C ) :   1.3329 B( 24-C , 30-C ) :   1.0112
B( 25-C , 29-H ) :   0.8541 B( 30-C , 31-C ) :   1.3295 B( 30-C , 33-N ) :   0.1016
B( 30-C , 35-C ) :   1.3784 B( 31-C , 32-C ) :   1.4577 B( 31-C , 36-H ) :   0.8625
B( 32-C , 33-N ) :   1.3356 B( 32-C , 37-H ) :   0.9466 B( 33-N , 34-C ) :   1.4045
B( 34-C , 35-C ) :   1.4640 B( 34-C , 38-H ) :   0.9087 B( 35-C , 39-H ) :   0.8539
B( 40-C , 41-C ) :   1.9078 B( 40-C , 42-C ) :  -0.2884 B( 40-C , 51-C ) :   0.1108
B( 40-C , 58-C ) :   1.5032 B( 41-C , 42-C ) :   1.4375 B( 41-C , 46-C ) :   0.1098
B( 41-C , 51-C ) :  -0.2117 B( 41-C , 58-C ) :  -0.3684 B( 41-C , 63-C ) :   0.1005
B( 42-C , 43-C ) :   1.5369 B( 42-C , 50-C ) :  -0.1290 B( 42-C , 51-C ) :   1.0135
B( 43-C , 44-C ) :   1.4258 B( 43-C , 52-H ) :   0.8541 B( 44-C , 45-C ) :   1.6216
B( 44-C , 53-H ) :   0.8700 B( 45-C , 46-C ) :   1.3708 B( 45-C , 51-C ) :  -0.1295
B( 45-C , 54-H ) :   0.8573 B( 46-C , 47-C ) :   1.2545 B( 46-C , 48-C ) :   0.1115
B( 46-C , 50-C ) :  -0.1145 B( 46-C , 51-C ) :   1.0384 B( 47-C , 48-C ) :   1.5469
B( 47-C , 55-H ) :   0.8709 B( 48-C , 49-N ) :   1.1826 B( 48-C , 56-H ) :   0.9260
B( 49-N , 50-C ) :   1.4637 B( 50-C , 51-C ) :   1.4330 B( 50-C , 57-H ) :   0.8746
B( 58-C , 59-C ) :   1.3627 B( 58-C , 63-C ) :   1.4410 B( 59-C , 60-C ) :   1.5405
B( 59-C , 64-H ) :   0.8825 B( 60-C , 61-C ) :   1.5812 B( 60-C , 65-H ) :   0.8696
B( 61-C , 62-C ) :   1.3436 B( 61-C , 66-H ) :   0.8499 B( 62-C , 63-C ) :   1.3256
B( 62-C , 68-C ) :   1.0254 B( 63-C , 67-H ) :   0.8558 B( 68-C , 69-C ) :   1.3736
B( 68-C , 71-N ) :   0.1038 B( 68-C , 73-C ) :   1.3329 B( 69-C , 70-C ) :   1.4869
B( 69-C , 74-H ) :   0.8496 B( 70-C , 71-N ) :   1.4095 B( 70-C , 75-H ) :   0.9058
B( 71-N , 72-C ) :   1.3208 B( 72-C , 73-C ) :   1.4443 B( 72-C , 76-H ) :   0.9453
B( 73-C , 77-H ) :   0.8611 B( 78-C , 79-C ) :   1.9140 B( 78-C , 80-C ) :  -0.3697
B( 78-C , 89-C ) :   0.1681 B( 78-C , 96-C ) :   1.4251 B( 79-C , 80-C ) :   1.5718
B( 79-C , 84-C ) :   0.1317 B( 79-C , 89-C ) :  -0.2795 B( 79-C , 96-C ) :  -0.2484
B( 80-C , 81-C ) :   1.5576 B( 80-C , 88-C ) :  -0.1220 B( 80-C , 89-C ) :   0.9706
B( 81-C , 82-C ) :   1.4256 B( 81-C , 90-H ) :   0.8687 B( 82-C , 83-C ) :   1.6141
B( 82-C , 91-H ) :   0.8699 B( 83-C , 84-C ) :   1.3774 B( 83-C , 89-C ) :  -0.1345
B( 83-C , 92-H ) :   0.8603 B( 84-C , 85-C ) :   1.2935 B( 84-C , 88-C ) :  -0.1396
B( 84-C , 89-C ) :   1.0036 B( 85-C , 86-C ) :   1.6042 B( 85-C , 93-H ) :   0.8655
B( 86-C , 87-N ) :   1.1835 B( 86-C , 94-H ) :   0.8995 B( 87-N , 88-C ) :   1.5226
B( 88-C , 89-C ) :   1.4213 B( 88-C , 95-H ) :   0.8649 B( 96-C , 97-C ) :   1.3499
B( 96-C ,101-C ) :   1.4695 B( 96-C ,134-C ) :   0.1348 B( 97-C , 98-C ) :   1.5238
B( 97-C ,101-C ) :  -0.1032 B( 97-C ,102-H ) :   0.8845 B( 98-C , 99-C ) :   1.5348
B( 98-C ,103-H ) :   0.8683 B( 99-C ,100-C ) :   1.3514 B( 99-C ,104-H ) :   0.8589
B(100-C ,101-C ) :   1.3145 B(100-C ,106-C ) :   1.0130 B(101-C ,105-H ) :   0.8606
B(106-C ,107-C ) :   1.3747 B(106-C ,109-N ) :   0.1205 B(106-C ,111-C ) :   1.3007
B(107-C ,108-C ) :   1.4118 B(107-C ,112-H ) :   0.8563 B(108-C ,109-N ) :   1.4462
B(108-C ,113-H ) :   0.9213 B(109-N ,110-C ) :   1.2809 B(110-C ,111-C ) :   1.4448
B(110-C ,114-H ) :   0.9103 B(111-C ,115-H ) :   0.8808 B(116-C ,117-C ) :   1.8997
B(116-C ,118-C ) :  -0.3780 B(116-C ,127-C ) :   0.1650 B(116-C ,134-C ) :   1.4324
B(117-C ,118-C ) :   1.5748 B(117-C ,122-C ) :   0.1344 B(117-C ,127-C ) :  -0.2801
B(117-C ,134-C ) :  -0.2626 B(118-C ,119-C ) :   1.5535 B(118-C ,126-C ) :  -0.1229
B(118-C ,127-C ) :   0.9776 B(119-C ,120-C ) :   1.4247 B(119-C ,128-H ) :   0.8680
B(120-C ,121-C ) :   1.6152 B(120-C ,129-H ) :   0.8699 B(121-C ,122-C ) :   1.3770
B(121-C ,127-C ) :  -0.1345 B(121-C ,130-H ) :   0.8590 B(122-C ,123-C ) :   1.2891
B(122-C ,126-C ) :  -0.1535 B(122-C ,127-C ) :   1.0142 B(123-C ,124-C ) :   1.5882
B(123-C ,131-H ) :   0.8680 B(124-C ,125-N ) :   1.1903 B(124-C ,132-H ) :   0.9029
B(125-N ,126-C ) :   1.5156 B(126-C ,127-C ) :   1.4493 B(126-C ,133-H ) :   0.8478
B(134-C ,135-C ) :   1.3501 B(134-C ,139-C ) :   1.4613 B(135-C ,136-C ) :   1.5256
B(135-C ,139-C ) :  -0.1022 B(135-C ,140-H ) :   0.8849 B(136-C ,137-C ) :   1.5359
B(136-C ,141-H ) :   0.8680 B(137-C ,138-C ) :   1.3518 B(137-C ,142-H ) :   0.8574
B(138-C ,139-C ) :   1.3209 B(138-C ,144-C ) :   1.0072 B(139-C ,143-H ) :   0.8635
B(144-C ,145-C ) :   1.3061 B(144-C ,147-N ) :   0.1223 B(144-C ,149-C ) :   1.3817
B(145-C ,146-C ) :   1.4425 B(145-C ,150-H ) :   0.8828 B(146-C ,147-N ) :   1.2844
B(146-C ,151-H ) :   0.9074 B(147-N ,148-C ) :   1.4496 B(148-C ,149-C ) :   1.4105
B(148-C ,152-H ) :   0.9212 B(149-C ,153-H ) :   0.8551

Dispersion correction           -0.612897172
FINAL SINGLE POINT ENERGY     -4078.485511524541

DIPOLE MOMENT
-------------
                                X             Y             Z
Electronic contribution:     29.49124      -1.78148      41.73635
Nuclear contribution   :    -29.24855       1.81365     -41.51395
                        -----------------------------------------
Total Dipole Moment    :      0.24270       0.03217       0.22240
                        -----------------------------------------
Magnitude (a.u.)       :      0.33075
Magnitude (Debye)      :      0.84070

Rotational constants in cm-1:     0.000579     0.000444     0.000351
Rotational constants in MHz :    17.369918    13.325673    10.532996

                             ****ORCA TERMINATED NORMALLY****
TOTAL RUN TIME: 0 days 0 hours 11 minutes 24 seconds 169 msec
