                         Program Version 4.2.1 -  RELEASE  -
|  1> ! DFT SP RKS PBE0 def2-SVP D3BJ Grid6 NOFINALGRID SlowConv TightSCF printbasis
|  2>
|  3> %base "_s_4d2_c_PBE0"
|  4> %maxcore 3000
|  5> %scf
|  6>    MaxIter 2000
|  7> end
|  8> %pal
|  9>    nprocs 32
| 10> end
| 11>
| 12> * xyzfile 4 1 s_4d2_c.xyz
| 13>
| 14>                          ****END OF INPUT****

CARTESIAN COORDINATES (ANGSTROEM)
---------------------------------
  Pd     0.466900    3.600700    0.244100
  Pd     1.352600   -5.611700    1.251500
  C      6.843100   -2.924200    1.129800
  C      6.759600   -4.129900    1.185100
  C      6.763000   -5.536900    1.126600
  C      7.970100   -6.211600    1.087100
  C      8.017000   -7.598100    0.907900
  C      6.866700   -8.326100    0.732000
  C      5.615700   -7.684200    0.776500
  C      4.396400   -8.369400    0.574200
  C      3.214900   -7.692900    0.660000
  N      3.162300   -6.377100    0.982600
  C      4.279500   -5.695100    1.143400
  C      5.549000   -6.280800    1.017400
  H      8.890700   -5.656100    1.180300
  H      8.977000   -8.091000    0.885200
  H      6.907900   -9.389700    0.556900
  H      4.413600   -9.423700    0.348900
  H      2.260700   -8.181400    0.473600
  H      4.189900   -4.641600    1.397100
  C      6.936000   -1.525200    0.966900
  C      8.190700   -0.910500    0.902400
  C      8.275100    0.448600    0.662100
  C      7.130800    1.206500    0.479300
  C      5.870200    0.607800    0.546500
  C      5.783500   -0.759700    0.801700
  H      9.085000   -1.500400    1.032000
  H      9.244000    0.921200    0.605900
  H      7.225100    2.256200    0.250200
  H      4.823200   -1.240200    0.898000
  C      4.647900    1.389900    0.338700
  C      4.542700    2.727600    0.733300
  C      3.348400    3.397900    0.564600
  N      2.269400    2.804600    0.045900
  C      2.357500    1.537000   -0.376100
  C      3.520700    0.810300   -0.259500
  H      5.376200    3.232800    1.193400
  H      3.233400    4.437900    0.855800
  H      1.452900    1.119200   -0.815600
  H      3.569800   -0.196900   -0.640500
  C      1.977500   -2.816600    6.633500
  C      2.002300   -4.024900    6.578300
  C      1.920300   -5.429900    6.624600
  C      2.023900   -6.077400    7.842700
  C      1.826800   -7.458600    7.945400
  C      1.491200   -8.207300    6.845000
  C      1.386000   -7.593700    5.583400
  C      1.015900   -8.300100    4.416800
  C      0.960800   -7.650600    3.218200
  N      1.297800   -6.343500    3.093500
  C      1.614400   -5.641900    4.164400
  C      1.642300   -6.197600    5.453000
  H      2.244600   -5.504400    8.730200
  H      1.918700   -7.930100    8.911900
  H      1.303300   -9.265800    6.934000
  H      0.775600   -9.348800    4.487600
  H      0.643700   -8.154800    2.307900
  H      1.874900   -4.596100    4.018000
  C      1.848200   -1.412900    6.707700
  C      1.927100   -0.768800    7.946700
  C      1.717400    0.595800    8.022900
  C      1.424400    1.330300    6.886300
  C      1.348500    0.702200    5.640500
  C      1.573200   -0.671100    5.560700
  H      2.142300   -1.340400    8.836400
  H      1.771800    1.091300    8.980300
  H      1.221500    2.385500    6.979000
  H      1.561300   -1.174600    4.607400
  C      1.020900    1.460600    4.429500
  C      1.415600    2.790900    4.253900
  C      1.122800    3.440300    3.072100
  N      0.481800    2.833100    2.069300
  C      0.061600    1.571700    2.227900
  C      0.299000    0.866000    3.385600
  H      1.969600    3.306600    5.021100
  H      1.409900    4.474300    2.904700
  H     -0.477700    1.141600    1.385100
  H     -0.082600   -0.136100    3.495300
  C     -5.023000    0.912000    0.360900
  C     -4.939100    2.117900    0.312200
  C     -4.942700    3.524600    0.378500
  C     -6.150100    4.198500    0.424800
  C     -6.197300    5.584000    0.612000
  C     -5.046900    6.311500    0.788900
  C     -3.795700    5.670600    0.737500
  C     -2.576200    6.355300    0.940200
  C     -1.394500    5.679900    0.847700
  N     -1.342100    4.365800    0.518100
  C     -2.459400    3.684100    0.356400
  C     -3.728900    4.268500    0.488700
  H     -7.070600    3.643000    0.331000
  H     -7.157400    6.076200    0.640000
  H     -5.088100    7.374100    0.970000
  H     -2.593300    7.408400    1.171000
  H     -0.440200    6.168000    1.034200
  H     -2.369800    2.632000    0.096700
  C     -5.116100   -0.487800    0.516300
  C     -6.370600   -1.103800    0.569600
  C     -6.455500   -2.464100    0.802800
  C     -5.311700   -3.222000    0.989500
  C     -4.051300   -2.622000    0.933600
  C     -3.964100   -1.253200    0.685400
  H     -7.264600   -0.514100    0.437000
  H     -7.424300   -2.937800    0.850400
  H     -5.406700   -4.272800    1.213000
  H     -3.003500   -0.771500    0.598000
  C     -2.829600   -3.403900    1.145300
  C     -2.720700   -4.739500    0.744700
  C     -1.526700   -5.409400    0.917200
  N     -0.451200   -4.817600    1.445000
  C     -0.543400   -3.552300    1.873000
  C     -1.706600   -2.826200    1.753300
  H     -3.550900   -5.243300    0.277200
  H     -1.408900   -6.447900    0.621400
  H      0.358100   -3.135800    2.320000
  H     -1.759000   -1.821200    2.139400
  C     -0.132700    0.807000   -5.143900
  C     -0.161800    2.015200   -5.087500
  C     -0.084400    3.420500   -5.132300
  C     -0.184600    4.068600   -6.350400
  C      0.008000    5.450500   -6.451200
  C      0.335800    6.199500   -5.348700
  C      0.437400    5.585300   -4.087100
  C      0.800000    6.292000   -2.918400
  C      0.852400    5.641800   -1.720100
  N      0.519500    4.333400   -1.597700
  C      0.209800    3.631500   -2.670500
  C      0.185500    4.188200   -3.958800
  H     -0.399200    3.495400   -7.239400
  H     -0.081100    5.922400   -7.417800
  H      0.520300    7.258700   -5.436000
  H      1.036900    7.341700   -2.987300
  H      1.164000    6.146500   -0.808200
  H     -0.047500    2.584800   -2.526200
  C      0.001600   -0.596200   -5.218400
  C     -0.064400   -1.239200   -6.458700
  C      0.149800   -2.603100   -6.534400
  C      0.434700   -3.338100   -5.396000
  C      0.497800   -2.711000   -4.149000
  C      0.268400   -1.338500   -4.069800
  H     -0.273200   -0.667200   -7.349700
  H      0.105300   -3.097700   -7.492800
  H      0.641400   -4.392500   -5.487900
  H      0.270300   -0.835900   -3.115900
  C      0.817500   -3.469600   -2.936000
  C      0.425400   -4.801200   -2.764600
  C      0.711300   -5.450900   -1.581300
  N      1.343000   -4.842800   -0.573200
  C      1.760300   -3.579900   -0.727200
  C      1.529300   -2.873700   -1.885900
  H     -0.121200   -5.317800   -3.536600
  H      0.426000   -6.485900   -1.416900
  H      2.291600   -3.148700    0.120200
  H      1.908100   -1.870200   -1.991700

 Total Charge           Charge          ....    4
 Multiplicity           Mult            ....    1
 Number of Electrons    NEL             ....  672
 Basis Dimension        Dim             .... 1686

ORBITAL ENERGIES
----------------

  NO   OCC          E(Eh)            E(eV)
   0   2.0000     -14.763730      -401.7415
   1   2.0000     -14.763704      -401.7408
   2   2.0000     -14.763447      -401.7338
   3   2.0000     -14.763403      -401.7326
   4   2.0000     -14.750203      -401.3734
   5   2.0000     -14.750196      -401.3732
   6   2.0000     -14.750118      -401.3711
   7   2.0000     -14.750103      -401.3707
   8   2.0000     -10.604973      -288.5760
   9   2.0000     -10.604932      -288.5749
  10   2.0000     -10.604682      -288.5681
  11   2.0000     -10.604591      -288.5656
  12   2.0000     -10.599843      -288.4364
  13   2.0000     -10.599839      -288.4363
  14   2.0000     -10.599619      -288.4303
  15   2.0000     -10.599581      -288.4293
  16   2.0000     -10.587448      -288.0991
  17   2.0000     -10.587432      -288.0987
  18   2.0000     -10.587365      -288.0968
  19   2.0000     -10.587322      -288.0957
  20   2.0000     -10.578483      -287.8552
  21   2.0000     -10.578483      -287.8551
  22   2.0000     -10.578233      -287.8483
  23   2.0000     -10.578170      -287.8466
  24   2.0000     -10.571323      -287.6603
  25   2.0000     -10.571316      -287.6601
  26   2.0000     -10.571184      -287.6565
  27   2.0000     -10.571151      -287.6557
  28   2.0000     -10.563705      -287.4530
  29   2.0000     -10.563674      -287.4522
  30   2.0000     -10.563339      -287.4431
  31   2.0000     -10.563235      -287.4402
  32   2.0000     -10.557678      -287.2890
  33   2.0000     -10.557674      -287.2889
  34   2.0000     -10.557502      -287.2842
  35   2.0000     -10.557448      -287.2828
  36   2.0000     -10.545600      -286.9604
  37   2.0000     -10.545577      -286.9598
  38   2.0000     -10.545519      -286.9582
  39   2.0000     -10.545483      -286.9572
  40   2.0000     -10.544886      -286.9409
  41   2.0000     -10.544856      -286.9401
  42   2.0000     -10.544826      -286.9393
  43   2.0000     -10.544785      -286.9382
  44   2.0000     -10.542604      -286.8788
  45   2.0000     -10.542576      -286.8781
  46   2.0000     -10.542532      -286.8769
  47   2.0000     -10.542486      -286.8756
  48   2.0000     -10.537145      -286.7303
  49   2.0000     -10.537105      -286.7292
  50   2.0000     -10.536961      -286.7253
  51   2.0000     -10.536903      -286.7237
  52   2.0000     -10.536291      -286.7070
  53   2.0000     -10.536278      -286.7067
  54   2.0000     -10.536185      -286.7042
  55   2.0000     -10.536149      -286.7032
  56   2.0000     -10.535399      -286.6828
  57   2.0000     -10.535370      -286.6820
  58   2.0000     -10.535175      -286.6767
  59   2.0000     -10.535108      -286.6749
  60   2.0000     -10.528686      -286.5001
  61   2.0000     -10.528643      -286.4989
  62   2.0000     -10.528477      -286.4944
  63   2.0000     -10.528434      -286.4932
  64   2.0000     -10.518259      -286.2164
  65   2.0000     -10.518229      -286.2155
  66   2.0000     -10.518069      -286.2112
  67   2.0000     -10.518010      -286.2096
  68   2.0000     -10.517396      -286.1929
  69   2.0000     -10.517380      -286.1924
  70   2.0000     -10.517373      -286.1923
  71   2.0000     -10.517343      -286.1915
  72   2.0000     -10.513765      -286.0941
  73   2.0000     -10.513727      -286.0931
  74   2.0000     -10.513614      -286.0900
  75   2.0000     -10.513555      -286.0884
  76   2.0000     -10.513131      -286.0768
  77   2.0000     -10.513125      -286.0767
  78   2.0000     -10.513094      -286.0758
  79   2.0000     -10.513085      -286.0756
  80   2.0000     -10.513073      -286.0753
  81   2.0000     -10.513062      -286.0750
  82   2.0000     -10.513023      -286.0739
  83   2.0000     -10.513017      -286.0737
  84   2.0000     -10.512487      -286.0593
  85   2.0000     -10.512446      -286.0582
  86   2.0000     -10.512427      -286.0577
  87   2.0000     -10.512382      -286.0565
  88   2.0000     -10.510141      -285.9955
  89   2.0000     -10.510105      -285.9945
  90   2.0000     -10.510053      -285.9931
  91   2.0000     -10.510005      -285.9918
  92   2.0000     -10.506333      -285.8919
  93   2.0000     -10.506306      -285.8911
  94   2.0000     -10.506168      -285.8874
  95   2.0000     -10.506122      -285.8861
  96   2.0000      -3.858884      -105.0056
  97   2.0000      -3.858879      -105.0054
  98   2.0000      -2.537385       -69.0458
  99   2.0000      -2.537370       -69.0454
 100   2.0000      -2.534886       -68.9777
 101   2.0000      -2.534882       -68.9776
 102   2.0000      -2.499673       -68.0196
 103   2.0000      -2.499668       -68.0194
 104   2.0000      -1.319890       -35.9160
 105   2.0000      -1.319861       -35.9152
 106   2.0000      -1.312445       -35.7134
 107   2.0000      -1.312427       -35.7130
 108   2.0000      -1.298349       -35.3299
 109   2.0000      -1.298285       -35.3281
 110   2.0000      -1.294599       -35.2278
 111   2.0000      -1.294563       -35.2269
 112   2.0000      -1.184164       -32.2227
 113   2.0000      -1.183970       -32.2175
 114   2.0000      -1.183449       -32.2033
 115   2.0000      -1.183412       -32.2023
 116   2.0000      -1.176566       -32.0160
 117   2.0000      -1.176288       -32.0084
 118   2.0000      -1.175879       -31.9973
 119   2.0000      -1.175809       -31.9954
 120   2.0000      -1.148074       -31.2407
 121   2.0000      -1.147779       -31.2326
 122   2.0000      -1.146843       -31.2072
 123   2.0000      -1.146807       -31.2062
 124   2.0000      -1.115029       -30.3415
 125   2.0000      -1.114474       -30.3264
 126   2.0000      -1.114104       -30.3163
 127   2.0000      -1.113608       -30.3028
 128   2.0000      -1.113597       -30.3025
 129   2.0000      -1.113363       -30.2961
 130   2.0000      -1.111161       -30.2362
 131   2.0000      -1.111046       -30.2331
 132   2.0000      -1.083091       -29.4724
 133   2.0000      -1.082843       -29.4656
 134   2.0000      -1.082271       -29.4501
 135   2.0000      -1.082240       -29.4492
 136   2.0000      -1.081238       -29.4220
 137   2.0000      -1.081046       -29.4168
 138   2.0000      -1.079662       -29.3791
 139   2.0000      -1.079519       -29.3752
 140   2.0000      -1.061894       -28.8956
 141   2.0000      -1.061385       -28.8818
 142   2.0000      -1.060538       -28.8587
 143   2.0000      -1.060434       -28.8559
 144   2.0000      -1.053066       -28.6554
 145   2.0000      -1.052949       -28.6522
 146   2.0000      -1.052547       -28.6412
 147   2.0000      -1.052454       -28.6387
 148   2.0000      -1.013097       -27.5678
 149   2.0000      -1.012631       -27.5551
 150   2.0000      -1.012511       -27.5518
 151   2.0000      -1.012320       -27.5466
 152   2.0000      -0.987314       -26.8662
 153   2.0000      -0.987188       -26.8628
 154   2.0000      -0.983160       -26.7531
 155   2.0000      -0.983132       -26.7524
 156   2.0000      -0.971352       -26.4318
 157   2.0000      -0.970883       -26.4191
 158   2.0000      -0.969151       -26.3720
 159   2.0000      -0.968478       -26.3536
 160   2.0000      -0.968297       -26.3487
 161   2.0000      -0.967864       -26.3369
 162   2.0000      -0.966126       -26.2896
 163   2.0000      -0.965664       -26.2771
 164   2.0000      -0.946666       -25.7601
 165   2.0000      -0.946570       -25.7575
 166   2.0000      -0.945353       -25.7244
 167   2.0000      -0.944794       -25.7091
 168   2.0000      -0.930307       -25.3150
 169   2.0000      -0.930113       -25.3097
 170   2.0000      -0.929641       -25.2968
 171   2.0000      -0.929507       -25.2932
 172   2.0000      -0.908581       -24.7238
 173   2.0000      -0.908105       -24.7108
 174   2.0000      -0.907328       -24.6897
 175   2.0000      -0.906882       -24.6775
 176   2.0000      -0.906428       -24.6652
 177   2.0000      -0.906228       -24.6597
 178   2.0000      -0.904150       -24.6032
 179   2.0000      -0.904020       -24.5996
 180   2.0000      -0.880671       -23.9643
 181   2.0000      -0.875040       -23.8111
 182   2.0000      -0.873659       -23.7735
 183   2.0000      -0.872715       -23.7478
 184   2.0000      -0.859446       -23.3867
 185   2.0000      -0.855519       -23.2799
 186   2.0000      -0.851572       -23.1724
 187   2.0000      -0.850282       -23.1373
 188   2.0000      -0.839497       -22.8439
 189   2.0000      -0.837857       -22.7993
 190   2.0000      -0.836540       -22.7634
 191   2.0000      -0.836248       -22.7555
 192   2.0000      -0.836074       -22.7507
 193   2.0000      -0.835876       -22.7453
 194   2.0000      -0.835401       -22.7324
 195   2.0000      -0.833793       -22.6887
 196   2.0000      -0.828947       -22.5568
 197   2.0000      -0.827499       -22.5174
 198   2.0000      -0.825382       -22.4598
 199   2.0000      -0.823741       -22.4151
 200   2.0000      -0.814690       -22.1688
 201   2.0000      -0.814415       -22.1614
 202   2.0000      -0.813257       -22.1298
 203   2.0000      -0.812279       -22.1032
 204   2.0000      -0.805254       -21.9121
 205   2.0000      -0.804521       -21.8921
 206   2.0000      -0.801041       -21.7974
 207   2.0000      -0.800748       -21.7894
 208   2.0000      -0.795776       -21.6542
 209   2.0000      -0.795220       -21.6390
 210   2.0000      -0.785062       -21.3626
 211   2.0000      -0.783932       -21.3319
 212   2.0000      -0.783895       -21.3309
 213   2.0000      -0.781330       -21.2611
 214   2.0000      -0.777213       -21.1491
 215   2.0000      -0.775581       -21.1046
 216   2.0000      -0.772879       -21.0311
 217   2.0000      -0.771251       -20.9868
 218   2.0000      -0.769054       -20.9270
 219   2.0000      -0.768427       -20.9100
 220   2.0000      -0.767135       -20.8748
 221   2.0000      -0.766682       -20.8625
 222   2.0000      -0.765288       -20.8246
 223   2.0000      -0.765121       -20.8200
 224   2.0000      -0.762633       -20.7523
 225   2.0000      -0.761561       -20.7231
 226   2.0000      -0.760693       -20.6995
 227   2.0000      -0.760489       -20.6940
 228   2.0000      -0.759546       -20.6683
 229   2.0000      -0.758834       -20.6489
 230   2.0000      -0.756435       -20.5837
 231   2.0000      -0.755990       -20.5715
 232   2.0000      -0.754132       -20.5210
 233   2.0000      -0.753805       -20.5121
 234   2.0000      -0.752911       -20.4877
 235   2.0000      -0.750489       -20.4218
 236   2.0000      -0.747187       -20.3320
 237   2.0000      -0.745265       -20.2797
 238   2.0000      -0.740279       -20.1440
 239   2.0000      -0.738263       -20.0892
 240   2.0000      -0.737394       -20.0655
 241   2.0000      -0.733801       -19.9678
 242   2.0000      -0.733276       -19.9535
 243   2.0000      -0.733156       -19.9502
 244   2.0000      -0.732871       -19.9424
 245   2.0000      -0.732862       -19.9422
 246   2.0000      -0.731560       -19.9068
 247   2.0000      -0.730638       -19.8817
 248   2.0000      -0.721626       -19.6364
 249   2.0000      -0.720901       -19.6167
 250   2.0000      -0.720534       -19.6067
 251   2.0000      -0.719788       -19.5864
 252   2.0000      -0.709900       -19.3174
 253   2.0000      -0.709543       -19.3076
 254   2.0000      -0.705960       -19.2102
 255   2.0000      -0.705438       -19.1959
 256   2.0000      -0.702886       -19.1265
 257   2.0000      -0.701244       -19.0818
 258   2.0000      -0.700367       -19.0580
 259   2.0000      -0.698823       -19.0159
 260   2.0000      -0.694106       -18.8876
 261   2.0000      -0.693976       -18.8840
 262   2.0000      -0.693534       -18.8720
 263   2.0000      -0.692669       -18.8485
 264   2.0000      -0.692591       -18.8463
 265   2.0000      -0.689819       -18.7709
 266   2.0000      -0.686248       -18.6737
 267   2.0000      -0.684651       -18.6303
 268   2.0000      -0.682900       -18.5827
 269   2.0000      -0.679021       -18.4771
 270   2.0000      -0.672658       -18.3040
 271   2.0000      -0.669300       -18.2126
 272   2.0000      -0.665650       -18.1133
 273   2.0000      -0.663878       -18.0651
 274   2.0000      -0.663237       -18.0476
 275   2.0000      -0.663194       -18.0464
 276   2.0000      -0.657037       -17.8789
 277   2.0000      -0.652035       -17.7428
 278   2.0000      -0.650974       -17.7139
 279   2.0000      -0.650258       -17.6944
 280   2.0000      -0.650074       -17.6894
 281   2.0000      -0.650029       -17.6882
 282   2.0000      -0.644820       -17.5464
 283   2.0000      -0.644086       -17.5265
 284   2.0000      -0.643958       -17.5230
 285   2.0000      -0.643700       -17.5160
 286   2.0000      -0.643458       -17.5094
 287   2.0000      -0.642384       -17.4802
 288   2.0000      -0.640821       -17.4376
 289   2.0000      -0.640722       -17.4349
 290   2.0000      -0.637447       -17.3458
 291   2.0000      -0.635076       -17.2813
 292   2.0000      -0.633745       -17.2451
 293   2.0000      -0.633509       -17.2387
 294   2.0000      -0.631067       -17.1722
 295   2.0000      -0.629046       -17.1172
 296   2.0000      -0.628724       -17.1084
 297   2.0000      -0.628459       -17.1012
 298   2.0000      -0.627792       -17.0831
 299   2.0000      -0.625723       -17.0268
 300   2.0000      -0.625232       -17.0134
 301   2.0000      -0.618756       -16.8372
 302   2.0000      -0.616469       -16.7750
 303   2.0000      -0.615511       -16.7489
 304   2.0000      -0.615044       -16.7362
 305   2.0000      -0.608864       -16.5680
 306   2.0000      -0.608172       -16.5492
 307   2.0000      -0.605834       -16.4856
 308   2.0000      -0.596747       -16.2383
 309   2.0000      -0.596721       -16.2376
 310   2.0000      -0.589163       -16.0319
 311   2.0000      -0.588063       -16.0020
 312   2.0000      -0.587320       -15.9818
 313   2.0000      -0.586485       -15.9591
 314   2.0000      -0.580430       -15.7943
 315   2.0000      -0.580106       -15.7855
 316   2.0000      -0.564428       -15.3589
 317   2.0000      -0.564220       -15.3532
 318   2.0000      -0.564103       -15.3500
 319   2.0000      -0.563783       -15.3413
 320   2.0000      -0.561170       -15.2702
 321   2.0000      -0.561106       -15.2685
 322   2.0000      -0.560176       -15.2432
 323   2.0000      -0.560081       -15.2406
 324   2.0000      -0.549241       -14.9456
 325   2.0000      -0.548915       -14.9367
 326   2.0000      -0.547093       -14.8872
 327   2.0000      -0.546969       -14.8838
 328   2.0000      -0.543175       -14.7805
 329   2.0000      -0.542854       -14.7718
 330   2.0000      -0.542458       -14.7610
 331   2.0000      -0.542286       -14.7564
 332   2.0000      -0.498375       -13.5615
 333   2.0000      -0.497910       -13.5488
 334   2.0000      -0.497290       -13.5319
 335   2.0000      -0.497102       -13.5268
 336   0.0000      -0.368105       -10.0167
 337   0.0000      -0.367505       -10.0003
 338   0.0000      -0.362227        -9.8567
 339   0.0000      -0.361244        -9.8299
 340   0.0000      -0.357073        -9.7164

MULLIKEN ATOMIC CHARGES
-----------------------
   0 Pd:    0.380037
   1 Pd:    0.379926
   2 C :    0.015328
   3 C :   -0.067378
   4 C :   -0.007594
   5 C :    0.028183
   6 C :    0.033362
   7 C :    0.021905
   8 C :    0.026179
   9 C :    0.001310
  10 C :    0.127233
  11 N :   -0.307093
  12 C :    0.163431
  13 C :   -0.008166
  14 H :    0.057832
  15 H :    0.080390
  16 H :    0.056443
  17 H :    0.064015
  18 H :    0.067185
  19 H :    0.042138
  20 C :   -0.046381
  21 C :    0.051989
  22 C :    0.011667
  23 C :   -0.008525
  24 C :    0.037955
  25 C :   -0.014258
  26 H :    0.057643
  27 H :    0.070600
  28 H :    0.042624
  29 H :   -0.018360
  30 C :    0.070302
  31 C :   -0.027641
  32 C :    0.150840
  33 N :   -0.317740
  34 C :    0.152066
  35 C :   -0.048505
  36 H :    0.069476
  37 H :    0.084403
  38 H :    0.057186
  39 H :    0.039875
  40 C :    0.014297
  41 C :   -0.066367
  42 C :   -0.007592
  43 C :    0.028207
  44 C :    0.033369
  45 C :    0.022054
  46 C :    0.026396
  47 C :    0.001056
  48 C :    0.127654
  49 N :   -0.306848
  50 C :    0.162517
  51 C :   -0.007782
  52 H :    0.057853
  53 H :    0.080373
  54 H :    0.056513
  55 H :    0.064095
  56 H :    0.067242
  57 H :    0.042576
  58 C :   -0.045822
  59 C :    0.051948
  60 C :    0.011837
  61 C :   -0.008914
  62 C :    0.038390
  63 C :   -0.015202
  64 H :    0.057766
  65 H :    0.070548
  66 H :    0.042492
  67 H :   -0.017830
  68 C :    0.071071
  69 C :   -0.028250
  70 C :    0.150927
  71 N :   -0.318175
  72 C :    0.152701
  73 C :   -0.047723
  74 H :    0.069547
  75 H :    0.084266
  76 H :    0.057673
  77 H :    0.037196
  78 C :    0.015396
  79 C :   -0.067506
  80 C :   -0.007629
  81 C :    0.028229
  82 C :    0.033444
  83 C :    0.021920
  84 C :    0.026256
  85 C :    0.001310
  86 C :    0.127052
  87 N :   -0.307014
  88 C :    0.163197
  89 C :   -0.008057
  90 H :    0.057819
  91 H :    0.080336
  92 H :    0.056442
  93 H :    0.064011
  94 H :    0.067170
  95 H :    0.042432
  96 C :   -0.046303
  97 C :    0.051951
  98 C :    0.011672
  99 C :   -0.008586
 100 C :    0.038099
 101 C :   -0.014224
 102 H :    0.057643
 103 H :    0.070589
 104 H :    0.042623
 105 H :   -0.018473
 106 C :    0.070103
 107 C :   -0.027627
 108 C :    0.150893
 109 N :   -0.317641
 110 C :    0.152036
 111 C :   -0.048272
 112 H :    0.069447
 113 H :    0.084321
 114 H :    0.057053
 115 H :    0.040034
 116 C :    0.014374
 117 C :   -0.066437
 118 C :   -0.007565
 119 C :    0.028166
 120 C :    0.033372
 121 C :    0.022092
 122 C :    0.026433
 123 C :    0.001034
 124 C :    0.127798
 125 N :   -0.306913
 126 C :    0.162994
 127 C :   -0.008028
 128 H :    0.057918
 129 H :    0.080381
 130 H :    0.056479
 131 H :    0.064128
 132 H :    0.067045
 133 H :    0.042294
 134 C :   -0.045886
 135 C :    0.051950
 136 C :    0.011807
 137 C :   -0.008778
 138 C :    0.038263
 139 C :   -0.015250
 140 H :    0.057775
 141 H :    0.070554
 142 H :    0.042382
 143 H :   -0.017684
 144 C :    0.071195
 145 C :   -0.028265
 146 C :    0.150787
 147 N :   -0.318175
 148 C :    0.152711
 149 C :   -0.047840
 150 H :    0.069659
 151 H :    0.084369
 152 H :    0.057748
 153 H :    0.037027
Sum of atomic charges:    4.0000000

LOEWDIN ATOMIC CHARGES
----------------------
   0 Pd:   -0.353374
   1 Pd:   -0.353420
   2 C :   -0.008058
   3 C :   -0.029563
   4 C :   -0.027042
   5 C :    0.040365
   6 C :    0.035982
   7 C :    0.012744
   8 C :    0.010247
   9 C :    0.019642
  10 C :    0.039113
  11 N :    0.060467
  12 C :    0.090738
  13 C :   -0.018896
  14 H :    0.059352
  15 H :    0.063410
  16 H :    0.056068
  17 H :    0.063364
  18 H :    0.052630
  19 H :    0.046993
  20 C :   -0.041358
  21 C :    0.042066
  22 C :    0.011498
  23 C :    0.010382
  24 C :   -0.043035
  25 C :   -0.000678
  26 H :    0.057235
  27 H :    0.058995
  28 H :    0.045082
  29 H :    0.024225
  30 C :    0.046926
  31 C :    0.001381
  32 C :    0.080297
  33 N :    0.059032
  34 C :    0.065120
  35 C :   -0.020386
  36 H :    0.061084
  37 H :    0.059571
  38 H :    0.047829
  39 H :    0.043697
  40 C :   -0.008455
  41 C :   -0.029152
  42 C :   -0.027171
  43 C :    0.040417
  44 C :    0.035991
  45 C :    0.012874
  46 C :    0.010282
  47 C :    0.019721
  48 C :    0.039481
  49 N :    0.060660
  50 C :    0.090477
  51 C :   -0.018748
  52 H :    0.059345
  53 H :    0.063395
  54 H :    0.056104
  55 H :    0.063395
  56 H :    0.052572
  57 H :    0.047014
  58 C :   -0.041203
  59 C :    0.042183
  60 C :    0.011536
  61 C :    0.010321
  62 C :   -0.043050
  63 C :   -0.000922
  64 H :    0.057297
  65 H :    0.058983
  66 H :    0.044999
  67 H :    0.024224
  68 C :    0.046902
  69 C :    0.001401
  70 C :    0.080313
  71 N :    0.059140
  72 C :    0.065108
  73 C :   -0.020556
  74 H :    0.061094
  75 H :    0.059549
  76 H :    0.048110
  77 H :    0.043187
  78 C :   -0.008025
  79 C :   -0.029615
  80 C :   -0.027045
  81 C :    0.040428
  82 C :    0.036010
  83 C :    0.012751
  84 C :    0.010249
  85 C :    0.019673
  86 C :    0.039092
  87 N :    0.060501
  88 C :    0.090723
  89 C :   -0.018889
  90 H :    0.059338
  91 H :    0.063387
  92 H :    0.056071
  93 H :    0.063360
  94 H :    0.052578
  95 H :    0.047060
  96 C :   -0.041384
  97 C :    0.042036
  98 C :    0.011531
  99 C :    0.010402
 100 C :   -0.043045
 101 C :   -0.000638
 102 H :    0.057237
 103 H :    0.058987
 104 H :    0.045078
 105 H :    0.024205
 106 C :    0.046932
 107 C :    0.001353
 108 C :    0.080272
 109 N :    0.059010
 110 C :    0.065152
 111 C :   -0.020323
 112 H :    0.061069
 113 H :    0.059563
 114 H :    0.047809
 115 H :    0.043821
 116 C :   -0.008433
 117 C :   -0.029143
 118 C :   -0.027167
 119 C :    0.040400
 120 C :    0.035974
 121 C :    0.012889
 122 C :    0.010274
 123 C :    0.019699
 124 C :    0.039433
 125 N :    0.060646
 126 C :    0.090577
 127 C :   -0.018739
 128 H :    0.059375
 129 H :    0.063407
 130 H :    0.056090
 131 H :    0.063414
 132 H :    0.052535
 133 H :    0.046953
 134 C :   -0.041190
 135 C :    0.042162
 136 C :    0.011535
 137 C :    0.010335
 138 C :   -0.043065
 139 C :   -0.000945
 140 H :    0.057305
 141 H :    0.058982
 142 H :    0.044959
 143 H :    0.024265
 144 C :    0.046931
 145 C :    0.001413
 146 C :    0.080339
 147 N :    0.059179
 148 C :    0.065049
 149 C :   -0.020584
 150 H :    0.061150
 151 H :    0.059577
 152 H :    0.048119
 153 H :    0.043046

  Mayer bond orders larger than 0.100000
B(  0-Pd, 33-N ) :   0.5394 B(  0-Pd, 71-N ) :   0.5387 B(  0-Pd, 87-N ) :   0.5675
B(  0-Pd,125-N ) :   0.5680 B(  1-Pd, 11-N ) :   0.5674 B(  1-Pd, 49-N ) :   0.5681
B(  1-Pd,109-N ) :   0.5396 B(  1-Pd,147-N ) :   0.5385 B(  2-C ,  3-C ) :   2.6050
B(  2-C , 20-C ) :   1.0018 B(  3-C ,  4-C ) :   1.0092 B(  4-C ,  5-C ) :   1.4545
B(  4-C , 13-C ) :   1.2083 B(  5-C ,  6-C ) :   1.2678 B(  5-C , 14-H ) :   0.9921
B(  6-C ,  7-C ) :   1.4535 B(  6-C , 15-H ) :   0.9805 B(  7-C ,  8-C ) :   1.2682
B(  7-C , 16-H ) :   0.9946 B(  8-C ,  9-C ) :   1.2501 B(  8-C , 13-C ) :   1.2187
B(  9-C , 10-C ) :   1.5553 B(  9-C , 17-H ) :   0.9739 B( 10-C , 11-N ) :   1.1890
B( 10-C , 18-H ) :   0.9483 B( 11-N , 12-C ) :   1.4054 B( 12-C , 13-C ) :   1.3364
B( 12-C , 19-H ) :   0.9394 B( 20-C , 21-C ) :   1.3268 B( 20-C , 25-C ) :   1.3558
B( 21-C , 22-C ) :   1.3865 B( 21-C , 26-H ) :   0.9951 B( 22-C , 23-C ) :   1.3946
B( 22-C , 27-H ) :   0.9818 B( 23-C , 24-C ) :   1.3495 B( 23-C , 28-H ) :   0.9887
B( 24-C , 25-C ) :   1.3445 B( 24-C , 30-C ) :   1.0328 B( 25-C , 29-H ) :   0.9845
B( 30-C , 31-C ) :   1.3605 B( 30-C , 35-C ) :   1.3489 B( 31-C , 32-C ) :   1.4553
B( 31-C , 36-H ) :   0.9718 B( 32-C , 33-N ) :   1.3156 B( 32-C , 37-H ) :   0.9520
B( 33-N , 34-C ) :   1.3068 B( 34-C , 35-C ) :   1.4533 B( 34-C , 38-H ) :   0.9553
B( 35-C , 39-H ) :   0.9690 B( 40-C , 41-C ) :   2.6050 B( 40-C , 58-C ) :   1.0018
B( 41-C , 42-C ) :   1.0090 B( 42-C , 43-C ) :   1.4545 B( 42-C , 51-C ) :   1.2084
B( 43-C , 44-C ) :   1.2675 B( 43-C , 52-H ) :   0.9921 B( 44-C , 45-C ) :   1.4539
B( 44-C , 53-H ) :   0.9805 B( 45-C , 46-C ) :   1.2678 B( 45-C , 54-H ) :   0.9946
B( 46-C , 47-C ) :   1.2503 B( 46-C , 51-C ) :   1.2189 B( 47-C , 48-C ) :   1.5547
B( 47-C , 55-H ) :   0.9739 B( 48-C , 49-N ) :   1.1902 B( 48-C , 56-H ) :   0.9486
B( 49-N , 50-C ) :   1.4040 B( 50-C , 51-C ) :   1.3367 B( 50-C , 57-H ) :   0.9391
B( 58-C , 59-C ) :   1.3271 B( 58-C , 63-C ) :   1.3556 B( 59-C , 60-C ) :   1.3865
B( 59-C , 64-H ) :   0.9950 B( 60-C , 61-C ) :   1.3947 B( 60-C , 65-H ) :   0.9818
B( 61-C , 62-C ) :   1.3494 B( 61-C , 66-H ) :   0.9886 B( 62-C , 63-C ) :   1.3445
B( 62-C , 68-C ) :   1.0330 B( 63-C , 67-H ) :   0.9846 B( 68-C , 69-C ) :   1.3601
B( 68-C , 73-C ) :   1.3491 B( 69-C , 70-C ) :   1.4552 B( 69-C , 74-H ) :   0.9719
B( 70-C , 71-N ) :   1.3157 B( 70-C , 75-H ) :   0.9520 B( 71-N , 72-C ) :   1.3070
B( 72-C , 73-C ) :   1.4536 B( 72-C , 76-H ) :   0.9551 B( 73-C , 77-H ) :   0.9692
B( 78-C , 79-C ) :   2.6052 B( 78-C , 96-C ) :   1.0017 B( 79-C , 80-C ) :   1.0091
B( 80-C , 81-C ) :   1.4545 B( 80-C , 89-C ) :   1.2084 B( 81-C , 82-C ) :   1.2678
B( 81-C , 90-H ) :   0.9921 B( 82-C , 83-C ) :   1.4534 B( 82-C , 91-H ) :   0.9805
B( 83-C , 84-C ) :   1.2683 B( 83-C , 92-H ) :   0.9946 B( 84-C , 85-C ) :   1.2502
B( 84-C , 89-C ) :   1.2185 B( 85-C , 86-C ) :   1.5552 B( 85-C , 93-H ) :   0.9739
B( 86-C , 87-N ) :   1.1890 B( 86-C , 94-H ) :   0.9484 B( 87-N , 88-C ) :   1.4053
B( 88-C , 89-C ) :   1.3363 B( 88-C , 95-H ) :   0.9395 B( 96-C , 97-C ) :   1.3267
B( 96-C ,101-C ) :   1.3560 B( 97-C , 98-C ) :   1.3865 B( 97-C ,102-H ) :   0.9951
B( 98-C , 99-C ) :   1.3945 B( 98-C ,103-H ) :   0.9818 B( 99-C ,100-C ) :   1.3497
B( 99-C ,104-H ) :   0.9887 B(100-C ,101-C ) :   1.3445 B(100-C ,106-C ) :   1.0328
B(101-C ,105-H ) :   0.9845 B(106-C ,107-C ) :   1.3605 B(106-C ,111-C ) :   1.3487
B(107-C ,108-C ) :   1.4554 B(107-C ,112-H ) :   0.9718 B(108-C ,109-N ) :   1.3154
B(108-C ,113-H ) :   0.9519 B(109-N ,110-C ) :   1.3069 B(110-C ,111-C ) :   1.4534
B(110-C ,114-H ) :   0.9554 B(111-C ,115-H ) :   0.9692 B(116-C ,117-C ) :   2.6050
B(116-C ,134-C ) :   1.0018 B(117-C ,118-C ) :   1.0090 B(118-C ,119-C ) :   1.4545
B(118-C ,127-C ) :   1.2084 B(119-C ,120-C ) :   1.2675 B(119-C ,128-H ) :   0.9921
B(120-C ,121-C ) :   1.4539 B(120-C ,129-H ) :   0.9805 B(121-C ,122-C ) :   1.2678
B(121-C ,130-H ) :   0.9946 B(122-C ,123-C ) :   1.2504 B(122-C ,127-C ) :   1.2188
B(123-C ,124-C ) :   1.5548 B(123-C ,131-H ) :   0.9738 B(124-C ,125-N ) :   1.1901
B(124-C ,132-H ) :   0.9485 B(125-N ,126-C ) :   1.4042 B(126-C ,127-C ) :   1.3367
B(126-C ,133-H ) :   0.9392 B(134-C ,135-C ) :   1.3271 B(134-C ,139-C ) :   1.3556
B(135-C ,136-C ) :   1.3865 B(135-C ,140-H ) :   0.9950 B(136-C ,137-C ) :   1.3947
B(136-C ,141-H ) :   0.9818 B(137-C ,138-C ) :   1.3495 B(137-C ,142-H ) :   0.9886
B(138-C ,139-C ) :   1.3444 B(138-C ,144-C ) :   1.0330 B(139-C ,143-H ) :   0.9846
B(144-C ,145-C ) :   1.3602 B(144-C ,149-C ) :   1.3492 B(145-C ,146-C ) :   1.4550
B(145-C ,150-H ) :   0.9719 B(146-C ,147-N ) :   1.3159 B(146-C ,151-H ) :   0.9521
B(147-N ,148-C ) :   1.3069 B(148-C ,149-C ) :   1.4536 B(148-C ,152-H ) :   0.9550
B(149-C ,153-H ) :   0.9691

Dispersion correction           -0.252290730
FINAL SINGLE POINT ENERGY     -4072.788990883825

DIPOLE MOMENT
-------------
                                X             Y             Z
Electronic contribution:     -0.49971       0.01075       0.09867
Nuclear contribution   :      0.50324      -0.01147      -0.09552
                        -----------------------------------------
Total Dipole Moment    :      0.00353      -0.00072       0.00316
                        -----------------------------------------
Magnitude (a.u.)       :      0.00479
Magnitude (Debye)      :      0.01218

Rotational constants in cm-1:     0.000680     0.000373     0.000358
Rotational constants in MHz :    20.384374    11.189231    10.733663

                             ****ORCA TERMINATED NORMALLY****
TOTAL RUN TIME: 0 days 0 hours 15 minutes 27 seconds 685 msec
