                         Program Version 4.2.1 -  RELEASE  -
|  1> ! DFT SP B97-3c TightSCF printbasis  Grid6 NOFINALGRID SlowConv
|  2>
|  3> %base "_s_4d2_a_B97-3c"
|  4> %maxcore 3000
|  5> %scf
|  6>    MaxIter 2000
|  7> end
|  8> %pal
|  9>    nprocs 32
| 10> end
| 11>
| 12> * xyzfile 4 1 s_4d2_a.xyz
| 13>
| 14>                          ****END OF INPUT****

CARTESIAN COORDINATES (ANGSTROEM)
---------------------------------
  Pd     0.125800    5.029500   -0.038800
  Pd    -1.973300   -4.492900    1.364700
  C      4.910400    1.238100   -0.763900
  C      4.936500    2.345300   -1.249200
  C      5.082400    3.625400   -1.815400
  C      6.263300    3.948800   -2.459900
  C      6.464300    5.219900   -3.006800
  C      5.498800    6.190300   -2.905700
  C      4.284000    5.907000   -2.256200
  C      3.261900    6.869200   -2.100200
  C      2.109200    6.536300   -1.453200
  N      1.888700    5.290200   -0.963700
  C      2.819000    4.363000   -1.089400
  C      4.052700    4.609100   -1.713600
  H      7.043000    3.206600   -2.538200
  H      7.397000    5.435600   -3.505300
  H      5.659700    7.175100   -3.315400
  H      3.406000    7.864500   -2.488800
  H      1.314100    7.262600   -1.309800
  H      2.592700    3.381700   -0.681600
  C      4.864500   -0.049300   -0.189000
  C      6.051300   -0.738400    0.080800
  C      5.997900   -2.000900    0.642800
  C      4.780200   -2.595200    0.925900
  C      3.588400   -1.914700    0.662700
  C      3.637700   -0.636000    0.112300
  H      7.001200   -0.280300   -0.148300
  H      6.914400   -2.528800    0.858300
  H      4.758800   -3.571200    1.383700
  H      2.730200   -0.106800   -0.130000
  C      2.294500   -2.531200    0.958200
  C      2.076400   -3.898000    0.762000
  C      0.841400   -4.431700    1.027100
  N     -0.169400   -3.676300    1.483900
  C      0.014400   -2.364000    1.677600
  C      1.223200   -1.765700    1.429400
  H      2.860100   -4.531700    0.379400
  H      0.611900   -5.483400    0.891400
  H     -0.846600   -1.825700    2.050300
  H      1.343800   -0.711000    1.614500
  C      2.603900    0.798700    4.645900
  C      2.649300    1.992600    4.445500
  C      2.905900    3.378600    4.524800
  C      3.719400    3.763900    5.581100
  C      4.059400    5.099100    5.802100
  C      3.593400    6.078900    4.963000
  C      2.771200    5.735500    3.876800
  C      2.275000    6.717400    2.991300
  C      1.485700    6.349900    1.945300
  N      1.145500    5.051600    1.710100
  C      1.585200    4.106800    2.520000
  C      2.408000    4.375700    3.633000
  H      4.092400    3.006600    6.253500
  H      4.691000    5.352600    6.639600
  H      3.848200    7.114700    5.123300
  H      2.528800    7.752700    3.154100
  H      1.095000    7.100100    1.253200
  H      1.275000    3.092300    2.297700
  C      2.600800   -0.586300    4.928500
  C      3.741700   -1.148000    5.514500
  C      3.754200   -2.489100    5.848000
  C      2.654500   -3.291000    5.591700
  C      1.511800   -2.746900    5.004300
  C      1.490100   -1.388600    4.683700
  H      4.605000   -0.529800    5.706800
  H      4.629600   -2.916100    6.313300
  H      2.674800   -4.330000    5.879900
  H      0.615700   -0.945100    4.235200
  C      0.361400   -3.577500    4.636300
  C      0.511900   -4.884700    4.163300
  C     -0.541700   -5.496300    3.510300
  N     -1.711300   -4.877000    3.312900
  C     -1.928800   -3.705100    3.932700
  C     -0.933500   -3.041200    4.616500
  H      1.464100   -5.386200    4.224700
  H     -0.453700   -6.491100    3.085200
  H     -2.931600   -3.288800    3.859600
  H     -1.143100   -2.097500    5.094200
  C     -5.144800    1.552200   -1.358400
  C     -5.005400    2.574500   -0.725700
  C     -5.147100    3.750900    0.042700
  C     -6.442100    4.171900    0.294700
  C     -6.705900    5.290400    1.090300
  C     -5.677300    6.006900    1.646200
  C     -4.346200    5.626500    1.400800
  C     -3.252800    6.344600    1.930000
  C     -1.978900    5.976500    1.612400
  N     -1.704900    4.916700    0.805900
  C     -2.703300    4.188300    0.333300
  C     -4.055100    4.490100    0.587400
  H     -7.265200    3.616200   -0.128000
  H     -7.730000    5.581400    1.266800
  H     -5.872400    6.866900    2.267400
  H     -3.435800    7.193100    2.569800
  H     -1.131800    6.522100    2.015700
  H     -2.442200    3.333400   -0.283500
  C     -5.336400    0.284200   -1.955800
  C     -5.798100    0.138800   -3.265200
  C     -6.057100   -1.128500   -3.758700
  C     -5.856200   -2.254100   -2.976500
  C     -5.390200   -2.122300   -1.667800
  C     -5.132200   -0.846400   -1.168800
  H     -5.962500    1.009400   -3.881300
  H     -6.427200   -1.241300   -4.766600
  H     -6.093800   -3.228300   -3.373700
  H     -4.766600   -0.711500   -0.163000
  C     -5.079600   -3.269900   -0.810500
  C     -5.189900   -3.163500    0.585200
  C     -4.548500   -4.085800    1.385100
  N     -3.831500   -5.103300    0.871700
  C     -3.915100   -5.334800   -0.445200
  C     -4.536100   -4.456100   -1.313200
  H     -5.741600   -2.351800    1.032400
  H     -4.620900   -4.052100    2.469400
  H     -3.430300   -6.235500   -0.802000
  H     -4.510400   -4.644600   -2.374100
  C      0.220100    1.693100   -5.040800
  C     -0.229200    2.808600   -5.162500
  C     -0.766100    4.102500   -5.311600
  C     -1.114600    4.584700   -6.558200
  C     -1.678100    5.857400   -6.705500
  C     -1.897100    6.663700   -5.616300
  C     -1.544200    6.218300   -4.329700
  C     -1.720700    7.007500   -3.170700
  C     -1.319400    6.532500   -1.957100
  N     -0.760400    5.302300   -1.811500
  C     -0.601300    4.525900   -2.866100
  C     -0.970300    4.924700   -4.161600
  H     -0.955000    3.968300   -7.429700
  H     -1.943000    6.201600   -7.693600
  H     -2.333800    7.643000   -5.733600
  H     -2.160900    7.987800   -3.259200
  H     -1.435900    7.121700   -1.049100
  H     -0.156400    3.550100   -2.693700
  C      0.673300    0.389700   -4.737800
  C      1.869000   -0.121000   -5.245200
  C      2.287300   -1.381100   -4.853900
  C      1.542800   -2.130400   -3.959500
  C      0.339600   -1.631800   -3.447500
  C     -0.093200   -0.372300   -3.858800
  H      2.459300    0.467100   -5.930700
  H      3.211500   -1.779300   -5.243600
  H      1.918800   -3.087900   -3.638400
  H     -1.043500    0.022000   -3.536000
  C     -0.432300   -2.377400   -2.452100
  C     -0.387100   -3.772600   -2.363000
  C     -1.054400   -4.413300   -1.346600
  N     -1.782900   -3.740100   -0.447300
  C     -1.887400   -2.407700   -0.542600
  C     -1.223700   -1.701800   -1.511800
  H      0.164500   -4.356900   -3.081200
  H     -1.038200   -5.489600   -1.219600
  H     -2.523500   -1.935000    0.198800
  H     -1.295600   -0.626600   -1.514300

 Total Charge           Charge          ....    4
 Multiplicity           Mult            ....    1
 Number of Electrons    NEL             ....  672
 Basis Dimension        Dim             .... 2058

ORBITAL ENERGIES
----------------

  NO   OCC          E(Eh)            E(eV)
   0   2.0000     -14.359684      -390.7469
   1   2.0000     -14.358549      -390.7160
   2   2.0000     -14.345527      -390.3616
   3   2.0000     -14.344486      -390.3333
   4   2.0000     -14.344350      -390.3296
   5   2.0000     -14.343539      -390.3075
   6   2.0000     -14.335075      -390.0772
   7   2.0000     -14.327421      -389.8689
   8   2.0000     -10.261458      -279.2285
   9   2.0000     -10.260129      -279.1923
  10   2.0000     -10.258814      -279.1565
  11   2.0000     -10.257778      -279.1283
  12   2.0000     -10.247192      -278.8403
  13   2.0000     -10.246853      -278.8310
  14   2.0000     -10.245868      -278.8043
  15   2.0000     -10.244834      -278.7761
  16   2.0000     -10.243981      -278.7529
  17   2.0000     -10.243804      -278.7481
  18   2.0000     -10.243795      -278.7478
  19   2.0000     -10.241411      -278.6830
  20   2.0000     -10.241371      -278.6819
  21   2.0000     -10.239321      -278.6261
  22   2.0000     -10.231940      -278.4252
  23   2.0000     -10.231586      -278.4156
  24   2.0000     -10.230586      -278.3884
  25   2.0000     -10.229843      -278.3682
  26   2.0000     -10.229474      -278.3581
  27   2.0000     -10.228791      -278.3396
  28   2.0000     -10.224704      -278.2283
  29   2.0000     -10.223140      -278.1858
  30   2.0000     -10.221106      -278.1304
  31   2.0000     -10.220145      -278.1043
  32   2.0000     -10.213503      -277.9235
  33   2.0000     -10.213114      -277.9130
  34   2.0000     -10.212847      -277.9057
  35   2.0000     -10.212795      -277.9043
  36   2.0000     -10.211650      -277.8731
  37   2.0000     -10.211118      -277.8587
  38   2.0000     -10.210776      -277.8493
  39   2.0000     -10.210436      -277.8401
  40   2.0000     -10.210139      -277.8320
  41   2.0000     -10.209492      -277.8144
  42   2.0000     -10.207782      -277.7679
  43   2.0000     -10.207363      -277.7565
  44   2.0000     -10.206962      -277.7456
  45   2.0000     -10.206690      -277.7382
  46   2.0000     -10.206335      -277.7285
  47   2.0000     -10.206023      -277.7200
  48   2.0000     -10.205874      -277.7159
  49   2.0000     -10.205150      -277.6962
  50   2.0000     -10.204172      -277.6696
  51   2.0000     -10.204029      -277.6658
  52   2.0000     -10.203417      -277.6491
  53   2.0000     -10.202225      -277.6167
  54   2.0000     -10.200817      -277.5783
  55   2.0000     -10.199428      -277.5406
  56   2.0000     -10.199372      -277.5390
  57   2.0000     -10.198966      -277.5280
  58   2.0000     -10.198709      -277.5210
  59   2.0000     -10.198659      -277.5196
  60   2.0000     -10.193475      -277.3786
  61   2.0000     -10.192760      -277.3591
  62   2.0000     -10.191503      -277.3249
  63   2.0000     -10.190422      -277.2955
  64   2.0000     -10.188634      -277.2468
  65   2.0000     -10.185079      -277.1501
  66   2.0000     -10.184418      -277.1321
  67   2.0000     -10.184343      -277.1301
  68   2.0000     -10.183763      -277.1143
  69   2.0000     -10.183496      -277.1070
  70   2.0000     -10.182704      -277.0855
  71   2.0000     -10.181514      -277.0531
  72   2.0000     -10.181130      -277.0426
  73   2.0000     -10.181087      -277.0415
  74   2.0000     -10.180627      -277.0289
  75   2.0000     -10.180546      -277.0267
  76   2.0000     -10.179979      -277.0113
  77   2.0000     -10.179772      -277.0057
  78   2.0000     -10.179733      -277.0046
  79   2.0000     -10.179609      -277.0012
  80   2.0000     -10.179435      -276.9965
  81   2.0000     -10.179279      -276.9923
  82   2.0000     -10.178764      -276.9782
  83   2.0000     -10.178543      -276.9722
  84   2.0000     -10.178160      -276.9618
  85   2.0000     -10.178010      -276.9577
  86   2.0000     -10.177895      -276.9546
  87   2.0000     -10.177651      -276.9480
  88   2.0000     -10.177373      -276.9404
  89   2.0000     -10.176976      -276.9296
  90   2.0000     -10.176757      -276.9236
  91   2.0000     -10.175583      -276.8917
  92   2.0000     -10.174921      -276.8737
  93   2.0000     -10.174886      -276.8727
  94   2.0000     -10.172958      -276.8203
  95   2.0000     -10.172489      -276.8075
  96   2.0000      -3.670947       -99.8915
  97   2.0000      -3.655898       -99.4820
  98   2.0000      -2.403708       -65.4082
  99   2.0000      -2.399349       -65.2896
 100   2.0000      -2.386848       -64.9494
 101   2.0000      -2.385436       -64.9110
 102   2.0000      -2.360325       -64.2277
 103   2.0000      -2.344054       -63.7849
 104   2.0000      -1.233008       -33.5519
 105   2.0000      -1.219085       -33.1730
 106   2.0000      -1.207844       -32.8671
 107   2.0000      -1.205233       -32.7961
 108   2.0000      -1.201124       -32.6842
 109   2.0000      -1.200402       -32.6646
 110   2.0000      -1.199412       -32.6377
 111   2.0000      -1.198753       -32.6197
 112   2.0000      -1.100788       -29.9540
 113   2.0000      -1.098974       -29.9046
 114   2.0000      -1.094097       -29.7719
 115   2.0000      -1.093475       -29.7550
 116   2.0000      -1.091622       -29.7045
 117   2.0000      -1.090935       -29.6858
 118   2.0000      -1.090327       -29.6693
 119   2.0000      -1.089738       -29.6533
 120   2.0000      -1.067318       -29.0432
 121   2.0000      -1.065168       -28.9847
 122   2.0000      -1.057884       -28.7865
 123   2.0000      -1.055589       -28.7240
 124   2.0000      -1.040616       -28.3166
 125   2.0000      -1.034243       -28.1432
 126   2.0000      -1.033389       -28.1200
 127   2.0000      -1.033114       -28.1125
 128   2.0000      -1.032836       -28.1049
 129   2.0000      -1.032375       -28.0923
 130   2.0000      -1.017904       -27.6986
 131   2.0000      -1.014070       -27.5943
 132   2.0000      -1.007374       -27.4120
 133   2.0000      -1.005692       -27.3663
 134   2.0000      -1.005278       -27.3550
 135   2.0000      -1.004080       -27.3224
 136   2.0000      -1.003472       -27.3059
 137   2.0000      -1.002231       -27.2721
 138   2.0000      -1.001575       -27.2542
 139   2.0000      -1.001046       -27.2399
 140   2.0000      -0.986599       -26.8467
 141   2.0000      -0.985401       -26.8141
 142   2.0000      -0.984746       -26.7963
 143   2.0000      -0.984328       -26.7849
 144   2.0000      -0.981262       -26.7015
 145   2.0000      -0.978955       -26.6387
 146   2.0000      -0.974585       -26.5198
 147   2.0000      -0.973720       -26.4963
 148   2.0000      -0.942478       -25.6461
 149   2.0000      -0.941220       -25.6119
 150   2.0000      -0.940662       -25.5967
 151   2.0000      -0.940466       -25.5914
 152   2.0000      -0.920314       -25.0430
 153   2.0000      -0.913600       -24.8603
 154   2.0000      -0.904722       -24.6187
 155   2.0000      -0.901462       -24.5300
 156   2.0000      -0.900885       -24.5143
 157   2.0000      -0.900473       -24.5031
 158   2.0000      -0.898596       -24.4520
 159   2.0000      -0.897527       -24.4229
 160   2.0000      -0.896900       -24.4059
 161   2.0000      -0.895873       -24.3779
 162   2.0000      -0.891214       -24.2512
 163   2.0000      -0.888618       -24.1805
 164   2.0000      -0.879582       -23.9347
 165   2.0000      -0.877995       -23.8915
 166   2.0000      -0.877525       -23.8787
 167   2.0000      -0.877157       -23.8687
 168   2.0000      -0.865810       -23.5599
 169   2.0000      -0.864208       -23.5163
 170   2.0000      -0.862655       -23.4740
 171   2.0000      -0.861896       -23.4534
 172   2.0000      -0.845909       -23.0184
 173   2.0000      -0.844713       -22.9858
 174   2.0000      -0.843501       -22.9528
 175   2.0000      -0.842332       -22.9210
 176   2.0000      -0.841750       -22.9052
 177   2.0000      -0.840735       -22.8776
 178   2.0000      -0.834380       -22.7046
 179   2.0000      -0.832612       -22.6565
 180   2.0000      -0.817020       -22.2323
 181   2.0000      -0.810796       -22.0629
 182   2.0000      -0.800454       -21.7815
 183   2.0000      -0.797846       -21.7105
 184   2.0000      -0.795675       -21.6514
 185   2.0000      -0.790252       -21.5038
 186   2.0000      -0.786647       -21.4058
 187   2.0000      -0.785164       -21.3654
 188   2.0000      -0.777752       -21.1637
 189   2.0000      -0.775908       -21.1135
 190   2.0000      -0.774999       -21.0888
 191   2.0000      -0.774017       -21.0621
 192   2.0000      -0.773763       -21.0551
 193   2.0000      -0.772994       -21.0342
 194   2.0000      -0.768630       -20.9155
 195   2.0000      -0.767112       -20.8742
 196   2.0000      -0.765445       -20.8288
 197   2.0000      -0.764364       -20.7994
 198   2.0000      -0.760097       -20.6833
 199   2.0000      -0.756136       -20.5755
 200   2.0000      -0.754179       -20.5223
 201   2.0000      -0.753751       -20.5106
 202   2.0000      -0.753491       -20.5035
 203   2.0000      -0.751660       -20.4537
 204   2.0000      -0.750864       -20.4321
 205   2.0000      -0.748233       -20.3604
 206   2.0000      -0.746432       -20.3114
 207   2.0000      -0.738003       -20.0821
 208   2.0000      -0.734644       -19.9907
 209   2.0000      -0.730415       -19.8756
 210   2.0000      -0.728199       -19.8153
 211   2.0000      -0.727165       -19.7872
 212   2.0000      -0.726603       -19.7719
 213   2.0000      -0.724215       -19.7069
 214   2.0000      -0.720558       -19.6074
 215   2.0000      -0.718504       -19.5515
 216   2.0000      -0.716720       -19.5030
 217   2.0000      -0.715478       -19.4692
 218   2.0000      -0.714276       -19.4364
 219   2.0000      -0.713399       -19.4126
 220   2.0000      -0.711382       -19.3577
 221   2.0000      -0.710248       -19.3268
 222   2.0000      -0.708892       -19.2899
 223   2.0000      -0.708047       -19.2669
 224   2.0000      -0.706676       -19.2296
 225   2.0000      -0.705777       -19.2052
 226   2.0000      -0.704041       -19.1579
 227   2.0000      -0.703698       -19.1486
 228   2.0000      -0.702377       -19.1127
 229   2.0000      -0.700720       -19.0675
 230   2.0000      -0.698207       -18.9992
 231   2.0000      -0.697107       -18.9693
 232   2.0000      -0.696731       -18.9590
 233   2.0000      -0.695327       -18.9208
 234   2.0000      -0.692986       -18.8571
 235   2.0000      -0.691676       -18.8215
 236   2.0000      -0.689876       -18.7725
 237   2.0000      -0.685283       -18.6475
 238   2.0000      -0.682753       -18.5787
 239   2.0000      -0.681618       -18.5478
 240   2.0000      -0.679739       -18.4966
 241   2.0000      -0.678980       -18.4760
 242   2.0000      -0.678624       -18.4663
 243   2.0000      -0.677939       -18.4476
 244   2.0000      -0.676198       -18.4003
 245   2.0000      -0.674920       -18.3655
 246   2.0000      -0.673387       -18.3238
 247   2.0000      -0.671759       -18.2795
 248   2.0000      -0.670577       -18.2473
 249   2.0000      -0.667952       -18.1759
 250   2.0000      -0.665335       -18.1047
 251   2.0000      -0.663993       -18.0682
 252   2.0000      -0.662532       -18.0284
 253   2.0000      -0.660112       -17.9626
 254   2.0000      -0.654367       -17.8062
 255   2.0000      -0.651752       -17.7351
 256   2.0000      -0.648864       -17.6565
 257   2.0000      -0.647750       -17.6262
 258   2.0000      -0.645549       -17.5663
 259   2.0000      -0.644484       -17.5373
 260   2.0000      -0.641824       -17.4649
 261   2.0000      -0.641511       -17.4564
 262   2.0000      -0.640425       -17.4269
 263   2.0000      -0.638370       -17.3709
 264   2.0000      -0.638258       -17.3679
 265   2.0000      -0.634434       -17.2638
 266   2.0000      -0.634030       -17.2528
 267   2.0000      -0.631687       -17.1891
 268   2.0000      -0.629992       -17.1429
 269   2.0000      -0.629125       -17.1194
 270   2.0000      -0.626522       -17.0485
 271   2.0000      -0.620082       -16.8733
 272   2.0000      -0.617758       -16.8100
 273   2.0000      -0.617092       -16.7919
 274   2.0000      -0.612996       -16.6805
 275   2.0000      -0.609821       -16.5941
 276   2.0000      -0.606990       -16.5170
 277   2.0000      -0.605655       -16.4807
 278   2.0000      -0.604364       -16.4456
 279   2.0000      -0.603501       -16.4221
 280   2.0000      -0.602664       -16.3993
 281   2.0000      -0.601934       -16.3795
 282   2.0000      -0.600853       -16.3500
 283   2.0000      -0.600006       -16.3270
 284   2.0000      -0.599687       -16.3183
 285   2.0000      -0.598877       -16.2963
 286   2.0000      -0.598573       -16.2880
 287   2.0000      -0.597688       -16.2639
 288   2.0000      -0.597387       -16.2557
 289   2.0000      -0.593032       -16.1372
 290   2.0000      -0.590782       -16.0760
 291   2.0000      -0.589386       -16.0380
 292   2.0000      -0.587977       -15.9997
 293   2.0000      -0.586052       -15.9473
 294   2.0000      -0.585082       -15.9209
 295   2.0000      -0.583049       -15.8656
 296   2.0000      -0.581310       -15.8183
 297   2.0000      -0.580476       -15.7956
 298   2.0000      -0.577229       -15.7072
 299   2.0000      -0.576730       -15.6936
 300   2.0000      -0.576110       -15.6768
 301   2.0000      -0.568531       -15.4705
 302   2.0000      -0.564665       -15.3653
 303   2.0000      -0.561016       -15.2660
 304   2.0000      -0.559301       -15.2193
 305   2.0000      -0.555490       -15.1157
 306   2.0000      -0.555380       -15.1126
 307   2.0000      -0.553256       -15.0549
 308   2.0000      -0.552995       -15.0478
 309   2.0000      -0.550532       -14.9807
 310   2.0000      -0.549307       -14.9474
 311   2.0000      -0.545950       -14.8560
 312   2.0000      -0.540222       -14.7002
 313   2.0000      -0.537411       -14.6237
 314   2.0000      -0.535352       -14.5677
 315   2.0000      -0.535146       -14.5621
 316   2.0000      -0.531999       -14.4764
 317   2.0000      -0.531423       -14.4607
 318   2.0000      -0.531003       -14.4493
 319   2.0000      -0.529499       -14.4084
 320   2.0000      -0.527504       -14.3541
 321   2.0000      -0.526144       -14.3171
 322   2.0000      -0.524228       -14.2650
 323   2.0000      -0.517561       -14.0836
 324   2.0000      -0.516507       -14.0549
 325   2.0000      -0.514811       -14.0087
 326   2.0000      -0.512137       -13.9360
 327   2.0000      -0.509905       -13.8752
 328   2.0000      -0.508880       -13.8473
 329   2.0000      -0.505345       -13.7511
 330   2.0000      -0.500013       -13.6060
 331   2.0000      -0.494839       -13.4652
 332   2.0000      -0.482135       -13.1196
 333   2.0000      -0.480629       -13.0786
 334   2.0000      -0.474888       -12.9224
 335   2.0000      -0.473893       -12.8953
 336   0.0000      -0.430731       -11.7208
 337   0.0000      -0.407461       -11.0876
 338   0.0000      -0.399341       -10.8666
 339   0.0000      -0.392385       -10.6773
 340   0.0000      -0.387214       -10.5366

MULLIKEN ATOMIC CHARGES
-----------------------
   0 Pd:    0.054882
   1 Pd:    0.047859
   2 C :    0.015695
   3 C :    0.041636
   4 C :   -0.189298
   5 C :   -0.090443
   6 C :   -0.185187
   7 C :   -0.217339
   8 C :   -0.047180
   9 C :   -0.134777
  10 C :   -0.145818
  11 N :   -0.110806
  12 C :   -0.099130
  13 C :    0.370391
  14 H :    0.251632
  15 H :    0.231784
  16 H :    0.247674
  17 H :    0.256087
  18 H :    0.186722
  19 H :    0.164762
  20 C :   -0.195553
  21 C :   -0.123364
  22 C :   -0.155466
  23 C :   -0.154270
  24 C :   -0.086155
  25 C :   -0.151233
  26 H :    0.245783
  27 H :    0.226477
  28 H :    0.237403
  29 H :    0.226424
  30 C :   -0.176527
  31 C :   -0.080420
  32 C :   -0.071154
  33 N :   -0.190189
  34 C :   -0.130372
  35 C :    0.057945
  36 H :    0.281326
  37 H :    0.222435
  38 H :    0.180805
  39 H :    0.249488
  40 C :    0.005919
  41 C :   -0.025259
  42 C :   -0.146808
  43 C :   -0.098308
  44 C :   -0.213514
  45 C :   -0.197647
  46 C :   -0.071181
  47 C :   -0.081363
  48 C :   -0.189750
  49 N :   -0.092245
  50 C :   -0.128804
  51 C :    0.407629
  52 H :    0.244077
  53 H :    0.231926
  54 H :    0.249189
  55 H :    0.255676
  56 H :    0.176500
  57 H :    0.179121
  58 C :   -0.225879
  59 C :   -0.132910
  60 C :   -0.147680
  61 C :   -0.151119
  62 C :   -0.074136
  63 C :   -0.128681
  64 H :    0.235098
  65 H :    0.227826
  66 H :    0.252132
  67 H :    0.233090
  68 C :    0.037200
  69 C :   -0.040770
  70 C :   -0.175338
  71 N :   -0.045633
  72 C :   -0.092267
  73 C :   -0.163108
  74 H :    0.239493
  75 H :    0.210837
  76 H :    0.158492
  77 H :    0.259791
  78 C :   -0.008848
  79 C :    0.017029
  80 C :   -0.197431
  81 C :   -0.086882
  82 C :   -0.213425
  83 C :   -0.187054
  84 C :   -0.027995
  85 C :   -0.184424
  86 C :   -0.118071
  87 N :   -0.076671
  88 C :   -0.096189
  89 C :    0.369884
  90 H :    0.252200
  91 H :    0.232381
  92 H :    0.249482
  93 H :    0.253224
  94 H :    0.146680
  95 H :    0.178194
  96 C :   -0.240479
  97 C :   -0.106217
  98 C :   -0.140253
  99 C :   -0.147551
 100 C :   -0.002922
 101 C :   -0.219859
 102 H :    0.237159
 103 H :    0.225959
 104 H :    0.248414
 105 H :    0.237814
 106 C :   -0.039218
 107 C :   -0.113339
 108 C :   -0.146570
 109 N :   -0.034600
 110 C :   -0.136309
 111 C :   -0.054993
 112 H :    0.265090
 113 H :    0.237513
 114 H :    0.198685
 115 H :    0.239478
 116 C :    0.018100
 117 C :    0.065432
 118 C :   -0.276145
 119 C :   -0.064727
 120 C :   -0.178430
 121 C :   -0.223045
 122 C :   -0.016206
 123 C :   -0.106289
 124 C :   -0.178979
 125 N :   -0.128267
 126 C :   -0.103599
 127 C :    0.356168
 128 H :    0.259302
 129 H :    0.233352
 130 H :    0.247938
 131 H :    0.257730
 132 H :    0.185870
 133 H :    0.177700
 134 C :   -0.203053
 135 C :   -0.097664
 136 C :   -0.171963
 137 C :   -0.137283
 138 C :   -0.090087
 139 C :   -0.144489
 140 H :    0.245894
 141 H :    0.221667
 142 H :    0.219004
 143 H :    0.264246
 144 C :   -0.140788
 145 C :   -0.049662
 146 C :   -0.122900
 147 N :   -0.164557
 148 C :   -0.123873
 149 C :    0.025466
 150 H :    0.279687
 151 H :    0.219924
 152 H :    0.160950
 153 H :    0.229563
Sum of atomic charges:    4.0000000

LOEWDIN ATOMIC CHARGES
----------------------
   0 Pd:   -0.072490
   1 Pd:   -0.068300
   2 C :   -0.013942
   3 C :   -0.028638
   4 C :   -0.040617
   5 C :   -0.089455
   6 C :   -0.094382
   7 C :   -0.112475
   8 C :   -0.015031
   9 C :   -0.105800
  10 C :   -0.061019
  11 N :   -0.082309
  12 C :   -0.003389
  13 C :   -0.029727
  14 H :    0.196787
  15 H :    0.197463
  16 H :    0.194762
  17 H :    0.201579
  18 H :    0.187310
  19 H :    0.189156
  20 C :   -0.056128
  21 C :   -0.091432
  22 C :   -0.118820
  23 C :   -0.121791
  24 C :   -0.064900
  25 C :   -0.120140
  26 H :    0.195398
  27 H :    0.192498
  28 H :    0.183554
  29 H :    0.174816
  30 C :    0.010748
  31 C :   -0.127735
  32 C :   -0.027841
  33 N :   -0.077426
  34 C :   -0.037555
  35 C :   -0.138795
  36 H :    0.202308
  37 H :    0.195783
  38 H :    0.185942
  39 H :    0.190211
  40 C :   -0.012836
  41 C :   -0.039943
  42 C :   -0.038461
  43 C :   -0.086908
  44 C :   -0.094768
  45 C :   -0.110884
  46 C :   -0.015378
  47 C :   -0.104978
  48 C :   -0.071452
  49 N :   -0.086180
  50 C :   -0.001585
  51 C :   -0.031949
  52 H :    0.195504
  53 H :    0.197841
  54 H :    0.194939
  55 H :    0.201603
  56 H :    0.189943
  57 H :    0.184458
  58 C :   -0.061369
  59 C :   -0.093424
  60 C :   -0.118945
  61 C :   -0.113182
  62 C :   -0.060350
  63 C :   -0.120920
  64 H :    0.192132
  65 H :    0.193012
  66 H :    0.188974
  67 H :    0.174454
  68 C :    0.009273
  69 C :   -0.125073
  70 C :   -0.016387
  71 N :   -0.094653
  72 C :   -0.028915
  73 C :   -0.139300
  74 H :    0.199223
  75 H :    0.196993
  76 H :    0.184931
  77 H :    0.199112
  78 C :   -0.013067
  79 C :   -0.042000
  80 C :   -0.041706
  81 C :   -0.088758
  82 C :   -0.094706
  83 C :   -0.111907
  84 C :   -0.016164
  85 C :   -0.108736
  86 C :   -0.064879
  87 N :   -0.089601
  88 C :   -0.005307
  89 C :   -0.033840
  90 H :    0.197582
  91 H :    0.197766
  92 H :    0.195056
  93 H :    0.201473
  94 H :    0.188762
  95 H :    0.186072
  96 C :   -0.065070
  97 C :   -0.098993
  98 C :   -0.117494
  99 C :   -0.111777
 100 C :   -0.059791
 101 C :   -0.123706
 102 H :    0.192012
 103 H :    0.192495
 104 H :    0.189155
 105 H :    0.176141
 106 C :    0.007185
 107 C :   -0.142638
 108 C :   -0.020068
 109 N :   -0.104074
 110 C :   -0.009119
 111 C :   -0.126173
 112 H :    0.200127
 113 H :    0.192009
 114 H :    0.191876
 115 H :    0.199056
 116 C :   -0.013589
 117 C :   -0.025418
 118 C :   -0.040974
 119 C :   -0.088164
 120 C :   -0.092765
 121 C :   -0.112773
 122 C :   -0.015437
 123 C :   -0.106282
 124 C :   -0.065746
 125 N :   -0.086053
 126 C :   -0.004357
 127 C :   -0.029494
 128 H :    0.199135
 129 H :    0.197948
 130 H :    0.194865
 131 H :    0.201795
 132 H :    0.190566
 133 H :    0.192143
 134 C :   -0.056806
 135 C :   -0.092175
 136 C :   -0.120257
 137 C :   -0.121949
 138 C :   -0.064399
 139 C :   -0.117647
 140 H :    0.195010
 141 H :    0.190533
 142 H :    0.179857
 143 H :    0.182545
 144 C :    0.010793
 145 C :   -0.122474
 146 C :   -0.030859
 147 N :   -0.081948
 148 C :   -0.035554
 149 C :   -0.132478
 150 H :    0.202532
 151 H :    0.194556
 152 H :    0.187471
 153 H :    0.187930

  Mayer bond orders larger than 0.100000
B(  0-Pd, 11-N ) :   0.5134 B(  0-Pd, 49-N ) :   0.4997 B(  0-Pd, 87-N ) :   0.5310
B(  0-Pd,125-N ) :   0.5231 B(  1-Pd, 33-N ) :   0.5237 B(  1-Pd, 71-N ) :   0.5840
B(  1-Pd,109-N ) :   0.5957 B(  1-Pd,147-N ) :   0.5550 B(  2-C ,  3-C ) :   1.8575
B(  2-C ,  4-C ) :  -0.2973 B(  2-C , 13-C ) :   0.1015 B(  2-C , 20-C ) :   1.5464
B(  2-C , 25-C ) :  -0.1156 B(  3-C ,  4-C ) :   1.4615 B(  3-C , 13-C ) :  -0.2228
B(  3-C , 20-C ) :  -0.4151 B(  3-C , 25-C ) :   0.1003 B(  4-C ,  5-C ) :   1.5407
B(  4-C , 12-C ) :  -0.1329 B(  4-C , 13-C ) :   1.0214 B(  5-C ,  6-C ) :   1.4190
B(  5-C , 14-H ) :   0.8552 B(  6-C ,  7-C ) :   1.6263 B(  6-C , 15-H ) :   0.8707
B(  7-C ,  8-C ) :   1.3729 B(  7-C , 13-C ) :  -0.1330 B(  7-C , 16-H ) :   0.8596
B(  8-C ,  9-C ) :   1.2702 B(  8-C , 12-C ) :  -0.1148 B(  8-C , 13-C ) :   1.0410
B(  9-C , 10-C ) :   1.6337 B(  9-C , 17-H ) :   0.8688 B( 10-C , 11-N ) :   1.2274
B( 10-C , 18-H ) :   0.8976 B( 11-N , 12-C ) :   1.4524 B( 12-C , 13-C ) :   1.3978
B( 12-C , 19-H ) :   0.8953 B( 20-C , 21-C ) :   1.3486 B( 20-C , 25-C ) :   1.4138
B( 21-C , 22-C ) :   1.5337 B( 21-C , 26-H ) :   0.8833 B( 22-C , 23-C ) :   1.5537
B( 22-C , 27-H ) :   0.8706 B( 23-C , 24-C ) :   1.3499 B( 23-C , 28-H ) :   0.8538
B( 24-C , 25-C ) :   1.3600 B( 24-C , 30-C ) :   1.0662 B( 25-C , 29-H ) :   0.8728
B( 30-C , 31-C ) :   1.4018 B( 30-C , 33-N ) :   0.1301 B( 30-C , 35-C ) :   1.3589
B( 31-C , 32-C ) :   1.5235 B( 31-C , 36-H ) :   0.8233 B( 32-C , 33-N ) :   1.3873
B( 32-C , 37-H ) :   0.8936 B( 33-N , 34-C ) :   1.4760 B( 34-C , 35-C ) :   1.4815
B( 34-C , 38-H ) :   0.8896 B( 35-C , 39-H ) :   0.8162 B( 40-C , 41-C ) :   1.9768
B( 40-C , 42-C ) :  -0.2335 B( 40-C , 51-C ) :   0.1343 B( 40-C , 58-C ) :   1.5831
B( 40-C , 62-C ) :   0.1044 B( 40-C , 63-C ) :  -0.1316 B( 41-C , 42-C ) :   1.4293
B( 41-C , 46-C ) :   0.1112 B( 41-C , 51-C ) :  -0.2438 B( 41-C , 58-C ) :  -0.3720
B( 41-C , 63-C ) :   0.1035 B( 42-C , 43-C ) :   1.5510 B( 42-C , 50-C ) :  -0.1304
B( 42-C , 51-C ) :   0.9644 B( 43-C , 44-C ) :   1.4448 B( 43-C , 52-H ) :   0.8645
B( 44-C , 45-C ) :   1.6120 B( 44-C , 53-H ) :   0.8697 B( 45-C , 46-C ) :   1.3814
B( 45-C , 51-C ) :  -0.1326 B( 45-C , 54-H ) :   0.8589 B( 46-C , 47-C ) :   1.2337
B( 46-C , 48-C ) :   0.1083 B( 46-C , 50-C ) :  -0.1054 B( 46-C , 51-C ) :   0.9993
B( 47-C , 48-C ) :   1.5827 B( 47-C , 55-H ) :   0.8704 B( 48-C , 49-N ) :   1.1883
B( 48-C , 56-H ) :   0.9098 B( 49-N , 50-C ) :   1.5116 B( 50-C , 51-C ) :   1.3626
B( 50-C , 57-H ) :   0.9107 B( 58-C , 59-C ) :   1.3708 B( 58-C , 63-C ) :   1.4304
B( 59-C , 60-C ) :   1.5270 B( 59-C , 64-H ) :   0.8886 B( 60-C , 61-C ) :   1.5335
B( 60-C , 65-H ) :   0.8681 B( 61-C , 62-C ) :   1.3929 B( 61-C , 66-H ) :   0.8518
B( 62-C , 63-C ) :   1.2521 B( 62-C , 68-C ) :   0.9733 B( 63-C , 67-H ) :   0.8571
B( 68-C , 69-C ) :   1.3747 B( 68-C , 71-N ) :   0.1190 B( 68-C , 73-C ) :   1.2594
B( 69-C , 70-C ) :   1.3411 B( 69-C , 74-H ) :   0.8791 B( 70-C , 71-N ) :   1.3568
B( 70-C , 75-H ) :   0.9513 B( 71-N , 72-C ) :   1.2974 B( 72-C , 73-C ) :   1.4296
B( 72-C , 76-H ) :   0.9215 B( 73-C , 77-H ) :   0.8974 B( 78-C , 79-C ) :   1.9182
B( 78-C , 80-C ) :  -0.2306 B( 78-C , 89-C ) :   0.1127 B( 78-C , 96-C ) :   1.5509
B( 78-C , 97-C ) :  -0.1054 B( 79-C , 80-C ) :   1.4480 B( 79-C , 89-C ) :  -0.2478
B( 79-C , 96-C ) :  -0.3701 B( 80-C , 81-C ) :   1.5906 B( 80-C , 89-C ) :   0.9953
B( 81-C , 82-C ) :   1.4156 B( 81-C , 90-H ) :   0.8592 B( 82-C , 83-C ) :   1.6158
B( 82-C , 91-H ) :   0.8706 B( 83-C , 84-C ) :   1.3621 B( 83-C , 89-C ) :  -0.1253
B( 83-C , 92-H ) :   0.8612 B( 84-C , 85-C ) :   1.2896 B( 84-C , 88-C ) :  -0.1140
B( 84-C , 89-C ) :   1.0155 B( 85-C , 86-C ) :   1.6245 B( 85-C , 93-H ) :   0.8751
B( 86-C , 87-N ) :   1.2178 B( 86-C , 94-H ) :   0.9081 B( 87-N , 88-C ) :   1.4999
B( 88-C , 89-C ) :   1.3859 B( 88-C , 95-H ) :   0.8871 B( 96-C , 97-C ) :   1.3795
B( 96-C ,101-C ) :   1.4689 B( 97-C , 98-C ) :   1.5111 B( 97-C ,102-H ) :   0.8802
B( 98-C , 99-C ) :   1.5409 B( 98-C ,103-H ) :   0.8693 B( 99-C ,100-C ) :   1.3882
B( 99-C ,104-H ) :   0.8571 B(100-C ,101-C ) :   1.2778 B(100-C ,106-C ) :   0.9490
B(101-C ,105-H ) :   0.8669 B(106-C ,107-C ) :   1.2748 B(106-C ,109-N ) :   0.1230
B(106-C ,111-C ) :   1.3722 B(107-C ,108-C ) :   1.3895 B(107-C ,112-H ) :   0.8863
B(108-C ,109-N ) :   1.2788 B(108-C ,113-H ) :   0.9152 B(109-N ,110-C ) :   1.3547
B(110-C ,111-C ) :   1.3524 B(110-C ,114-H ) :   0.9501 B(111-C ,115-H ) :   0.8770
B(116-C ,117-C ) :   1.9116 B(116-C ,118-C ) :  -0.2962 B(116-C ,134-C ) :   1.4909
B(117-C ,118-C ) :   1.4763 B(117-C ,119-C ) :  -0.1091 B(117-C ,127-C ) :  -0.2298
B(117-C ,134-C ) :  -0.3532 B(118-C ,119-C ) :   1.5732 B(118-C ,127-C ) :   1.0567
B(119-C ,120-C ) :   1.4051 B(119-C ,128-H ) :   0.8443 B(120-C ,121-C ) :   1.6310
B(120-C ,129-H ) :   0.8696 B(121-C ,122-C ) :   1.3806 B(121-C ,127-C ) :  -0.1277
B(121-C ,130-H ) :   0.8581 B(122-C ,123-C ) :   1.2710 B(122-C ,126-C ) :  -0.1164
B(122-C ,127-C ) :   1.0562 B(123-C ,124-C ) :   1.5703 B(123-C ,131-H ) :   0.8679
B(124-C ,125-N ) :   1.2291 B(124-C ,132-H ) :   0.9211 B(125-N ,126-C ) :   1.4849
B(126-C ,127-C ) :   1.3945 B(126-C ,133-H ) :   0.8875 B(134-C ,135-C ) :   1.3762
B(134-C ,139-C ) :   1.4442 B(135-C ,136-C ) :   1.5284 B(135-C ,140-H ) :   0.8756
B(136-C ,137-C ) :   1.5807 B(136-C ,141-H ) :   0.8741 B(137-C ,138-C ) :   1.3437
B(137-C ,142-H ) :   0.8584 B(138-C ,139-C ) :   1.3327 B(138-C ,144-C ) :   1.0943
B(139-C ,143-H ) :   0.8483 B(144-C ,145-C ) :   1.3478 B(144-C ,147-N ) :   0.1124
B(144-C ,149-C ) :   1.3583 B(145-C ,146-C ) :   1.4901 B(145-C ,150-H ) :   0.8376
B(146-C ,147-N ) :   1.3920 B(146-C ,151-H ) :   0.9017 B(147-N ,148-C ) :   1.4048
B(148-C ,149-C ) :   1.4415 B(148-C ,152-H ) :   0.9466 B(149-C ,153-H ) :   0.8354

Dispersion correction           -0.621687536
FINAL SINGLE POINT ENERGY     -4078.460307439644

DIPOLE MOMENT
-------------
                                X             Y             Z
Electronic contribution:   -116.11117     -91.34824      81.82960
Nuclear contribution   :    116.90078      92.64346     -82.19128
                        -----------------------------------------
Total Dipole Moment    :      0.78961       1.29522      -0.36168
                        -----------------------------------------
Magnitude (a.u.)       :      1.55945
Magnitude (Debye)      :      3.96380

Rotational constants in cm-1:     0.000643     0.000474     0.000397
Rotational constants in MHz :    19.290435    14.219693    11.899369

                             ****ORCA TERMINATED NORMALLY****
TOTAL RUN TIME: 0 days 0 hours 11 minutes 8 seconds 191 msec
