                         Program Version 4.2.1 -  RELEASE  -
|  1> ! DFT SP RKS PBE0 def2-SVP D3BJ Grid6 NOFINALGRID SlowConv TightSCF printbasis
|  2>
|  3> %base "_s_5a1_c_PBE0"
|  4> %maxcore 3000
|  5> %scf
|  6>    MaxIter 2000
|  7> end
|  8> %pal
|  9>    nprocs 32
| 10> end
| 11>
| 12> * xyzfile 4 1 s_5a1_c.xyz
| 13>
| 14>                          ****END OF INPUT****

CARTESIAN COORDINATES (ANGSTROEM)
---------------------------------
  Pd     0.025200    3.819000    0.112900
  Pd     0.952500   -7.675900    0.737200
  C      7.005500   -2.716500    0.826800
  C      6.847400   -3.913400    0.899500
  C      6.644000   -5.298400    1.049400
  C      7.693300   -6.133600    1.392400
  C      7.488600   -7.502100    1.602400
  C      6.238300   -8.053700    1.490800
  C      5.142900   -7.237600    1.136000
  C      3.832900   -7.739600    1.025500
  N      2.810500   -6.986300    0.678900
  C      2.996600   -5.672100    0.399600
  C      4.223600   -5.080900    0.503500
  C      5.340500   -5.848500    0.891100
  H      8.683800   -5.719500    1.505200
  H      8.332100   -8.121500    1.866100
  H      6.082900   -9.105600    1.670100
  H      3.631100   -8.787900    1.234200
  H      2.108500   -5.125200    0.090100
  H      4.358200   -4.031900    0.293600
  C      7.174700   -1.317200    0.806800
  C      8.417300   -0.762000    1.201100
  C      8.577700    0.591500    1.258500
  C      7.515500    1.462900    0.931000
  C      7.634500    2.864800    1.023200
  C      6.584800    3.682300    0.716000
  C      5.350900    3.143400    0.282700
  C      5.215600    1.776900    0.176600
  C      6.277100    0.910700    0.505800
  C      6.131700   -0.488300    0.449600
  H      9.228800   -1.424700    1.462300
  H      9.522200    1.016400    1.566200
  H      8.573400    3.285100    1.352800
  H      6.690900    4.750000    0.829200
  H      4.300400    1.339700   -0.190500
  H      5.188900   -0.909200    0.136300
  C      4.236900    4.044500   -0.041300
  C      4.449300    5.301000   -0.619300
  C      3.370600    6.126700   -0.887200
  C      2.092900    5.681600   -0.594200
  N      1.884900    4.476300   -0.060300
  C      2.915800    3.680400    0.219700
  H      5.448800    5.619400   -0.870400
  H      3.519300    7.100200   -1.325700
  H      1.213600    6.293200   -0.785400
  H      2.673900    2.727700    0.686700
  C      0.914500   -2.880200    6.917700
  C      0.991900   -4.072700    6.730800
  C      1.149200   -5.451700    6.494300
  C      1.479100   -6.312600    7.526800
  C      1.698000   -7.674500    7.290000
  C      1.609700   -8.193400    6.024000
  C      1.269100   -7.350400    4.944600
  C      1.183900   -7.817800    3.620000
  N      0.849600   -7.039700    2.612300
  C      0.557900   -5.732800    2.828700
  C      0.638700   -5.173600    4.072300
  C      1.013500   -5.968200    5.174600
  H      1.574400   -5.924000    8.529500
  H      1.950500   -8.314800    8.121300
  H      1.796600   -9.240000    5.844000
  H      1.402900   -8.859100    3.394100
  H      0.258400   -5.164400    1.950600
  H      0.420300   -4.129800    4.231100
  C      0.891100   -1.485500    7.120700
  C      1.306500   -0.958700    8.368700
  C      1.362200    0.390700    8.560600
  C      1.011500    1.286100    7.526200
  C      1.101000    2.685100    7.677200
  C      0.770100    3.526400    6.653900
  C      0.314400    3.015600    5.416100
  C      0.211200    1.652400    5.249700
  C      0.564500    0.762100    6.283100
  C      0.511100   -0.633200    6.104900
  H      1.585400   -1.639700    9.159000
  H      1.686400    0.794100    9.509100
  H      1.447400    3.083900    8.619400
  H      0.881400    4.591700    6.783500
  H     -0.172400    1.235800    4.331500
  H      0.180800   -1.032500    5.158600
  C     -0.036500    3.941900    4.331300
  C     -0.616000    5.189700    4.586200
  C     -0.911300    6.039600    3.533800
  C     -0.643800    5.626800    2.239600
  N     -0.108000    4.430000    1.991400
  C      0.198300    3.611200    2.996500
  H     -0.847100    5.482700    5.598200
  H     -1.351300    7.006800    3.715200
  H     -0.857000    6.258200    1.379500
  H      0.664800    2.667300    2.721800
  C     -6.029900   -1.134000    0.073800
  C     -5.874400    0.064600    0.025900
  C     -5.674700    1.452800   -0.097200
  C     -6.731700    2.295000   -0.396600
  C     -6.531700    3.667700   -0.581900
  C     -5.278700    4.216700   -0.490100
  C     -4.175200    3.393300   -0.179900
  C     -2.862300    3.892500   -0.093200
  N     -1.832200    3.132300    0.213100
  C     -2.012600    1.813200    0.472700
  C     -3.242100    1.224400    0.387100
  C     -4.367600    1.999600    0.041600
  H     -7.724800    1.883300   -0.494100
  H     -7.381200    4.292700   -0.811000
  H     -5.127100    5.272200   -0.651100
  H     -2.665000    4.944500   -0.286900
  H     -1.117800    1.260200    0.750500
  H     -3.372300    0.171500    0.579600
  C     -6.196700   -2.533600    0.062100
  C     -7.434100   -3.081700   -0.357700
  C     -7.591400   -4.433700   -0.447700
  C     -6.531300   -5.310700   -0.128500
  C     -6.646800   -6.710300   -0.254100
  C     -5.599400   -7.533100    0.047000
  C     -4.371700   -7.002400    0.507100
  C     -4.239800   -5.638400    0.645100
  C     -5.298700   -4.766400    0.323000
  C     -5.156200   -3.368800    0.412000
  H     -8.243900   -2.414400   -0.612600
  H     -8.531800   -4.853000   -0.775300
  H     -7.581100   -7.124300   -0.604000
  H     -5.702400   -8.598100   -0.091600
  H     -3.329600   -5.208300    1.032800
  H     -4.217800   -2.953800    0.745600
  C     -3.260700   -7.909000    0.825800
  C     -3.479000   -9.177600    1.374400
  C     -2.402900  -10.007400    1.639900
  C     -1.121900   -9.554400    1.374100
  N     -0.908600   -8.338100    0.868000
  C     -1.936800   -7.537900    0.590300
  H     -4.481400   -9.502500    1.604900
  H     -2.556000  -10.990000    2.055900
  H     -0.244200  -10.168600    1.564800
  H     -1.689900   -6.575400    0.146700
  C      0.018300   -0.984400   -6.065800
  C     -0.084900    0.205700   -5.875900
  C     -0.269400    1.580600   -5.635600
  C     -0.642100    2.433100   -6.660500
  C     -0.886000    3.790000   -6.419100
  C     -0.779100    4.312000   -5.155800
  C     -0.394800    3.477700   -4.084300
  C     -0.287200    3.948600   -2.762700
  N      0.086700    3.178700   -1.762500
  C      0.398400    1.877400   -1.984400
  C      0.300400    1.315300   -3.225500
  C     -0.115500    2.100900   -4.319400
  H     -0.751700    2.041700   -7.660600
  H     -1.172100    4.423700   -7.244400
  H     -0.984400    5.354500   -4.972000
  H     -0.521400    4.985600   -2.532400
  H      0.728700    1.316100   -1.112900
  H      0.536300    0.276000   -3.388600
  C      0.073900   -2.377700   -6.271700
  C     -0.313900   -2.910800   -7.525900
  C     -0.336800   -4.260600   -7.721300
  C      0.020600   -5.150300   -6.684300
  C     -0.035600   -6.550700   -6.839200
  C      0.300000   -7.386700   -5.813100
  C      0.727200   -6.868800   -4.568100
  C      0.798300   -5.504000   -4.397900
  C      0.439500   -4.619500   -5.434400
  C      0.459900   -3.223700   -5.252900
  H     -0.598000   -2.234400   -8.318300
  H     -0.639600   -4.669000   -8.674700
  H     -0.360300   -6.955000   -7.786800
  H      0.214000   -8.453900   -5.946300
  H      1.160000   -5.081000   -3.473800
  H      0.768400   -2.819400   -4.301400
  C      1.081900   -7.789600   -3.479800
  C      1.690500   -9.024800   -3.728200
  C      1.986800   -9.870800   -2.672900
  C      1.691300   -9.466300   -1.382300
  N      1.128200   -8.281000   -1.140000
  C      0.820700   -7.466300   -2.148200
  H      1.942800   -9.311000   -4.737100
  H      2.449000  -10.828600   -2.849400
  H      1.904100  -10.095100   -0.520300
  H      0.331000   -6.532700   -1.878800

 Total Charge           Charge          ....    4
 Multiplicity           Mult            ....    1
 Number of Electrons    NEL             ....  776
 Basis Dimension        Dim             .... 1950

ORBITAL ENERGIES
----------------

  NO   OCC          E(Eh)            E(eV)
   0   2.0000     -14.743233      -401.1838
   1   2.0000     -14.743232      -401.1837
   2   2.0000     -14.743185      -401.1825
   3   2.0000     -14.743176      -401.1822
   4   2.0000     -14.741636      -401.1403
   5   2.0000     -14.741633      -401.1402
   6   2.0000     -14.741560      -401.1382
   7   2.0000     -14.741557      -401.1382
   8   2.0000     -10.580297      -287.9045
   9   2.0000     -10.580294      -287.9044
  10   2.0000     -10.580280      -287.9041
  11   2.0000     -10.580266      -287.9037
  12   2.0000     -10.572441      -287.6908
  13   2.0000     -10.572441      -287.6907
  14   2.0000     -10.572417      -287.6901
  15   2.0000     -10.572403      -287.6897
  16   2.0000     -10.570491      -287.6377
  17   2.0000     -10.570487      -287.6376
  18   2.0000     -10.570441      -287.6363
  19   2.0000     -10.570433      -287.6361
  20   2.0000     -10.568160      -287.5743
  21   2.0000     -10.568154      -287.5741
  22   2.0000     -10.568114      -287.5730
  23   2.0000     -10.568113      -287.5730
  24   2.0000     -10.540666      -286.8261
  25   2.0000     -10.540659      -286.8259
  26   2.0000     -10.540635      -286.8253
  27   2.0000     -10.540631      -286.8251
  28   2.0000     -10.538692      -286.7724
  29   2.0000     -10.538680      -286.7721
  30   2.0000     -10.538670      -286.7718
  31   2.0000     -10.538666      -286.7717
  32   2.0000     -10.535279      -286.6795
  33   2.0000     -10.535271      -286.6793
  34   2.0000     -10.535267      -286.6792
  35   2.0000     -10.535263      -286.6791
  36   2.0000     -10.534386      -286.6552
  37   2.0000     -10.534376      -286.6550
  38   2.0000     -10.534367      -286.6547
  39   2.0000     -10.534362      -286.6546
  40   2.0000     -10.533040      -286.6186
  41   2.0000     -10.533036      -286.6185
  42   2.0000     -10.533013      -286.6179
  43   2.0000     -10.533005      -286.6176
  44   2.0000     -10.530007      -286.5361
  45   2.0000     -10.529998      -286.5358
  46   2.0000     -10.529983      -286.5354
  47   2.0000     -10.529979      -286.5353
  48   2.0000     -10.529805      -286.5306
  49   2.0000     -10.529803      -286.5305
  50   2.0000     -10.529765      -286.5295
  51   2.0000     -10.529760      -286.5293
  52   2.0000     -10.511583      -286.0347
  53   2.0000     -10.511579      -286.0346
  54   2.0000     -10.511566      -286.0342
  55   2.0000     -10.511559      -286.0341
  56   2.0000     -10.509479      -285.9775
  57   2.0000     -10.509463      -285.9770
  58   2.0000     -10.509462      -285.9770
  59   2.0000     -10.509457      -285.9769
  60   2.0000     -10.506882      -285.9068
  61   2.0000     -10.506881      -285.9068
  62   2.0000     -10.506876      -285.9066
  63   2.0000     -10.506870      -285.9065
  64   2.0000     -10.505688      -285.8743
  65   2.0000     -10.505684      -285.8742
  66   2.0000     -10.505670      -285.8738
  67   2.0000     -10.505657      -285.8735
  68   2.0000     -10.504138      -285.8321
  69   2.0000     -10.504123      -285.8317
  70   2.0000     -10.504120      -285.8316
  71   2.0000     -10.504120      -285.8316
  72   2.0000     -10.497152      -285.6420
  73   2.0000     -10.497150      -285.6420
  74   2.0000     -10.497149      -285.6419
  75   2.0000     -10.497146      -285.6419
  76   2.0000     -10.494227      -285.5624
  77   2.0000     -10.494220      -285.5622
  78   2.0000     -10.494215      -285.5621
  79   2.0000     -10.494208      -285.5619
  80   2.0000     -10.491669      -285.4928
  81   2.0000     -10.491664      -285.4927
  82   2.0000     -10.491663      -285.4927
  83   2.0000     -10.491660      -285.4926
  84   2.0000     -10.490958      -285.4735
  85   2.0000     -10.490955      -285.4734
  86   2.0000     -10.490931      -285.4727
  87   2.0000     -10.490925      -285.4726
  88   2.0000     -10.489697      -285.4392
  89   2.0000     -10.489690      -285.4390
  90   2.0000     -10.489674      -285.4386
  91   2.0000     -10.489667      -285.4384
  92   2.0000     -10.485744      -285.3316
  93   2.0000     -10.485742      -285.3315
  94   2.0000     -10.485714      -285.3308
  95   2.0000     -10.485701      -285.3304
  96   2.0000     -10.485408      -285.3225
  97   2.0000     -10.485407      -285.3224
  98   2.0000     -10.485386      -285.3219
  99   2.0000     -10.485375      -285.3216
 100   2.0000     -10.480352      -285.1849
 101   2.0000     -10.480348      -285.1848
 102   2.0000     -10.480326      -285.1842
 103   2.0000     -10.480318      -285.1840
 104   2.0000     -10.479506      -285.1619
 105   2.0000     -10.479499      -285.1617
 106   2.0000     -10.479471      -285.1609
 107   2.0000     -10.479457      -285.1605
 108   2.0000     -10.475269      -285.0466
 109   2.0000     -10.475264      -285.0464
 110   2.0000     -10.475238      -285.0457
 111   2.0000     -10.475219      -285.0452
 112   2.0000      -3.842965      -104.5724
 113   2.0000      -3.842961      -104.5723
 114   2.0000      -2.520351       -68.5823
 115   2.0000      -2.520347       -68.5821
 116   2.0000      -2.520159       -68.5770
 117   2.0000      -2.520154       -68.5769
 118   2.0000      -2.483771       -67.5868
 119   2.0000      -2.483766       -67.5867
 120   2.0000      -1.296747       -35.2863
 121   2.0000      -1.296735       -35.2860
 122   2.0000      -1.289446       -35.0876
 123   2.0000      -1.289441       -35.0875
 124   2.0000      -1.288780       -35.0695
 125   2.0000      -1.288768       -35.0692
 126   2.0000      -1.287456       -35.0335
 127   2.0000      -1.287441       -35.0331
 128   2.0000      -1.169004       -31.8102
 129   2.0000      -1.168980       -31.8096
 130   2.0000      -1.168308       -31.7913
 131   2.0000      -1.168301       -31.7911
 132   2.0000      -1.157121       -31.4869
 133   2.0000      -1.157056       -31.4851
 134   2.0000      -1.156961       -31.4825
 135   2.0000      -1.156950       -31.4822
 136   2.0000      -1.131522       -30.7903
 137   2.0000      -1.131399       -30.7869
 138   2.0000      -1.130852       -30.7720
 139   2.0000      -1.130821       -30.7712
 140   2.0000      -1.104404       -30.0524
 141   2.0000      -1.104306       -30.0497
 142   2.0000      -1.103706       -30.0334
 143   2.0000      -1.103270       -30.0215
 144   2.0000      -1.102225       -29.9931
 145   2.0000      -1.101921       -29.9848
 146   2.0000      -1.101353       -29.9693
 147   2.0000      -1.100658       -29.9504
 148   2.0000      -1.085609       -29.5409
 149   2.0000      -1.085539       -29.5390
 150   2.0000      -1.084786       -29.5185
 151   2.0000      -1.084563       -29.5125
 152   2.0000      -1.079298       -29.3692
 153   2.0000      -1.079150       -29.3652
 154   2.0000      -1.078264       -29.3411
 155   2.0000      -1.077951       -29.3325
 156   2.0000      -1.057450       -28.7747
 157   2.0000      -1.057044       -28.7636
 158   2.0000      -1.056102       -28.7380
 159   2.0000      -1.055323       -28.7168
 160   2.0000      -1.044425       -28.4203
 161   2.0000      -1.044209       -28.4144
 162   2.0000      -1.044196       -28.4140
 163   2.0000      -1.043865       -28.4050
 164   2.0000      -1.031547       -28.0698
 165   2.0000      -1.031199       -28.0603
 166   2.0000      -1.031191       -28.0601
 167   2.0000      -1.030832       -28.0504
 168   2.0000      -1.002406       -27.2769
 169   2.0000      -1.002145       -27.2698
 170   2.0000      -1.001924       -27.2638
 171   2.0000      -1.001475       -27.2515
 172   2.0000      -0.984778       -26.7972
 173   2.0000      -0.984762       -26.7967
 174   2.0000      -0.984576       -26.7917
 175   2.0000      -0.984440       -26.7880
 176   2.0000      -0.962823       -26.1998
 177   2.0000      -0.962648       -26.1950
 178   2.0000      -0.960355       -26.1326
 179   2.0000      -0.959512       -26.1096
 180   2.0000      -0.953962       -25.9586
 181   2.0000      -0.953901       -25.9570
 182   2.0000      -0.952241       -25.9118
 183   2.0000      -0.951457       -25.8905
 184   2.0000      -0.941530       -25.6203
 185   2.0000      -0.940711       -25.5980
 186   2.0000      -0.939810       -25.5735
 187   2.0000      -0.939408       -25.5626
 188   2.0000      -0.936155       -25.4741
 189   2.0000      -0.935347       -25.4521
 190   2.0000      -0.934828       -25.4380
 191   2.0000      -0.934440       -25.4274
 192   2.0000      -0.920549       -25.0494
 193   2.0000      -0.920366       -25.0444
 194   2.0000      -0.919851       -25.0304
 195   2.0000      -0.919752       -25.0277
 196   2.0000      -0.896660       -24.3993
 197   2.0000      -0.895687       -24.3729
 198   2.0000      -0.895489       -24.3675
 199   2.0000      -0.894962       -24.3531
 200   2.0000      -0.884105       -24.0577
 201   2.0000      -0.882163       -24.0049
 202   2.0000      -0.881910       -23.9980
 203   2.0000      -0.881205       -23.9788
 204   2.0000      -0.865839       -23.5607
 205   2.0000      -0.865553       -23.5529
 206   2.0000      -0.865533       -23.5523
 207   2.0000      -0.865513       -23.5518
 208   2.0000      -0.856617       -23.3097
 209   2.0000      -0.853884       -23.2354
 210   2.0000      -0.848691       -23.0940
 211   2.0000      -0.845927       -23.0189
 212   2.0000      -0.844307       -22.9748
 213   2.0000      -0.844176       -22.9712
 214   2.0000      -0.842385       -22.9225
 215   2.0000      -0.842222       -22.9180
 216   2.0000      -0.832302       -22.6481
 217   2.0000      -0.832162       -22.6443
 218   2.0000      -0.829637       -22.5756
 219   2.0000      -0.829474       -22.5711
 220   2.0000      -0.813977       -22.1494
 221   2.0000      -0.812892       -22.1199
 222   2.0000      -0.812194       -22.1009
 223   2.0000      -0.811431       -22.0802
 224   2.0000      -0.810701       -22.0603
 225   2.0000      -0.809596       -22.0302
 226   2.0000      -0.809527       -22.0283
 227   2.0000      -0.808860       -22.0102
 228   2.0000      -0.797188       -21.6926
 229   2.0000      -0.796517       -21.6743
 230   2.0000      -0.795929       -21.6583
 231   2.0000      -0.795305       -21.6414
 232   2.0000      -0.781176       -21.2569
 233   2.0000      -0.781113       -21.2552
 234   2.0000      -0.780940       -21.2505
 235   2.0000      -0.780398       -21.2357
 236   2.0000      -0.778567       -21.1859
 237   2.0000      -0.777578       -21.1590
 238   2.0000      -0.776976       -21.1426
 239   2.0000      -0.775976       -21.1154
 240   2.0000      -0.775288       -21.0967
 241   2.0000      -0.774976       -21.0882
 242   2.0000      -0.769963       -20.9518
 243   2.0000      -0.769822       -20.9479
 244   2.0000      -0.769171       -20.9302
 245   2.0000      -0.769059       -20.9272
 246   2.0000      -0.763100       -20.7650
 247   2.0000      -0.762301       -20.7433
 248   2.0000      -0.761306       -20.7162
 249   2.0000      -0.760835       -20.7034
 250   2.0000      -0.751304       -20.4440
 251   2.0000      -0.751161       -20.4401
 252   2.0000      -0.751093       -20.4383
 253   2.0000      -0.750140       -20.4124
 254   2.0000      -0.745216       -20.2783
 255   2.0000      -0.745182       -20.2774
 256   2.0000      -0.743472       -20.2309
 257   2.0000      -0.743369       -20.2281
 258   2.0000      -0.740630       -20.1536
 259   2.0000      -0.740195       -20.1417
 260   2.0000      -0.738371       -20.0921
 261   2.0000      -0.737488       -20.0681
 262   2.0000      -0.735956       -20.0264
 263   2.0000      -0.734409       -19.9843
 264   2.0000      -0.733957       -19.9720
 265   2.0000      -0.733111       -19.9490
 266   2.0000      -0.727383       -19.7931
 267   2.0000      -0.725346       -19.7377
 268   2.0000      -0.725204       -19.7338
 269   2.0000      -0.724235       -19.7074
 270   2.0000      -0.723871       -19.6975
 271   2.0000      -0.723391       -19.6845
 272   2.0000      -0.722480       -19.6597
 273   2.0000      -0.721837       -19.6422
 274   2.0000      -0.719587       -19.5810
 275   2.0000      -0.718889       -19.5620
 276   2.0000      -0.710119       -19.3233
 277   2.0000      -0.709960       -19.3190
 278   2.0000      -0.709935       -19.3183
 279   2.0000      -0.709812       -19.3150
 280   2.0000      -0.704687       -19.1755
 281   2.0000      -0.704577       -19.1725
 282   2.0000      -0.702906       -19.1270
 283   2.0000      -0.702827       -19.1249
 284   2.0000      -0.698655       -19.0114
 285   2.0000      -0.698535       -19.0081
 286   2.0000      -0.694940       -18.9103
 287   2.0000      -0.694861       -18.9081
 288   2.0000      -0.685125       -18.6432
 289   2.0000      -0.685004       -18.6399
 290   2.0000      -0.684303       -18.6208
 291   2.0000      -0.684274       -18.6200
 292   2.0000      -0.682740       -18.5783
 293   2.0000      -0.682326       -18.5670
 294   2.0000      -0.681661       -18.5489
 295   2.0000      -0.681286       -18.5387
 296   2.0000      -0.679643       -18.4940
 297   2.0000      -0.679162       -18.4809
 298   2.0000      -0.678917       -18.4743
 299   2.0000      -0.678658       -18.4672
 300   2.0000      -0.676767       -18.4158
 301   2.0000      -0.675779       -18.3889
 302   2.0000      -0.669612       -18.2211
 303   2.0000      -0.669394       -18.2151
 304   2.0000      -0.668279       -18.1848
 305   2.0000      -0.668211       -18.1829
 306   2.0000      -0.665222       -18.1016
 307   2.0000      -0.664602       -18.0847
 308   2.0000      -0.663434       -18.0530
 309   2.0000      -0.662319       -18.0226
 310   2.0000      -0.662063       -18.0156
 311   2.0000      -0.659727       -17.9521
 312   2.0000      -0.652191       -17.7470
 313   2.0000      -0.650881       -17.7114
 314   2.0000      -0.650646       -17.7050
 315   2.0000      -0.648581       -17.6488
 316   2.0000      -0.643514       -17.5109
 317   2.0000      -0.641006       -17.4426
 318   2.0000      -0.640426       -17.4269
 319   2.0000      -0.639558       -17.4033
 320   2.0000      -0.639463       -17.4007
 321   2.0000      -0.638080       -17.3630
 322   2.0000      -0.638071       -17.3628
 323   2.0000      -0.637462       -17.3462
 324   2.0000      -0.636608       -17.3230
 325   2.0000      -0.635613       -17.2959
 326   2.0000      -0.628906       -17.1134
 327   2.0000      -0.626459       -17.0468
 328   2.0000      -0.623456       -16.9651
 329   2.0000      -0.620076       -16.8731
 330   2.0000      -0.617540       -16.8041
 331   2.0000      -0.617377       -16.7997
 332   2.0000      -0.616230       -16.7685
 333   2.0000      -0.615229       -16.7412
 334   2.0000      -0.612925       -16.6785
 335   2.0000      -0.611456       -16.6386
 336   2.0000      -0.611431       -16.6379
 337   2.0000      -0.610744       -16.6192
 338   2.0000      -0.608843       -16.5675
 339   2.0000      -0.608624       -16.5615
 340   2.0000      -0.608362       -16.5544
 341   2.0000      -0.608329       -16.5535
 342   2.0000      -0.603878       -16.4324
 343   2.0000      -0.603780       -16.4297
 344   2.0000      -0.603719       -16.4280
 345   2.0000      -0.603575       -16.4241
 346   2.0000      -0.595630       -16.2079
 347   2.0000      -0.594888       -16.1877
 348   2.0000      -0.594206       -16.1692
 349   2.0000      -0.593453       -16.1487
 350   2.0000      -0.590778       -16.0759
 351   2.0000      -0.590374       -16.0649
 352   2.0000      -0.589734       -16.0475
 353   2.0000      -0.582444       -15.8491
 354   2.0000      -0.581672       -15.8281
 355   2.0000      -0.579071       -15.7573
 356   2.0000      -0.578992       -15.7552
 357   2.0000      -0.576036       -15.6747
 358   2.0000      -0.564685       -15.3659
 359   2.0000      -0.563844       -15.3430
 360   2.0000      -0.563702       -15.3391
 361   2.0000      -0.563410       -15.3312
 362   2.0000      -0.562263       -15.3000
 363   2.0000      -0.560193       -15.2436
 364   2.0000      -0.552804       -15.0426
 365   2.0000      -0.549763       -14.9598
 366   2.0000      -0.549632       -14.9563
 367   2.0000      -0.548661       -14.9298
 368   2.0000      -0.548136       -14.9156
 369   2.0000      -0.547412       -14.8958
 370   2.0000      -0.546352       -14.8670
 371   2.0000      -0.546305       -14.8657
 372   2.0000      -0.539170       -14.6715
 373   2.0000      -0.539136       -14.6706
 374   2.0000      -0.539039       -14.6680
 375   2.0000      -0.539018       -14.6674
 376   2.0000      -0.521983       -14.2039
 377   2.0000      -0.521089       -14.1796
 378   2.0000      -0.520663       -14.1679
 379   2.0000      -0.518941       -14.1211
 380   2.0000      -0.487563       -13.2673
 381   2.0000      -0.487008       -13.2522
 382   2.0000      -0.486986       -13.2516
 383   2.0000      -0.486172       -13.2294
 384   2.0000      -0.469619       -12.7790
 385   2.0000      -0.469498       -12.7757
 386   2.0000      -0.469132       -12.7657
 387   2.0000      -0.469023       -12.7628
 388   0.0000      -0.347340        -9.4516
 389   0.0000      -0.346993        -9.4422
 390   0.0000      -0.342071        -9.3082
 391   0.0000      -0.342053        -9.3077
 392   0.0000      -0.330279        -8.9874

MULLIKEN ATOMIC CHARGES
-----------------------
   0 Pd:    0.387122
   1 Pd:    0.387077
   2 C :    0.022425
   3 C :   -0.064453
   4 C :   -0.010513
   5 C :    0.039012
   6 C :    0.020456
   7 C :    0.014041
   8 C :   -0.048163
   9 C :    0.157743
  10 N :   -0.311576
  11 C :    0.136326
  12 C :    0.005850
  13 C :    0.063708
  14 H :    0.060304
  15 H :    0.074159
  16 H :    0.040772
  17 H :    0.057725
  18 H :    0.045954
  19 H :    0.035157
  20 C :   -0.042007
  21 C :    0.045477
  22 C :    0.012253
  23 C :    0.008422
  24 C :    0.014205
  25 C :   -0.013077
  26 C :    0.051376
  27 C :   -0.049087
  28 C :    0.058502
  29 C :   -0.019283
  30 H :    0.043950
  31 H :    0.043938
  32 H :    0.043041
  33 H :    0.033805
  34 H :   -0.020222
  35 H :   -0.017260
  36 C :   -0.024644
  37 C :    0.063051
  38 C :   -0.016836
  39 C :    0.127387
  40 N :   -0.295535
  41 C :    0.134080
  42 H :    0.075764
  43 H :    0.080233
  44 H :    0.078961
  45 H :    0.050903
  46 C :    0.022309
  47 C :   -0.064202
  48 C :   -0.010706
  49 C :    0.038994
  50 C :    0.020467
  51 C :    0.014102
  52 C :   -0.048155
  53 C :    0.157698
  54 N :   -0.311551
  55 C :    0.136620
  56 C :    0.005887
  57 C :    0.063661
  58 H :    0.060424
  59 H :    0.074233
  60 H :    0.040799
  61 H :    0.057714
  62 H :    0.045824
  63 H :    0.035022
  64 C :   -0.042212
  65 C :    0.045389
  66 C :    0.012123
  67 C :    0.008391
  68 C :    0.014223
  69 C :   -0.013106
  70 C :    0.051236
  71 C :   -0.049294
  72 C :    0.058435
  73 C :   -0.019244
  74 H :    0.043936
  75 H :    0.043929
  76 H :    0.042977
  77 H :    0.033781
  78 H :   -0.019735
  79 H :   -0.017001
  80 C :   -0.024560
  81 C :    0.063122
  82 C :   -0.016736
  83 C :    0.126699
  84 N :   -0.295373
  85 C :    0.134191
  86 H :    0.075772
  87 H :    0.080205
  88 H :    0.079422
  89 H :    0.050838
  90 C :    0.022259
  91 C :   -0.064122
  92 C :   -0.010744
  93 C :    0.039110
  94 C :    0.020471
  95 C :    0.014047
  96 C :   -0.048247
  97 C :    0.157752
  98 N :   -0.311622
  99 C :    0.136705
 100 C :    0.005868
 101 C :    0.063667
 102 H :    0.060354
 103 H :    0.074220
 104 H :    0.040880
 105 H :    0.057711
 106 H :    0.045760
 107 H :    0.035071
 108 C :   -0.042287
 109 C :    0.045457
 110 C :    0.012129
 111 C :    0.008421
 112 C :    0.014193
 113 C :   -0.013178
 114 C :    0.051199
 115 C :   -0.049203
 116 C :    0.058438
 117 C :   -0.019243
 118 H :    0.043915
 119 H :    0.043937
 120 H :    0.042978
 121 H :    0.033791
 122 H :   -0.019760
 123 H :   -0.016972
 124 C :   -0.024576
 125 C :    0.063136
 126 C :   -0.016708
 127 C :    0.126723
 128 N :   -0.295440
 129 C :    0.134129
 130 H :    0.075806
 131 H :    0.080213
 132 H :    0.079428
 133 H :    0.050896
 134 C :    0.022362
 135 C :   -0.064363
 136 C :   -0.010476
 137 C :    0.038940
 138 C :    0.020512
 139 C :    0.014077
 140 C :   -0.048105
 141 C :    0.157712
 142 N :   -0.311570
 143 C :    0.136294
 144 C :    0.005861
 145 C :    0.063717
 146 H :    0.060339
 147 H :    0.074126
 148 H :    0.040754
 149 H :    0.057730
 150 H :    0.045984
 151 H :    0.035097
 152 C :   -0.042009
 153 C :    0.045444
 154 C :    0.012234
 155 C :    0.008329
 156 C :    0.014252
 157 C :   -0.013063
 158 C :    0.051479
 159 C :   -0.049205
 160 C :    0.058453
 161 C :   -0.019223
 162 H :    0.043990
 163 H :    0.043964
 164 H :    0.043041
 165 H :    0.033800
 166 H :   -0.020182
 167 H :   -0.017334
 168 C :   -0.024531
 169 C :    0.063003
 170 C :   -0.016870
 171 C :    0.127346
 172 N :   -0.295497
 173 C :    0.134167
 174 H :    0.075762
 175 H :    0.080243
 176 H :    0.078951
 177 H :    0.050826
Sum of atomic charges:    4.0000000

LOEWDIN ATOMIC CHARGES
----------------------
   0 Pd:   -0.354818
   1 Pd:   -0.354832
   2 C :    0.008652
   3 C :   -0.041749
   4 C :   -0.028901
   5 C :    0.049605
   6 C :    0.019637
   7 C :    0.006110
   8 C :   -0.028702
   9 C :    0.094744
  10 N :    0.060851
  11 C :    0.032531
  12 C :    0.009410
  13 C :    0.018258
  14 H :    0.060479
  15 H :    0.060483
  16 H :    0.048352
  17 H :    0.053880
  18 H :    0.045084
  19 H :    0.051864
  20 C :   -0.047186
  21 C :    0.017168
  22 C :    0.011223
  23 C :   -0.005603
  24 C :    0.017551
  25 C :   -0.012082
  26 C :   -0.038966
  27 C :   -0.009421
  28 C :   -0.017827
  29 C :    0.004330
  30 H :    0.051807
  31 H :    0.051891
  32 H :    0.052185
  33 H :    0.042462
  34 H :    0.023327
  35 H :    0.027690
  36 C :   -0.003750
  37 C :    0.055555
  38 C :    0.004426
  39 C :    0.062035
  40 N :    0.073389
  41 C :    0.068635
  42 H :    0.060308
  43 H :    0.065433
  44 H :    0.055067
  45 H :    0.047186
  46 C :    0.008620
  47 C :   -0.041744
  48 C :   -0.028929
  49 C :    0.049613
  50 C :    0.019653
  51 C :    0.006158
  52 C :   -0.028743
  53 C :    0.094735
  54 N :    0.060824
  55 C :    0.032498
  56 C :    0.009392
  57 C :    0.018275
  58 H :    0.060532
  59 H :    0.060522
  60 H :    0.048361
  61 H :    0.053881
  62 H :    0.045095
  63 H :    0.051830
  64 C :   -0.047220
  65 C :    0.017116
  66 C :    0.011139
  67 C :   -0.005610
  68 C :    0.017496
  69 C :   -0.012111
  70 C :   -0.039011
  71 C :   -0.009380
  72 C :   -0.017838
  73 C :    0.004331
  74 H :    0.051805
  75 H :    0.051890
  76 H :    0.052156
  77 H :    0.042449
  78 H :    0.023488
  79 H :    0.027771
  80 C :   -0.003679
  81 C :    0.055528
  82 C :    0.004445
  83 C :    0.061915
  84 N :    0.073423
  85 C :    0.068677
  86 H :    0.060311
  87 H :    0.065414
  88 H :    0.055167
  89 H :    0.047127
  90 C :    0.008621
  91 C :   -0.041736
  92 C :   -0.028931
  93 C :    0.049642
  94 C :    0.019638
  95 C :    0.006147
  96 C :   -0.028750
  97 C :    0.094771
  98 N :    0.060801
  99 C :    0.032498
 100 C :    0.009391
 101 C :    0.018260
 102 H :    0.060500
 103 H :    0.060516
 104 H :    0.048392
 105 H :    0.053869
 106 H :    0.045075
 107 H :    0.051849
 108 C :   -0.047218
 109 C :    0.017127
 110 C :    0.011144
 111 C :   -0.005620
 112 C :    0.017511
 113 C :   -0.012118
 114 C :   -0.039021
 115 C :   -0.009359
 116 C :   -0.017848
 117 C :    0.004334
 118 H :    0.051794
 119 H :    0.051892
 120 H :    0.052152
 121 H :    0.042448
 122 H :    0.023479
 123 H :    0.027782
 124 C :   -0.003699
 125 C :    0.055559
 126 C :    0.004428
 127 C :    0.061936
 128 N :    0.073420
 129 C :    0.068665
 130 H :    0.060325
 131 H :    0.065423
 132 H :    0.055174
 133 H :    0.047148
 134 C :    0.008646
 135 C :   -0.041742
 136 C :   -0.028922
 137 C :    0.049611
 138 C :    0.019656
 139 C :    0.006122
 140 C :   -0.028697
 141 C :    0.094731
 142 N :    0.060857
 143 C :    0.032551
 144 C :    0.009403
 145 C :    0.018285
 146 H :    0.060495
 147 H :    0.060470
 148 H :    0.048345
 149 H :    0.053890
 150 H :    0.045091
 151 H :    0.051841
 152 C :   -0.047209
 153 C :    0.017158
 154 C :    0.011183
 155 C :   -0.005580
 156 C :    0.017551
 157 C :   -0.012082
 158 C :   -0.038959
 159 C :   -0.009444
 160 C :   -0.017836
 161 C :    0.004373
 162 H :    0.051833
 163 H :    0.051916
 164 H :    0.052183
 165 H :    0.042460
 166 H :    0.023342
 167 H :    0.027657
 168 C :   -0.003739
 169 C :    0.055536
 170 C :    0.004433
 171 C :    0.062003
 172 N :    0.073400
 173 C :    0.068669
 174 H :    0.060311
 175 H :    0.065434
 176 H :    0.055056
 177 H :    0.047161

  Mayer bond orders larger than 0.100000
B(  0-Pd, 40-N ) :   0.5512 B(  0-Pd, 84-N ) :   0.5513 B(  0-Pd, 98-N ) :   0.5465
B(  0-Pd,142-N ) :   0.5465 B(  1-Pd, 10-N ) :   0.5465 B(  1-Pd, 54-N ) :   0.5465
B(  1-Pd,128-N ) :   0.5514 B(  1-Pd,172-N ) :   0.5512 B(  2-C ,  3-C ) :   2.5883
B(  2-C , 20-C ) :   1.0110 B(  3-C ,  4-C ) :   1.0045 B(  4-C ,  5-C ) :   1.4330
B(  4-C , 13-C ) :   1.2324 B(  5-C ,  6-C ) :   1.2717 B(  5-C , 14-H ) :   0.9915
B(  6-C ,  7-C ) :   1.4691 B(  6-C , 15-H ) :   0.9811 B(  7-C ,  8-C ) :   1.2382
B(  7-C , 16-H ) :   0.9961 B(  8-C ,  9-C ) :   1.2944 B(  8-C , 13-C ) :   1.2198
B(  9-C , 10-N ) :   1.4196 B(  9-C , 17-H ) :   0.9558 B( 10-N , 11-C ) :   1.2004
B( 11-C , 12-C ) :   1.5301 B( 11-C , 18-H ) :   0.9503 B( 12-C , 13-C ) :   1.2946
B( 12-C , 19-H ) :   0.9570 B( 20-C , 21-C ) :   1.2137 B( 20-C , 29-C ) :   1.4214
B( 21-C , 22-C ) :   1.4996 B( 21-C , 30-H ) :   0.9909 B( 22-C , 23-C ) :   1.2406
B( 22-C , 31-H ) :   0.9919 B( 23-C , 24-C ) :   1.2506 B( 23-C , 28-C ) :   1.2435
B( 24-C , 25-C ) :   1.5068 B( 24-C , 32-H ) :   0.9903 B( 25-C , 26-C ) :   1.2414
B( 25-C , 33-H ) :   0.9841 B( 26-C , 27-C ) :   1.4449 B( 26-C , 36-C ) :   1.0122
B( 27-C , 28-C ) :   1.2549 B( 27-C , 34-H ) :   0.9832 B( 28-C , 29-C ) :   1.2387
B( 29-C , 35-H ) :   0.9961 B( 36-C , 37-C ) :   1.3720 B( 36-C , 41-C ) :   1.3997
B( 37-C , 38-C ) :   1.4056 B( 37-C , 42-H ) :   0.9792 B( 38-C , 39-C ) :   1.4243
B( 38-C , 43-H ) :   0.9726 B( 39-C , 40-N ) :   1.3154 B( 39-C , 44-H ) :   0.9543
B( 40-N , 41-C ) :   1.3260 B( 41-C , 45-H ) :   0.9561 B( 46-C , 47-C ) :   2.5884
B( 46-C , 64-C ) :   1.0111 B( 47-C , 48-C ) :   1.0045 B( 48-C , 49-C ) :   1.4331
B( 48-C , 57-C ) :   1.2325 B( 49-C , 50-C ) :   1.2716 B( 49-C , 58-H ) :   0.9915
B( 50-C , 51-C ) :   1.4691 B( 50-C , 59-H ) :   0.9811 B( 51-C , 52-C ) :   1.2382
B( 51-C , 60-H ) :   0.9961 B( 52-C , 53-C ) :   1.2943 B( 52-C , 57-C ) :   1.2198
B( 53-C , 54-N ) :   1.4198 B( 53-C , 61-H ) :   0.9556 B( 54-N , 55-C ) :   1.2005
B( 55-C , 56-C ) :   1.5304 B( 55-C , 62-H ) :   0.9500 B( 56-C , 57-C ) :   1.2945
B( 56-C , 63-H ) :   0.9570 B( 64-C , 65-C ) :   1.2140 B( 64-C , 73-C ) :   1.4212
B( 65-C , 66-C ) :   1.4996 B( 65-C , 74-H ) :   0.9909 B( 66-C , 67-C ) :   1.2407
B( 66-C , 75-H ) :   0.9919 B( 67-C , 68-C ) :   1.2506 B( 67-C , 72-C ) :   1.2434
B( 68-C , 69-C ) :   1.5068 B( 68-C , 76-H ) :   0.9903 B( 69-C , 70-C ) :   1.2413
B( 69-C , 77-H ) :   0.9841 B( 70-C , 71-C ) :   1.4449 B( 70-C , 80-C ) :   1.0123
B( 71-C , 72-C ) :   1.2549 B( 71-C , 78-H ) :   0.9832 B( 72-C , 73-C ) :   1.2387
B( 73-C , 79-H ) :   0.9962 B( 80-C , 81-C ) :   1.3721 B( 80-C , 85-C ) :   1.3996
B( 81-C , 82-C ) :   1.4056 B( 81-C , 86-H ) :   0.9792 B( 82-C , 83-C ) :   1.4241
B( 82-C , 87-H ) :   0.9726 B( 83-C , 84-N ) :   1.3153 B( 83-C , 88-H ) :   0.9542
B( 84-N , 85-C ) :   1.3262 B( 85-C , 89-H ) :   0.9561 B( 90-C , 91-C ) :   2.5882
B( 90-C ,108-C ) :   1.0112 B( 91-C , 92-C ) :   1.0046 B( 92-C , 93-C ) :   1.4330
B( 92-C ,101-C ) :   1.2325 B( 93-C , 94-C ) :   1.2716 B( 93-C ,102-H ) :   0.9915
B( 94-C , 95-C ) :   1.4691 B( 94-C ,103-H ) :   0.9811 B( 95-C , 96-C ) :   1.2382
B( 95-C ,104-H ) :   0.9960 B( 96-C , 97-C ) :   1.2943 B( 96-C ,101-C ) :   1.2199
B( 97-C , 98-N ) :   1.4198 B( 97-C ,105-H ) :   0.9557 B( 98-N , 99-C ) :   1.2005
B( 99-C ,100-C ) :   1.5304 B( 99-C ,106-H ) :   0.9500 B(100-C ,101-C ) :   1.2945
B(100-C ,107-H ) :   0.9570 B(108-C ,109-C ) :   1.2139 B(108-C ,117-C ) :   1.4212
B(109-C ,110-C ) :   1.4997 B(109-C ,118-H ) :   0.9909 B(110-C ,111-C ) :   1.2406
B(110-C ,119-H ) :   0.9919 B(111-C ,112-C ) :   1.2506 B(111-C ,116-C ) :   1.2435
B(112-C ,113-C ) :   1.5067 B(112-C ,120-H ) :   0.9903 B(113-C ,114-C ) :   1.2414
B(113-C ,121-H ) :   0.9841 B(114-C ,115-C ) :   1.4449 B(114-C ,124-C ) :   1.0123
B(115-C ,116-C ) :   1.2549 B(115-C ,122-H ) :   0.9832 B(116-C ,117-C ) :   1.2386
B(117-C ,123-H ) :   0.9962 B(124-C ,125-C ) :   1.3720 B(124-C ,129-C ) :   1.3997
B(125-C ,126-C ) :   1.4057 B(125-C ,130-H ) :   0.9792 B(126-C ,127-C ) :   1.4241
B(126-C ,131-H ) :   0.9726 B(127-C ,128-N ) :   1.3153 B(127-C ,132-H ) :   0.9542
B(128-N ,129-C ) :   1.3260 B(129-C ,133-H ) :   0.9561 B(134-C ,135-C ) :   2.5881
B(134-C ,152-C ) :   1.0111 B(135-C ,136-C ) :   1.0045 B(136-C ,137-C ) :   1.4331
B(136-C ,145-C ) :   1.2323 B(137-C ,138-C ) :   1.2715 B(137-C ,146-H ) :   0.9915
B(138-C ,139-C ) :   1.4692 B(138-C ,147-H ) :   0.9812 B(139-C ,140-C ) :   1.2381
B(139-C ,148-H ) :   0.9961 B(140-C ,141-C ) :   1.2946 B(140-C ,145-C ) :   1.2197
B(141-C ,142-N ) :   1.4195 B(141-C ,149-H ) :   0.9558 B(142-N ,143-C ) :   1.2005
B(143-C ,144-C ) :   1.5300 B(143-C ,150-H ) :   0.9503 B(144-C ,145-C ) :   1.2947
B(144-C ,151-H ) :   0.9571 B(152-C ,153-C ) :   1.2137 B(152-C ,161-C ) :   1.4212
B(153-C ,154-C ) :   1.4996 B(153-C ,162-H ) :   0.9909 B(154-C ,155-C ) :   1.2407
B(154-C ,163-H ) :   0.9919 B(155-C ,156-C ) :   1.2505 B(155-C ,160-C ) :   1.2435
B(156-C ,157-C ) :   1.5069 B(156-C ,164-H ) :   0.9902 B(157-C ,158-C ) :   1.2414
B(157-C ,165-H ) :   0.9841 B(158-C ,159-C ) :   1.4449 B(158-C ,168-C ) :   1.0122
B(159-C ,160-C ) :   1.2549 B(159-C ,166-H ) :   0.9831 B(160-C ,161-C ) :   1.2388
B(161-C ,167-H ) :   0.9962 B(168-C ,169-C ) :   1.3719 B(168-C ,173-C ) :   1.3998
B(169-C ,170-C ) :   1.4057 B(169-C ,174-H ) :   0.9792 B(170-C ,171-C ) :   1.4241
B(170-C ,175-H ) :   0.9725 B(171-C ,172-N ) :   1.3156 B(171-C ,176-H ) :   0.9543
B(172-N ,173-C ) :   1.3259 B(173-C ,177-H ) :   0.9562

Dispersion correction           -0.285592055
FINAL SINGLE POINT ENERGY     -4686.292523824656

DIPOLE MOMENT
-------------
                                X             Y             Z
Electronic contribution:      0.21982       0.00834      -0.32119
Nuclear contribution   :     -0.21966      -0.00838       0.32077
                        -----------------------------------------
Total Dipole Moment    :      0.00015      -0.00004      -0.00042
                        -----------------------------------------
Magnitude (a.u.)       :      0.00045
Magnitude (Debye)      :      0.00115

Rotational constants in cm-1:     0.000404     0.000289     0.000266
Rotational constants in MHz :    12.104172     8.675973     7.959857

                             ****ORCA TERMINATED NORMALLY****
TOTAL RUN TIME: 0 days 0 hours 19 minutes 14 seconds 976 msec
