                         Program Version 4.2.1 -  RELEASE  -
|  1> ! DFT SP RKS PBE0 def2-SVP D3BJ Grid6 NOFINALGRID SlowConv TightSCF printbasis
|  2>
|  3> %base "_s_5a1_b_PBE0"
|  4> %maxcore 3000
|  5> %scf
|  6>    MaxIter 2000
|  7> end
|  8> %pal
|  9>    nprocs 32
| 10> end
| 11>
| 12> * xyzfile 4 1 s_5a1_b.xyz
| 13>
| 14>                          ****END OF INPUT****

CARTESIAN COORDINATES (ANGSTROEM)
---------------------------------
  Pd     0.791100    6.614100    0.329800
  Pd     0.509000   -4.786100   -0.004100
  C      7.035000   -0.445700    0.832500
  C      6.707400   -1.608600    0.883400
  C      6.357100   -2.972000    0.919200
  C      7.329200   -3.938300    1.112900
  C      7.003900   -5.299300    1.131000
  C      5.710700   -5.715600    0.948300
  C      4.691000   -4.761300    0.744800
  C      3.349500   -5.129800    0.536900
  N      2.388900   -4.250700    0.346000
  C      2.671800   -2.923400    0.350200
  C      3.945100   -2.460700    0.535300
  C      5.003100   -3.371800    0.735400
  H      8.355500   -3.633900    1.252300
  H      7.789600   -6.022200    1.287600
  H      5.464200   -6.765300    0.956900
  H      3.077700   -6.182400    0.531200
  H      1.821700   -2.260600    0.193900
  H      4.161400   -1.404300    0.527400
  C      7.371300    0.918700    0.719800
  C      8.687400    1.291500    0.351400
  C      9.004400    2.606600    0.171400
  C      8.033500    3.617900    0.343300
  C      8.309500    4.981900    0.114400
  C      7.338000    5.931800    0.255900
  C      6.030100    5.573900    0.657200
  C      5.747100    4.250400    0.913100
  C      6.722200    3.248900    0.746600
  C      6.414800    1.888500    0.932400
  H      9.430100    0.521300    0.205900
  H     10.005700    2.891300   -0.118100
  H      9.305900    5.265000   -0.192100
  H      7.565400    6.962900    0.034300
  H      4.774600    3.951600    1.271700
  H      5.417400    1.607600    1.233300
  C      4.984500    6.598400    0.772900
  C      5.254200    7.911300    1.172900
  C      4.223300    8.834300    1.236800
  C      2.934800    8.433700    0.923300
  N      2.672100    7.177000    0.557900
  C      3.658400    6.287800    0.471200
  H      6.257000    8.201100    1.444600
  H      4.416400    9.851900    1.535600
  H      2.092300    9.121400    0.960000
  H      3.382800    5.293800    0.126700
  C     -0.860700    2.549100    6.559600
  C     -0.770900    3.743200    6.388000
  C     -0.728800    5.116000    6.077800
  C     -1.220300    6.070900    6.950600
  C     -1.256900    7.423200    6.591000
  C     -0.833900    7.839100    5.354200
  C     -0.317600    6.897900    4.438600
  C      0.093300    7.249600    3.137300
  N      0.591600    6.375100    2.291800
  C      0.755800    5.079700    2.669400
  C      0.350900    4.628300    3.891600
  C     -0.229300    5.526700    4.809900
  H     -1.589100    5.766200    7.918300
  H     -1.642700    8.140500    7.299200
  H     -0.891400    8.878800    5.073900
  H     -0.003100    8.274600    2.792800
  H      1.232300    4.424900    1.938300
  H      0.464100    3.593800    4.173000
  C     -1.048200    1.164800    6.748500
  C     -1.770100    0.714800    7.881300
  C     -2.036500   -0.613000    8.041000
  C     -1.600700   -1.560000    7.088400
  C     -1.900000   -2.932300    7.206600
  C     -1.468400   -3.827700    6.271600
  C     -0.697400   -3.404100    5.162900
  C     -0.399700   -2.066900    5.022500
  C     -0.846700   -1.119100    5.966900
  C     -0.583200    0.256300    5.819500
  H     -2.111900    1.437900    8.606700
  H     -2.594500   -0.958700    8.899200
  H     -2.485500   -3.265100    8.051000
  H     -1.739800   -4.867500    6.367200
  H      0.212100   -1.721000    4.203700
  H     -0.022000    0.597100    4.963300
  C     -0.234200   -4.411000    4.197900
  C      0.122100   -5.695900    4.621100
  C      0.501500   -6.648500    3.690900
  C      0.538200   -6.299500    2.353300
  N      0.235700   -5.061700    1.947200
  C     -0.144500   -4.141400    2.831000
  H      0.113100   -5.941700    5.671300
  H      0.766900   -7.646100    4.001300
  H      0.811500   -7.022100    1.583300
  H     -0.399900   -3.166300    2.428000
  C     -5.813200    2.481000   -0.277000
  C     -5.538800    3.658800   -0.297600
  C     -5.162700    5.016100   -0.289500
  C     -6.102200    6.026000   -0.394800
  C     -5.719400    7.372500   -0.365200
  C     -4.403600    7.731300   -0.224500
  C     -3.413400    6.731400   -0.112700
  C     -2.047000    7.032100    0.039600
  N     -1.121800    6.099500    0.138400
  C     -1.468700    4.790000    0.098000
  C     -2.767500    4.392300   -0.038700
  C     -3.787300    5.357700   -0.149800
  H     -7.145800    5.770900   -0.501200
  H     -6.480600    8.132600   -0.452300
  H     -4.116500    8.770400   -0.197800
  H     -1.712300    8.067100    0.080800
  H     -0.653800    4.077700    0.183400
  H     -3.030700    3.347200   -0.061600
  C     -6.117100    1.106400   -0.195500
  C     -7.420000    0.699200    0.182200
  C     -7.708300   -0.625900    0.331800
  C     -6.721600   -1.612600    0.115000
  C     -6.976500   -2.986500    0.303100
  C     -5.999300   -3.917800    0.099200
  C     -4.704800   -3.530300   -0.320500
  C     -4.435500   -2.193800   -0.516100
  C     -5.421500   -1.210900   -0.295000
  C     -5.143500    0.161100   -0.444600
  H     -8.174700    1.451200    0.358100
  H     -8.699300   -0.938500    0.627800
  H     -7.962000   -3.292300    0.622600
  H     -6.211000   -4.959100    0.285500
  H     -3.470000   -1.870000   -0.872300
  H     -4.156300    0.470300   -0.751700
  C     -3.676600   -4.560400   -0.524200
  C     -4.001500   -5.834800   -1.003500
  C     -3.013000   -6.795000   -1.133300
  C     -1.710000   -6.469300   -0.797900
  N     -1.390400   -5.247500   -0.368400
  C     -2.335500   -4.316900   -0.228000
  H     -5.017300   -6.065100   -1.283500
  H     -3.249500   -7.783400   -1.492700
  H     -0.902300   -7.192100   -0.875000
  H     -2.004500   -3.352300    0.153100
  C     -0.161700    3.133300   -6.288500
  C     -0.086900    4.318100   -6.055900
  C     -0.041200    5.664900   -5.647800
  C     -0.394700    6.703100   -6.490800
  C     -0.410000    8.026100   -6.032800
  C     -0.101800    8.330700   -4.731100
  C      0.268700    7.301100   -3.840400
  C      0.548300    7.534800   -2.478100
  N      0.900000    6.574000   -1.653000
  C      1.042800    5.301800   -2.111600
  C      0.762300    4.964600   -3.403000
  C      0.332500    5.958000   -4.305700
  H     -0.669000    6.489300   -7.512700
  H     -0.685700    8.811700   -6.719700
  H     -0.140100    9.349900   -4.380800
  H      0.470400    8.537000   -2.068600
  H      1.395000    4.563600   -1.388500
  H      0.857800    3.948700   -3.750500
  C     -0.290400    1.753700   -6.548400
  C     -0.850500    1.320300   -7.774600
  C     -1.019600   -0.011200   -8.017300
  C     -0.637600   -0.978300   -7.061700
  C     -0.808200   -2.359700   -7.286100
  C     -0.406400   -3.275300   -6.357300
  C      0.184500   -2.860200   -5.140600
  C      0.338600   -1.516800   -4.887000
  C     -0.060600   -0.550500   -5.834900
  C      0.099300    0.828300   -5.601000
  H     -1.143000    2.057100   -8.507700
  H     -1.450100   -0.345300   -8.950300
  H     -1.259900   -2.683400   -8.212200
  H     -0.560300   -4.327300   -6.541900
  H      0.810300   -1.179800   -3.976800
  H      0.533700    1.157700   -4.669800
  C      0.645600   -3.889500   -4.197200
  C      1.276700   -5.043400   -4.672100
  C      1.678500   -6.023900   -3.781300
  C      1.440900   -5.837200   -2.432000
  N      0.851800   -4.727800   -1.970800
  C      0.466000   -3.774900   -2.818400
  H      1.461400   -5.160700   -5.728400
  H      2.166200   -6.919800   -4.129900
  H      1.729700   -6.589000   -1.696700
  H     -0.017400   -2.908300   -2.379300

 Total Charge           Charge          ....    4
 Multiplicity           Mult            ....    1
 Number of Electrons    NEL             ....  776
 Basis Dimension        Dim             .... 1950

ORBITAL ENERGIES
----------------

  NO   OCC          E(Eh)            E(eV)
   0   2.0000     -14.748353      -401.3231
   1   2.0000     -14.748036      -401.3145
   2   2.0000     -14.746841      -401.2819
   3   2.0000     -14.744310      -401.2131
   4   2.0000     -14.740242      -401.1024
   5   2.0000     -14.739952      -401.0945
   6   2.0000     -14.738404      -401.0524
   7   2.0000     -14.737005      -401.0143
   8   2.0000     -10.582215      -287.9567
   9   2.0000     -10.579147      -287.8732
  10   2.0000     -10.577849      -287.8379
  11   2.0000     -10.577491      -287.8282
  12   2.0000     -10.576845      -287.8106
  13   2.0000     -10.576499      -287.8012
  14   2.0000     -10.576095      -287.7902
  15   2.0000     -10.575974      -287.7869
  16   2.0000     -10.575080      -287.7626
  17   2.0000     -10.573248      -287.7127
  18   2.0000     -10.569923      -287.6222
  19   2.0000     -10.568743      -287.5901
  20   2.0000     -10.566846      -287.5385
  21   2.0000     -10.566325      -287.5243
  22   2.0000     -10.565734      -287.5082
  23   2.0000     -10.564612      -287.4777
  24   2.0000     -10.545198      -286.9494
  25   2.0000     -10.544451      -286.9291
  26   2.0000     -10.544091      -286.9193
  27   2.0000     -10.539946      -286.8065
  28   2.0000     -10.539040      -286.7819
  29   2.0000     -10.537913      -286.7512
  30   2.0000     -10.537732      -286.7463
  31   2.0000     -10.537522      -286.7405
  32   2.0000     -10.537323      -286.7351
  33   2.0000     -10.536549      -286.7141
  34   2.0000     -10.535971      -286.6983
  35   2.0000     -10.534965      -286.6710
  36   2.0000     -10.534946      -286.6705
  37   2.0000     -10.534639      -286.6621
  38   2.0000     -10.534617      -286.6615
  39   2.0000     -10.533743      -286.6377
  40   2.0000     -10.532750      -286.6107
  41   2.0000     -10.532727      -286.6101
  42   2.0000     -10.531526      -286.5774
  43   2.0000     -10.531278      -286.5706
  44   2.0000     -10.530956      -286.5619
  45   2.0000     -10.530663      -286.5539
  46   2.0000     -10.530088      -286.5383
  47   2.0000     -10.529686      -286.5273
  48   2.0000     -10.528459      -286.4939
  49   2.0000     -10.527912      -286.4791
  50   2.0000     -10.526721      -286.4466
  51   2.0000     -10.526443      -286.4391
  52   2.0000     -10.512540      -286.0607
  53   2.0000     -10.511534      -286.0334
  54   2.0000     -10.509985      -285.9912
  55   2.0000     -10.509687      -285.9831
  56   2.0000     -10.509559      -285.9796
  57   2.0000     -10.509456      -285.9768
  58   2.0000     -10.509256      -285.9714
  59   2.0000     -10.509038      -285.9655
  60   2.0000     -10.508097      -285.9399
  61   2.0000     -10.507629      -285.9271
  62   2.0000     -10.507317      -285.9186
  63   2.0000     -10.506605      -285.8992
  64   2.0000     -10.506344      -285.8922
  65   2.0000     -10.506335      -285.8919
  66   2.0000     -10.504900      -285.8529
  67   2.0000     -10.504483      -285.8415
  68   2.0000     -10.504040      -285.8295
  69   2.0000     -10.504028      -285.8291
  70   2.0000     -10.501854      -285.7700
  71   2.0000     -10.500738      -285.7396
  72   2.0000     -10.499731      -285.7122
  73   2.0000     -10.499561      -285.7076
  74   2.0000     -10.499229      -285.6986
  75   2.0000     -10.496434      -285.6225
  76   2.0000     -10.496134      -285.6143
  77   2.0000     -10.495827      -285.6060
  78   2.0000     -10.494603      -285.5727
  79   2.0000     -10.493099      -285.5317
  80   2.0000     -10.492348      -285.5113
  81   2.0000     -10.492331      -285.5108
  82   2.0000     -10.491964      -285.5009
  83   2.0000     -10.491794      -285.4962
  84   2.0000     -10.491293      -285.4826
  85   2.0000     -10.491208      -285.4803
  86   2.0000     -10.490895      -285.4718
  87   2.0000     -10.490539      -285.4621
  88   2.0000     -10.489981      -285.4469
  89   2.0000     -10.489879      -285.4441
  90   2.0000     -10.489148      -285.4242
  91   2.0000     -10.487905      -285.3904
  92   2.0000     -10.487789      -285.3872
  93   2.0000     -10.487768      -285.3867
  94   2.0000     -10.487084      -285.3681
  95   2.0000     -10.486418      -285.3499
  96   2.0000     -10.485283      -285.3191
  97   2.0000     -10.484863      -285.3076
  98   2.0000     -10.484605      -285.3006
  99   2.0000     -10.483337      -285.2661
 100   2.0000     -10.482819      -285.2520
 101   2.0000     -10.482739      -285.2498
 102   2.0000     -10.481944      -285.2282
 103   2.0000     -10.481290      -285.2104
 104   2.0000     -10.480136      -285.1790
 105   2.0000     -10.480018      -285.1758
 106   2.0000     -10.478277      -285.1284
 107   2.0000     -10.477959      -285.1197
 108   2.0000     -10.477261      -285.1008
 109   2.0000     -10.476300      -285.0746
 110   2.0000     -10.476108      -285.0694
 111   2.0000     -10.473646      -285.0024
 112   2.0000      -3.846265      -104.6622
 113   2.0000      -3.839949      -104.4903
 114   2.0000      -2.523763       -68.6751
 115   2.0000      -2.523179       -68.6592
 116   2.0000      -2.517805       -68.5130
 117   2.0000      -2.516732       -68.4838
 118   2.0000      -2.487008       -67.6749
 119   2.0000      -2.480772       -67.5052
 120   2.0000      -1.300052       -35.3762
 121   2.0000      -1.293829       -35.2069
 122   2.0000      -1.293251       -35.1912
 123   2.0000      -1.292109       -35.1601
 124   2.0000      -1.290492       -35.1161
 125   2.0000      -1.286616       -35.0106
 126   2.0000      -1.285082       -34.9689
 127   2.0000      -1.283862       -34.9357
 128   2.0000      -1.169612       -31.8267
 129   2.0000      -1.168352       -31.7925
 130   2.0000      -1.166526       -31.7428
 131   2.0000      -1.165305       -31.7095
 132   2.0000      -1.159388       -31.5485
 133   2.0000      -1.159129       -31.5415
 134   2.0000      -1.158602       -31.5272
 135   2.0000      -1.155067       -31.4310
 136   2.0000      -1.134881       -30.8817
 137   2.0000      -1.133547       -30.8454
 138   2.0000      -1.133324       -30.8393
 139   2.0000      -1.128700       -30.7135
 140   2.0000      -1.106606       -30.1123
 141   2.0000      -1.105680       -30.0871
 142   2.0000      -1.105295       -30.0766
 143   2.0000      -1.104024       -30.0420
 144   2.0000      -1.101812       -29.9818
 145   2.0000      -1.100166       -29.9370
 146   2.0000      -1.099734       -29.9253
 147   2.0000      -1.098654       -29.8959
 148   2.0000      -1.088283       -29.6137
 149   2.0000      -1.087678       -29.5972
 150   2.0000      -1.086704       -29.5707
 151   2.0000      -1.083390       -29.4806
 152   2.0000      -1.078775       -29.3550
 153   2.0000      -1.078693       -29.3527
 154   2.0000      -1.076721       -29.2991
 155   2.0000      -1.075083       -29.2545
 156   2.0000      -1.057064       -28.7642
 157   2.0000      -1.056891       -28.7595
 158   2.0000      -1.054905       -28.7054
 159   2.0000      -1.053892       -28.6779
 160   2.0000      -1.046193       -28.4683
 161   2.0000      -1.045436       -28.4478
 162   2.0000      -1.045244       -28.4425
 163   2.0000      -1.042394       -28.3650
 164   2.0000      -1.032845       -28.1052
 165   2.0000      -1.031855       -28.0782
 166   2.0000      -1.031734       -28.0749
 167   2.0000      -1.029728       -28.0203
 168   2.0000      -1.004159       -27.3246
 169   2.0000      -1.003381       -27.3034
 170   2.0000      -1.002993       -27.2928
 171   2.0000      -1.000353       -27.2210
 172   2.0000      -0.985856       -26.8265
 173   2.0000      -0.984762       -26.7967
 174   2.0000      -0.984351       -26.7855
 175   2.0000      -0.983514       -26.7628
 176   2.0000      -0.962668       -26.1955
 177   2.0000      -0.961854       -26.1734
 178   2.0000      -0.958857       -26.0918
 179   2.0000      -0.957878       -26.0652
 180   2.0000      -0.957169       -26.0459
 181   2.0000      -0.956326       -26.0229
 182   2.0000      -0.954556       -25.9748
 183   2.0000      -0.950008       -25.8510
 184   2.0000      -0.945265       -25.7220
 185   2.0000      -0.942810       -25.6552
 186   2.0000      -0.941889       -25.6301
 187   2.0000      -0.938089       -25.5267
 188   2.0000      -0.936588       -25.4859
 189   2.0000      -0.934578       -25.4312
 190   2.0000      -0.932721       -25.3806
 191   2.0000      -0.930914       -25.3315
 192   2.0000      -0.920642       -25.0519
 193   2.0000      -0.920073       -25.0365
 194   2.0000      -0.919113       -25.0103
 195   2.0000      -0.918618       -24.9969
 196   2.0000      -0.897344       -24.4180
 197   2.0000      -0.895569       -24.3697
 198   2.0000      -0.895365       -24.3641
 199   2.0000      -0.894589       -24.3430
 200   2.0000      -0.886074       -24.1113
 201   2.0000      -0.883968       -24.0540
 202   2.0000      -0.882211       -24.0062
 203   2.0000      -0.880215       -23.9519
 204   2.0000      -0.867669       -23.6105
 205   2.0000      -0.867088       -23.5947
 206   2.0000      -0.866810       -23.5871
 207   2.0000      -0.863737       -23.5035
 208   2.0000      -0.858685       -23.3660
 209   2.0000      -0.852393       -23.1948
 210   2.0000      -0.849475       -23.1154
 211   2.0000      -0.845465       -23.0063
 212   2.0000      -0.845204       -22.9992
 213   2.0000      -0.844754       -22.9869
 214   2.0000      -0.841318       -22.8934
 215   2.0000      -0.841108       -22.8877
 216   2.0000      -0.832621       -22.6568
 217   2.0000      -0.831494       -22.6261
 218   2.0000      -0.828171       -22.5357
 219   2.0000      -0.827239       -22.5103
 220   2.0000      -0.814858       -22.1734
 221   2.0000      -0.814458       -22.1625
 222   2.0000      -0.813370       -22.1329
 223   2.0000      -0.813006       -22.1230
 224   2.0000      -0.812769       -22.1166
 225   2.0000      -0.809638       -22.0314
 226   2.0000      -0.807805       -21.9815
 227   2.0000      -0.805401       -21.9161
 228   2.0000      -0.798943       -21.7403
 229   2.0000      -0.798000       -21.7147
 230   2.0000      -0.796658       -21.6782
 231   2.0000      -0.793999       -21.6058
 232   2.0000      -0.783479       -21.3196
 233   2.0000      -0.782702       -21.2984
 234   2.0000      -0.782347       -21.2887
 235   2.0000      -0.780845       -21.2479
 236   2.0000      -0.779483       -21.2108
 237   2.0000      -0.778791       -21.1920
 238   2.0000      -0.778623       -21.1874
 239   2.0000      -0.775922       -21.1139
 240   2.0000      -0.774926       -21.0868
 241   2.0000      -0.773061       -21.0361
 242   2.0000      -0.770017       -20.9532
 243   2.0000      -0.768819       -20.9206
 244   2.0000      -0.767860       -20.8945
 245   2.0000      -0.764258       -20.7965
 246   2.0000      -0.763050       -20.7636
 247   2.0000      -0.761507       -20.7217
 248   2.0000      -0.759421       -20.6649
 249   2.0000      -0.758131       -20.6298
 250   2.0000      -0.756737       -20.5919
 251   2.0000      -0.754111       -20.5204
 252   2.0000      -0.752403       -20.4739
 253   2.0000      -0.750624       -20.4255
 254   2.0000      -0.747145       -20.3309
 255   2.0000      -0.746848       -20.3228
 256   2.0000      -0.744444       -20.2573
 257   2.0000      -0.743015       -20.2185
 258   2.0000      -0.741133       -20.1673
 259   2.0000      -0.740964       -20.1627
 260   2.0000      -0.737038       -20.0558
 261   2.0000      -0.736033       -20.0285
 262   2.0000      -0.735255       -20.0073
 263   2.0000      -0.734019       -19.9737
 264   2.0000      -0.732669       -19.9369
 265   2.0000      -0.729002       -19.8371
 266   2.0000      -0.728501       -19.8235
 267   2.0000      -0.727474       -19.7956
 268   2.0000      -0.725933       -19.7536
 269   2.0000      -0.724122       -19.7044
 270   2.0000      -0.723749       -19.6942
 271   2.0000      -0.722956       -19.6726
 272   2.0000      -0.721185       -19.6244
 273   2.0000      -0.720425       -19.6038
 274   2.0000      -0.718679       -19.5563
 275   2.0000      -0.718276       -19.5453
 276   2.0000      -0.712158       -19.3788
 277   2.0000      -0.711610       -19.3639
 278   2.0000      -0.711041       -19.3484
 279   2.0000      -0.707972       -19.2649
 280   2.0000      -0.706950       -19.2371
 281   2.0000      -0.706211       -19.2170
 282   2.0000      -0.705084       -19.1863
 283   2.0000      -0.703610       -19.1462
 284   2.0000      -0.701410       -19.0863
 285   2.0000      -0.698490       -19.0069
 286   2.0000      -0.695003       -18.9120
 287   2.0000      -0.690626       -18.7929
 288   2.0000      -0.687634       -18.7115
 289   2.0000      -0.686567       -18.6824
 290   2.0000      -0.686132       -18.6706
 291   2.0000      -0.683400       -18.5962
 292   2.0000      -0.683094       -18.5879
 293   2.0000      -0.681975       -18.5575
 294   2.0000      -0.680992       -18.5307
 295   2.0000      -0.680817       -18.5260
 296   2.0000      -0.680660       -18.5217
 297   2.0000      -0.680338       -18.5129
 298   2.0000      -0.679133       -18.4801
 299   2.0000      -0.676611       -18.4115
 300   2.0000      -0.675209       -18.3734
 301   2.0000      -0.674550       -18.3554
 302   2.0000      -0.671059       -18.2604
 303   2.0000      -0.670095       -18.2342
 304   2.0000      -0.669841       -18.2273
 305   2.0000      -0.666742       -18.1430
 306   2.0000      -0.665945       -18.1213
 307   2.0000      -0.665698       -18.1146
 308   2.0000      -0.664695       -18.0873
 309   2.0000      -0.662186       -18.0190
 310   2.0000      -0.660174       -17.9643
 311   2.0000      -0.659304       -17.9406
 312   2.0000      -0.656738       -17.8707
 313   2.0000      -0.652897       -17.7662
 314   2.0000      -0.648718       -17.6525
 315   2.0000      -0.648436       -17.6448
 316   2.0000      -0.644234       -17.5305
 317   2.0000      -0.642058       -17.4713
 318   2.0000      -0.641571       -17.4580
 319   2.0000      -0.639594       -17.4042
 320   2.0000      -0.638401       -17.3718
 321   2.0000      -0.637933       -17.3590
 322   2.0000      -0.636909       -17.3312
 323   2.0000      -0.635018       -17.2797
 324   2.0000      -0.633542       -17.2396
 325   2.0000      -0.632521       -17.2118
 326   2.0000      -0.629049       -17.1173
 327   2.0000      -0.627569       -17.0770
 328   2.0000      -0.624140       -16.9837
 329   2.0000      -0.621539       -16.9129
 330   2.0000      -0.619463       -16.8564
 331   2.0000      -0.617780       -16.8106
 332   2.0000      -0.615508       -16.7488
 333   2.0000      -0.614427       -16.7194
 334   2.0000      -0.614329       -16.7167
 335   2.0000      -0.611712       -16.6455
 336   2.0000      -0.610624       -16.6159
 337   2.0000      -0.610278       -16.6065
 338   2.0000      -0.609852       -16.5949
 339   2.0000      -0.609207       -16.5774
 340   2.0000      -0.609167       -16.5763
 341   2.0000      -0.606520       -16.5042
 342   2.0000      -0.604647       -16.4533
 343   2.0000      -0.604415       -16.4470
 344   2.0000      -0.602735       -16.4013
 345   2.0000      -0.600770       -16.3478
 346   2.0000      -0.596711       -16.2373
 347   2.0000      -0.595613       -16.2075
 348   2.0000      -0.594906       -16.1882
 349   2.0000      -0.594266       -16.1708
 350   2.0000      -0.592874       -16.1329
 351   2.0000      -0.591912       -16.1068
 352   2.0000      -0.588092       -16.0028
 353   2.0000      -0.583152       -15.8684
 354   2.0000      -0.582412       -15.8482
 355   2.0000      -0.581998       -15.8370
 356   2.0000      -0.579942       -15.7810
 357   2.0000      -0.575948       -15.6723
 358   2.0000      -0.566666       -15.4198
 359   2.0000      -0.565692       -15.3932
 360   2.0000      -0.564492       -15.3606
 361   2.0000      -0.563282       -15.3277
 362   2.0000      -0.560119       -15.2416
 363   2.0000      -0.559522       -15.2254
 364   2.0000      -0.551806       -15.0154
 365   2.0000      -0.551039       -14.9945
 366   2.0000      -0.550644       -14.9838
 367   2.0000      -0.549293       -14.9470
 368   2.0000      -0.548721       -14.9315
 369   2.0000      -0.546768       -14.8783
 370   2.0000      -0.546186       -14.8625
 371   2.0000      -0.544667       -14.8212
 372   2.0000      -0.540991       -14.7211
 373   2.0000      -0.539655       -14.6848
 374   2.0000      -0.538168       -14.6443
 375   2.0000      -0.537449       -14.6247
 376   2.0000      -0.521372       -14.1872
 377   2.0000      -0.521047       -14.1784
 378   2.0000      -0.518354       -14.1051
 379   2.0000      -0.516789       -14.0625
 380   2.0000      -0.489231       -13.3126
 381   2.0000      -0.488258       -13.2862
 382   2.0000      -0.487749       -13.2723
 383   2.0000      -0.485529       -13.2119
 384   2.0000      -0.471406       -12.8276
 385   2.0000      -0.469594       -12.7783
 386   2.0000      -0.469403       -12.7731
 387   2.0000      -0.468640       -12.7523
 388   0.0000      -0.346356        -9.4248
 389   0.0000      -0.345746        -9.4082
 390   0.0000      -0.345038        -9.3890
 391   0.0000      -0.336075        -9.1451
 392   0.0000      -0.334857        -9.1119

MULLIKEN ATOMIC CHARGES
-----------------------
   0 Pd:    0.393440
   1 Pd:    0.392606
   2 C :    0.023623
   3 C :   -0.065902
   4 C :   -0.012874
   5 C :    0.040535
   6 C :    0.022051
   7 C :    0.013350
   8 C :   -0.051788
   9 C :    0.157031
  10 N :   -0.307884
  11 C :    0.129325
  12 C :    0.006060
  13 C :    0.067040
  14 H :    0.061776
  15 H :    0.074890
  16 H :    0.040975
  17 H :    0.047631
  18 H :    0.058136
  19 H :    0.036690
  20 C :   -0.045237
  21 C :    0.046047
  22 C :    0.012368
  23 C :    0.009403
  24 C :    0.014485
  25 C :   -0.010517
  26 C :    0.055100
  27 C :   -0.055433
  28 C :    0.059846
  29 C :   -0.022025
  30 H :    0.043880
  31 H :    0.044221
  32 H :    0.043272
  33 H :    0.033661
  34 H :   -0.018509
  35 H :   -0.016069
  36 C :   -0.023479
  37 C :    0.065561
  38 C :   -0.018714
  39 C :    0.128454
  40 N :   -0.291710
  41 C :    0.136999
  42 H :    0.074936
  43 H :    0.080222
  44 H :    0.084361
  45 H :    0.042818
  46 C :    0.019725
  47 C :   -0.059330
  48 C :   -0.010711
  49 C :    0.040549
  50 C :    0.019144
  51 C :    0.017685
  52 C :   -0.055672
  53 C :    0.161848
  54 N :   -0.312162
  55 C :    0.127962
  56 C :    0.010851
  57 C :    0.060647
  58 H :    0.060179
  59 H :    0.074335
  60 H :    0.042619
  61 H :    0.056796
  62 H :    0.050902
  63 H :    0.034722
  64 C :   -0.041094
  65 C :    0.046442
  66 C :    0.011368
  67 C :    0.007883
  68 C :    0.013839
  69 C :   -0.017359
  70 C :    0.048603
  71 C :   -0.044294
  72 C :    0.056305
  73 C :   -0.019177
  74 H :    0.045114
  75 H :    0.043705
  76 H :    0.042411
  77 H :    0.033077
  78 H :   -0.016151
  79 H :   -0.016046
  80 C :   -0.030309
  81 C :    0.060321
  82 C :   -0.013305
  83 C :    0.119548
  84 N :   -0.301052
  85 C :    0.140823
  86 H :    0.077711
  87 H :    0.079261
  88 H :    0.084445
  89 H :    0.047104
  90 C :    0.015968
  91 C :   -0.054735
  92 C :   -0.010938
  93 C :    0.039345
  94 C :    0.018792
  95 C :    0.013562
  96 C :   -0.044906
  97 C :    0.151865
  98 N :   -0.313710
  99 C :    0.152098
 100 C :    0.003277
 101 C :    0.060997
 102 H :    0.060190
 103 H :    0.073536
 104 H :    0.040230
 105 H :    0.066068
 106 H :    0.036807
 107 H :    0.032560
 108 C :   -0.044307
 109 C :    0.046702
 110 C :    0.011210
 111 C :    0.008382
 112 C :    0.013756
 113 C :   -0.015466
 114 C :    0.051705
 115 C :   -0.049326
 116 C :    0.057763
 117 C :   -0.022458
 118 H :    0.044838
 119 H :    0.043706
 120 H :    0.042628
 121 H :    0.032919
 122 H :   -0.018016
 123 H :   -0.013428
 124 C :   -0.021738
 125 C :    0.060356
 126 C :   -0.017497
 127 C :    0.131289
 128 N :   -0.301050
 129 C :    0.129372
 130 H :    0.076465
 131 H :    0.080712
 132 H :    0.080359
 133 H :    0.052633
 134 C :    0.019174
 135 C :   -0.056461
 136 C :   -0.009501
 137 C :    0.041188
 138 C :    0.018552
 139 C :    0.017185
 140 C :   -0.056270
 141 C :    0.160107
 142 N :   -0.309971
 143 C :    0.127163
 144 C :    0.011402
 145 C :    0.059068
 146 H :    0.060337
 147 H :    0.074326
 148 H :    0.043153
 149 H :    0.063041
 150 H :    0.052619
 151 H :    0.032988
 152 C :   -0.038941
 153 C :    0.047489
 154 C :    0.011421
 155 C :    0.007356
 156 C :    0.013898
 157 C :   -0.014695
 158 C :    0.035758
 159 C :   -0.037085
 160 C :    0.055832
 161 C :   -0.024353
 162 H :    0.046031
 163 H :    0.043775
 164 H :    0.042521
 165 H :    0.032077
 166 H :   -0.017143
 167 H :   -0.015880
 168 C :   -0.039760
 169 C :    0.066361
 170 C :   -0.013333
 171 C :    0.119013
 172 N :   -0.304125
 173 C :    0.145381
 174 H :    0.078434
 175 H :    0.079436
 176 H :    0.079646
 177 H :    0.050361
Sum of atomic charges:    4.0000000

LOEWDIN ATOMIC CHARGES
----------------------
   0 Pd:   -0.354486
   1 Pd:   -0.352798
   2 C :    0.011589
   3 C :   -0.045379
   4 C :   -0.028429
   5 C :    0.051049
   6 C :    0.020821
   7 C :    0.005684
   8 C :   -0.028345
   9 C :    0.092059
  10 N :    0.061031
  11 C :    0.032625
  12 C :    0.009274
  13 C :    0.017647
  14 H :    0.061215
  15 H :    0.060903
  16 H :    0.048169
  17 H :    0.050489
  18 H :    0.048342
  19 H :    0.052271
  20 C :   -0.048542
  21 C :    0.016246
  22 C :    0.011711
  23 C :   -0.005660
  24 C :    0.017822
  25 C :   -0.010340
  26 C :   -0.037852
  27 C :   -0.010040
  28 C :   -0.017930
  29 C :    0.004396
  30 H :    0.051751
  31 H :    0.051997
  32 H :    0.052267
  33 H :    0.042723
  34 H :    0.023393
  35 H :    0.028099
  36 C :   -0.003914
  37 C :    0.055460
  38 C :    0.004500
  39 C :    0.063767
  40 N :    0.076166
  41 C :    0.069126
  42 H :    0.060133
  43 H :    0.065324
  44 H :    0.056638
  45 H :    0.044768
  46 C :    0.005236
  47 C :   -0.037300
  48 C :   -0.029426
  49 C :    0.049334
  50 C :    0.019466
  51 C :    0.008251
  52 C :   -0.029302
  53 C :    0.097343
  54 N :    0.059897
  55 C :    0.032203
  56 C :    0.009661
  57 C :    0.018943
  58 H :    0.060382
  59 H :    0.060463
  60 H :    0.049202
  61 H :    0.053520
  62 H :    0.047491
  63 H :    0.051948
  64 C :   -0.045811
  65 C :    0.018425
  66 C :    0.010550
  67 C :   -0.005761
  68 C :    0.017065
  69 C :   -0.014776
  70 C :   -0.040592
  71 C :   -0.008354
  72 C :   -0.017712
  73 C :    0.003556
  74 H :    0.052375
  75 H :    0.051760
  76 H :    0.051951
  77 H :    0.041642
  78 H :    0.024704
  79 H :    0.027995
  80 C :   -0.003307
  81 C :    0.055563
  82 C :    0.003775
  83 C :    0.059134
  84 N :    0.072599
  85 C :    0.069884
  86 H :    0.060805
  87 H :    0.065329
  88 H :    0.056705
  89 H :    0.045851
  90 C :    0.006102
  91 C :   -0.038838
  92 C :   -0.029988
  93 C :    0.048772
  94 C :    0.018285
  95 C :    0.006229
  96 C :   -0.029702
  97 C :    0.094513
  98 N :    0.061218
  99 C :    0.035350
 100 C :    0.007953
 101 C :    0.018968
 102 H :    0.060461
 103 H :    0.060098
 104 H :    0.048237
 105 H :    0.056246
 106 H :    0.042317
 107 H :    0.051614
 108 C :   -0.046622
 109 C :    0.017421
 110 C :    0.010643
 111 C :   -0.006166
 112 C :    0.017190
 113 C :   -0.013710
 114 C :   -0.039882
 115 C :   -0.009468
 116 C :   -0.017819
 117 C :    0.003403
 118 H :    0.052236
 119 H :    0.051719
 120 H :    0.052005
 121 H :    0.041892
 122 H :    0.023980
 123 H :    0.028707
 124 C :   -0.004056
 125 C :    0.055253
 126 C :    0.004403
 127 C :    0.062924
 128 N :    0.071189
 129 C :    0.066624
 130 H :    0.060412
 131 H :    0.065738
 132 H :    0.054594
 133 H :    0.047688
 134 C :    0.004247
 135 C :   -0.035266
 136 C :   -0.029698
 137 C :    0.049230
 138 C :    0.019306
 139 C :    0.008688
 140 C :   -0.029659
 141 C :    0.098883
 142 N :    0.059945
 143 C :    0.032070
 144 C :    0.009896
 145 C :    0.019489
 146 H :    0.060526
 147 H :    0.060414
 148 H :    0.049482
 149 H :    0.055250
 150 H :    0.047442
 151 H :    0.051660
 152 C :   -0.045073
 153 C :    0.018400
 154 C :    0.010709
 155 C :   -0.006615
 156 C :    0.017108
 157 C :   -0.016939
 158 C :   -0.041621
 159 C :   -0.009706
 160 C :   -0.018118
 161 C :    0.002288
 162 H :    0.052865
 163 H :    0.051744
 164 H :    0.051898
 165 H :    0.041305
 166 H :    0.024936
 167 H :    0.027646
 168 C :   -0.004334
 169 C :    0.056794
 170 C :    0.003197
 171 C :    0.058637
 172 N :    0.069592
 173 C :    0.069694
 174 H :    0.061469
 175 H :    0.065284
 176 H :    0.055588
 177 H :    0.046812

  Mayer bond orders larger than 0.100000
B(  0-Pd, 40-N ) :   0.5577 B(  0-Pd, 54-N ) :   0.5446 B(  0-Pd, 98-N ) :   0.5402
B(  0-Pd,142-N ) :   0.5497 B(  1-Pd, 10-N ) :   0.5492 B(  1-Pd, 84-N ) :   0.5453
B(  1-Pd,128-N ) :   0.5460 B(  1-Pd,172-N ) :   0.5368 B(  2-C ,  3-C ) :   2.5905
B(  2-C , 20-C ) :   1.0076 B(  3-C ,  4-C ) :   1.0006 B(  4-C ,  5-C ) :   1.4355
B(  4-C , 13-C ) :   1.2334 B(  5-C ,  6-C ) :   1.2704 B(  5-C , 14-H ) :   0.9913
B(  6-C ,  7-C ) :   1.4690 B(  6-C , 15-H ) :   0.9812 B(  7-C ,  8-C ) :   1.2386
B(  7-C , 16-H ) :   0.9956 B(  8-C ,  9-C ) :   1.3003 B(  8-C , 13-C ) :   1.2178
B(  9-C , 10-N ) :   1.4194 B(  9-C , 17-H ) :   0.9547 B( 10-N , 11-C ) :   1.2011
B( 11-C , 12-C ) :   1.5283 B( 11-C , 18-H ) :   0.9489 B( 12-C , 13-C ) :   1.2937
B( 12-C , 19-H ) :   0.9569 B( 20-C , 21-C ) :   1.2131 B( 20-C , 29-C ) :   1.4238
B( 21-C , 22-C ) :   1.4993 B( 21-C , 30-H ) :   0.9910 B( 22-C , 23-C ) :   1.2407
B( 22-C , 31-H ) :   0.9915 B( 23-C , 24-C ) :   1.2503 B( 23-C , 28-C ) :   1.2441
B( 24-C , 25-C ) :   1.5074 B( 24-C , 32-H ) :   0.9899 B( 25-C , 26-C ) :   1.2439
B( 25-C , 33-H ) :   0.9840 B( 26-C , 27-C ) :   1.4407 B( 26-C , 36-C ) :   1.0138
B( 27-C , 28-C ) :   1.2562 B( 27-C , 34-H ) :   0.9823 B( 28-C , 29-C ) :   1.2362
B( 29-C , 35-H ) :   0.9965 B( 36-C , 37-C ) :   1.3722 B( 36-C , 41-C ) :   1.4010
B( 37-C , 38-C ) :   1.4049 B( 37-C , 42-H ) :   0.9792 B( 38-C , 39-C ) :   1.4239
B( 38-C , 43-H ) :   0.9720 B( 39-C , 40-N ) :   1.3166 B( 39-C , 44-H ) :   0.9540
B( 40-N , 41-C ) :   1.3252 B( 41-C , 45-H ) :   0.9541 B( 46-C , 47-C ) :   2.5869
B( 46-C , 64-C ) :   1.0133 B( 47-C , 48-C ) :   1.0090 B( 48-C , 49-C ) :   1.4288
B( 48-C , 57-C ) :   1.2365 B( 49-C , 50-C ) :   1.2728 B( 49-C , 58-H ) :   0.9917
B( 50-C , 51-C ) :   1.4692 B( 50-C , 59-H ) :   0.9808 B( 51-C , 52-C ) :   1.2403
B( 51-C , 60-H ) :   0.9956 B( 52-C , 53-C ) :   1.2861 B( 52-C , 57-C ) :   1.2245
B( 53-C , 54-N ) :   1.4370 B( 53-C , 61-H ) :   0.9606 B( 54-N , 55-C ) :   1.1851
B( 55-C , 56-C ) :   1.5376 B( 55-C , 62-H ) :   0.9448 B( 56-C , 57-C ) :   1.2901
B( 56-C , 63-H ) :   0.9562 B( 64-C , 65-C ) :   1.2155 B( 64-C , 73-C ) :   1.4206
B( 65-C , 66-C ) :   1.4980 B( 65-C , 74-H ) :   0.9910 B( 66-C , 67-C ) :   1.2412
B( 66-C , 75-H ) :   0.9923 B( 67-C , 68-C ) :   1.2505 B( 67-C , 72-C ) :   1.2431
B( 68-C , 69-C ) :   1.5078 B( 68-C , 76-H ) :   0.9906 B( 69-C , 70-C ) :   1.2379
B( 69-C , 77-H ) :   0.9836 B( 70-C , 71-C ) :   1.4481 B( 70-C , 80-C ) :   1.0127
B( 71-C , 72-C ) :   1.2536 B( 71-C , 78-H ) :   0.9844 B( 72-C , 73-C ) :   1.2405
B( 73-C , 79-H ) :   0.9960 B( 80-C , 81-C ) :   1.3734 B( 80-C , 85-C ) :   1.3941
B( 81-C , 82-C ) :   1.4019 B( 81-C , 86-H ) :   0.9791 B( 82-C , 83-C ) :   1.4319
B( 82-C , 87-H ) :   0.9721 B( 83-C , 84-N ) :   1.3013 B( 83-C , 88-H ) :   0.9462
B( 84-N , 85-C ) :   1.3424 B( 85-C , 89-H ) :   0.9602 B( 90-C , 91-C ) :   2.5870
B( 90-C ,108-C ) :   1.0089 B( 91-C , 92-C ) :   1.0024 B( 92-C , 93-C ) :   1.4337
B( 92-C ,101-C ) :   1.2336 B( 93-C , 94-C ) :   1.2686 B( 93-C ,102-H ) :   0.9919
B( 94-C , 95-C ) :   1.4723 B( 94-C ,103-H ) :   0.9810 B( 95-C , 96-C ) :   1.2362
B( 95-C ,104-H ) :   0.9964 B( 96-C , 97-C ) :   1.2927 B( 96-C ,101-C ) :   1.2220
B( 97-C , 98-N ) :   1.4185 B( 97-C ,105-H ) :   0.9557 B( 98-N , 99-C ) :   1.2069
B( 99-C ,100-C ) :   1.5339 B( 99-C ,106-H ) :   0.9443 B(100-C ,101-C ) :   1.2949
B(100-C ,107-H ) :   0.9568 B(108-C ,109-C ) :   1.2150 B(108-C ,117-C ) :   1.4238
B(109-C ,110-C ) :   1.4975 B(109-C ,118-H ) :   0.9911 B(110-C ,111-C ) :   1.2413
B(110-C ,119-H ) :   0.9920 B(111-C ,112-C ) :   1.2501 B(111-C ,116-C ) :   1.2436
B(112-C ,113-C ) :   1.5081 B(112-C ,120-H ) :   0.9904 B(113-C ,114-C ) :   1.2402
B(113-C ,121-H ) :   0.9837 B(114-C ,115-C ) :   1.4440 B(114-C ,124-C ) :   1.0128
B(115-C ,116-C ) :   1.2554 B(115-C ,122-H ) :   0.9840 B(116-C ,117-C ) :   1.2376
B(117-C ,123-H ) :   0.9962 B(124-C ,125-C ) :   1.3691 B(124-C ,129-C ) :   1.4007
B(125-C ,126-C ) :   1.4071 B(125-C ,130-H ) :   0.9792 B(126-C ,127-C ) :   1.4240
B(126-C ,131-H ) :   0.9727 B(127-C ,128-N ) :   1.3201 B(127-C ,132-H ) :   0.9495
B(128-N ,129-C ) :   1.3231 B(129-C ,133-H ) :   0.9556 B(134-C ,135-C ) :   2.5831
B(134-C ,152-C ) :   1.0121 B(135-C ,136-C ) :   1.0112 B(136-C ,137-C ) :   1.4262
B(136-C ,145-C ) :   1.2378 B(137-C ,138-C ) :   1.2715 B(137-C ,146-H ) :   0.9921
B(138-C ,139-C ) :   1.4699 B(138-C ,147-H ) :   0.9807 B(139-C ,140-C ) :   1.2402
B(139-C ,148-H ) :   0.9956 B(140-C ,141-C ) :   1.2812 B(140-C ,145-C ) :   1.2262
B(141-C ,142-N ) :   1.4396 B(141-C ,149-H ) :   0.9619 B(142-N ,143-C ) :   1.1814
B(143-C ,144-C ) :   1.5405 B(143-C ,150-H ) :   0.9431 B(144-C ,145-C ) :   1.2909
B(144-C ,151-H ) :   0.9555 B(152-C ,153-C ) :   1.2154 B(152-C ,161-C ) :   1.4206
B(153-C ,154-C ) :   1.4966 B(153-C ,162-H ) :   0.9915 B(154-C ,155-C ) :   1.2416
B(154-C ,163-H ) :   0.9922 B(155-C ,156-C ) :   1.2502 B(155-C ,160-C ) :   1.2429
B(156-C ,157-C ) :   1.5053 B(156-C ,164-H ) :   0.9910 B(157-C ,158-C ) :   1.2386
B(157-C ,165-H ) :   0.9851 B(158-C ,159-C ) :   1.4545 B(158-C ,168-C ) :   1.0039
B(159-C ,160-C ) :   1.2506 B(159-C ,166-H ) :   0.9863 B(160-C ,161-C ) :   1.2434
B(161-C ,167-H ) :   0.9958 B(168-C ,169-C ) :   1.3773 B(168-C ,173-C ) :   1.3970
B(169-C ,170-C ) :   1.3999 B(169-C ,174-H ) :   0.9803 B(170-C ,171-C ) :   1.4325
B(170-C ,175-H ) :   0.9725 B(171-C ,172-N ) :   1.3028 B(171-C ,176-H ) :   0.9468
B(172-N ,173-C ) :   1.3428 B(173-C ,177-H ) :   0.9600

Dispersion correction           -0.285903579
FINAL SINGLE POINT ENERGY     -4686.284012163273

DIPOLE MOMENT
-------------
                                X             Y             Z
Electronic contribution:     52.58760      -3.01601      -0.62463
Nuclear contribution   :    -52.54596       2.05315       0.59331
                        -----------------------------------------
Total Dipole Moment    :      0.04164      -0.96286      -0.03132
                        -----------------------------------------
Magnitude (a.u.)       :      0.96427
Magnitude (Debye)      :      2.45099

Rotational constants in cm-1:     0.000402     0.000282     0.000277
Rotational constants in MHz :    12.049576     8.459113     8.301018

                             ****ORCA TERMINATED NORMALLY****
TOTAL RUN TIME: 0 days 0 hours 19 minutes 15 seconds 13 msec
