                         Program Version 4.2.1 -  RELEASE  -
|  1> ! DFT SP RKS PBE0 def2-SVP D3BJ Grid6 NOFINALGRID SlowConv TightSCF printbasis
|  2>
|  3> %base "_s_5a1_a_PBE0"
|  4> %maxcore 3000
|  5> %scf
|  6>    MaxIter 2000
|  7> end
|  8> %pal
|  9>    nprocs 32
| 10> end
| 11>
| 12> * xyzfile 4 1 s_5a1_a.xyz
| 13>
| 14>                          ****END OF INPUT****

CARTESIAN COORDINATES (ANGSTROEM)
---------------------------------
  Pd     0.193500    6.885600    0.168900
  Pd    -0.179500   -3.929300   -0.164400
  C      6.849100    3.334800   -0.463200
  C      6.674000    4.525600   -0.340400
  C      6.277700    5.868500   -0.185300
  C      7.173200    6.910700   -0.038400
  C      6.719800    8.224300    0.139400
  C      5.380200    8.516500    0.181100
  C      4.432200    7.481800    0.029200
  C      3.040500    7.705900    0.075300
  N      2.162000    6.737700   -0.070300
  C      2.585100    5.466600   -0.292500
  C      3.908200    5.142300   -0.344900
  C      4.880600    6.146200   -0.168100
  H      8.233800    6.710100   -0.055400
  H      7.447000    9.014000    0.251200
  H      5.043500    9.530300    0.328600
  H      2.652300    8.706500    0.240700
  H      1.812200    4.712500   -0.435600
  H      4.227900    4.128500   -0.522900
  C      6.992400    1.941600   -0.629000
  C      8.168300    1.401400   -1.201300
  C      8.273100    0.056200   -1.404500
  C      7.223500   -0.818100   -1.046100
  C      7.302600   -2.209800   -1.257600
  C      6.282700   -3.034600   -0.881400
  C      5.115000   -2.513600   -0.274400
  C      5.003800   -1.156700   -0.078100
  C      6.047700   -0.283500   -0.452500
  C      5.957000    1.107000   -0.256900
  H      8.972300    2.066900   -1.478200
  H      9.167200   -0.359900   -1.845900
  H      8.189800   -2.614900   -1.721700
  H      6.356700   -4.094700   -1.069000
  H      4.133800   -0.739300    0.405000
  H      5.068800    1.519500    0.197000
  C      4.068900   -3.457200    0.148200
  C      4.425600   -4.677600    0.731200
  C      3.442300   -5.589400    1.072800
  C      2.119900   -5.270700    0.823400
  N      1.769800   -4.093200    0.291600
  C      2.709000   -3.202800   -0.034000
  H      5.463500   -4.901000    0.921900
  H      3.697900   -6.536800    1.519000
  H      1.320200   -5.971700    1.054900
  H      2.358200   -2.274000   -0.473200
  C      0.686000    3.315500    6.829100
  C      0.639100    4.511300    6.651200
  C      0.565800    5.860400    6.252700
  C      0.507000    6.912400    7.146900
  C      0.408100    8.233800    6.692100
  C      0.359300    8.524800    5.352400
  C      0.422500    7.479900    4.405700
  C      0.365800    7.703300    3.014300
  N      0.429600    6.725500    2.136800
  C      0.572000    5.443000    2.560200
  C      0.627500    5.119200    3.883300
  C      0.538500    6.135100    4.855100
  H      0.532000    6.713800    8.207700
  H      0.364000    9.031100    7.418300
  H      0.273200    9.545400    5.014900
  H      0.261300    8.711800    2.625400
  H      0.648100    4.679000    1.787400
  H      0.742100    4.096300    4.203300
  C      0.759400    1.914700    6.975100
  C      1.307800    1.339500    8.145800
  C      1.418600   -0.016300    8.253100
  C      0.987100   -0.866700    7.211500
  C      1.101100   -2.269600    7.293800
  C      0.655000   -3.069300    6.282000
  C      0.072200   -2.510600    5.119500
  C     -0.029300   -1.143600    5.004900
  C      0.418000   -0.295600    6.040800
  C      0.318200    1.104800    5.947100
  H      1.639900    1.986500    8.943900
  H      1.841100   -0.459400    9.143400
  H      1.546400   -2.703500    8.177000
  H      0.768000   -4.139700    6.358300
  H     -0.492500   -0.696200    4.139100
  H     -0.117000    1.545200    5.062900
  C     -0.428200   -3.425100    4.081900
  C     -1.092900   -4.599700    4.449000
  C     -1.510000   -5.487000    3.472500
  C     -1.252300   -5.190900    2.146400
  N     -0.640500   -4.056100    1.786600
  C     -0.242600   -3.188300    2.719300
  H     -1.287300   -4.806100    5.489800
  H     -2.020700   -6.399000    3.736100
  H     -1.542400   -5.875200    1.351700
  H      0.257800   -2.294100    2.360800
  C     -6.689600    3.763700    0.637000
  C     -6.432900    4.944900    0.587000
  C     -5.945600    6.264600    0.512200
  C     -6.767900    7.373100    0.442300
  C     -6.226100    8.661200    0.342600
  C     -4.869700    8.862800    0.303800
  C     -3.994600    7.757900    0.378400
  C     -2.591100    7.888600    0.331300
  N     -1.780600    6.855200    0.405100
  C     -2.289000    5.604200    0.549700
  C     -3.631000    5.368800    0.596300
  C     -4.532800    6.446300    0.495500
  H     -7.839700    7.245000    0.459400
  H     -6.897600    9.504500    0.289900
  H     -4.464800    9.858500    0.217000
  H     -2.135700    8.868900    0.226100
  H     -1.569000    4.791300    0.635100
  H     -4.018700    4.369800    0.712600
  C     -6.927900    2.375900    0.715800
  C     -8.136300    1.881900    1.261500
  C     -8.332800    0.536700    1.379200
  C     -7.347200   -0.382600    0.957700
  C     -7.521400   -1.776400    1.079800
  C     -6.561900   -2.643200    0.643900
  C     -5.362700   -2.165300    0.063400
  C     -5.158800   -0.809400   -0.046100
  C     -6.139000    0.107200    0.391000
  C     -5.953400    1.497900    0.283800
  H     -8.891700    2.581800    1.586300
  H     -9.252100    0.155400    1.799800
  H     -8.433100   -2.148800    1.523400
  H     -6.708300   -3.705600    0.763300
  H     -4.263500   -0.422400   -0.507700
  H     -5.040300    1.876900   -0.149500
  C     -4.384800   -3.148900   -0.426000
  C     -4.825000   -4.301500   -1.084700
  C     -3.906800   -5.253800   -1.491200
  C     -2.565300   -5.042800   -1.229700
  N     -2.134800   -3.929300   -0.624200
  C     -3.010400   -3.000100   -0.235900
  H     -5.876100   -4.440900   -1.282800
  H     -4.227300   -6.150300   -1.996700
  H     -1.815500   -5.779700   -1.511400
  H     -2.596200   -2.128000    0.260500
  C     -0.592400    3.782100   -6.693300
  C     -0.461000    4.958700   -6.443800
  C     -0.291200    6.272100   -5.963600
  C     -0.172100    7.372400   -6.791300
  C      0.020800    8.652800   -6.256400
  C      0.104100    8.854500   -4.902100
  C     -0.018400    7.758300   -4.021500
  C      0.067200    7.889200   -2.619700
  N     -0.052300    6.864200   -1.804100
  C     -0.282600    5.623000   -2.304800
  C     -0.373600    5.387800   -3.644500
  C     -0.228800    6.455300   -4.552200
  H     -0.222900    7.243500   -7.861800
  H      0.110100    9.489800   -6.932000
  H      0.262000    9.843800   -4.502900
  H      0.242100    8.862200   -2.170400
  H     -0.399900    4.817900   -1.580400
  H     -0.558700    4.396900   -4.026100
  C     -0.763700    2.401100   -6.921900
  C     -1.362100    1.936300   -8.116900
  C     -1.566700    0.600100   -8.303300
  C     -1.183900   -0.339100   -7.320600
  C     -1.393800   -1.723600   -7.485300
  C     -0.992700   -2.611400   -6.529700
  C     -0.362000   -2.164700   -5.344000
  C     -0.167000   -0.817200   -5.148900
  C     -0.565500    0.120300   -6.125900
  C     -0.369000    1.502400   -5.950300
  H     -1.657200    2.651500   -8.870100
  H     -2.027500    0.241400   -9.212400
  H     -1.876300   -2.072000   -8.386500
  H     -1.178300   -3.665300   -6.668500
  H      0.333900   -0.455500   -4.264200
  H      0.104300    1.857900   -5.047700
  C      0.085900   -3.172300   -4.370500
  C      0.669500   -4.362300   -4.817200
  C      1.035900   -5.333500   -3.902200
  C      0.807700   -5.104800   -2.557400
  N      0.273400   -3.957700   -2.121200
  C     -0.073600   -3.009300   -2.993900
  H      0.841500   -4.515800   -5.871000
  H      1.484300   -6.258300   -4.227300
  H      1.058800   -5.854600   -1.809900
  H     -0.511500   -2.108400   -2.575300

 Total Charge           Charge          ....    4
 Multiplicity           Mult            ....    1
 Number of Electrons    NEL             ....  776
 Basis Dimension        Dim             .... 1950

ORBITAL ENERGIES
----------------

  NO   OCC          E(Eh)            E(eV)
   0   2.0000     -14.752830      -401.4449
   1   2.0000     -14.752771      -401.4433
   2   2.0000     -14.752748      -401.4427
   3   2.0000     -14.752701      -401.4414
   4   2.0000     -14.737252      -401.0210
   5   2.0000     -14.737190      -401.0193
   6   2.0000     -14.737165      -401.0186
   7   2.0000     -14.737042      -401.0153
   8   2.0000     -10.581292      -287.9316
   9   2.0000     -10.581212      -287.9294
  10   2.0000     -10.581201      -287.9291
  11   2.0000     -10.581189      -287.9288
  12   2.0000     -10.578954      -287.8680
  13   2.0000     -10.578859      -287.8654
  14   2.0000     -10.578856      -287.8653
  15   2.0000     -10.578826      -287.8645
  16   2.0000     -10.575199      -287.7658
  17   2.0000     -10.575182      -287.7653
  18   2.0000     -10.575120      -287.7636
  19   2.0000     -10.575049      -287.7617
  20   2.0000     -10.563198      -287.4392
  21   2.0000     -10.563177      -287.4387
  22   2.0000     -10.563153      -287.4380
  23   2.0000     -10.563041      -287.4350
  24   2.0000     -10.548455      -287.0380
  25   2.0000     -10.548381      -287.0360
  26   2.0000     -10.548361      -287.0355
  27   2.0000     -10.548356      -287.0354
  28   2.0000     -10.542376      -286.8726
  29   2.0000     -10.542301      -286.8706
  30   2.0000     -10.542295      -286.8704
  31   2.0000     -10.542258      -286.8694
  32   2.0000     -10.538023      -286.7542
  33   2.0000     -10.537912      -286.7512
  34   2.0000     -10.537902      -286.7509
  35   2.0000     -10.537886      -286.7505
  36   2.0000     -10.533297      -286.6256
  37   2.0000     -10.533289      -286.6254
  38   2.0000     -10.533202      -286.6230
  39   2.0000     -10.533160      -286.6219
  40   2.0000     -10.530595      -286.5521
  41   2.0000     -10.530591      -286.5520
  42   2.0000     -10.530510      -286.5498
  43   2.0000     -10.530463      -286.5485
  44   2.0000     -10.526746      -286.4473
  45   2.0000     -10.526724      -286.4467
  46   2.0000     -10.526678      -286.4455
  47   2.0000     -10.526585      -286.4429
  48   2.0000     -10.525397      -286.4106
  49   2.0000     -10.525382      -286.4102
  50   2.0000     -10.525299      -286.4080
  51   2.0000     -10.525247      -286.4065
  52   2.0000     -10.511174      -286.0236
  53   2.0000     -10.511155      -286.0231
  54   2.0000     -10.511127      -286.0223
  55   2.0000     -10.511050      -286.0202
  56   2.0000     -10.507121      -285.9133
  57   2.0000     -10.507094      -285.9126
  58   2.0000     -10.506989      -285.9097
  59   2.0000     -10.506975      -285.9093
  60   2.0000     -10.506611      -285.8994
  61   2.0000     -10.506602      -285.8992
  62   2.0000     -10.506566      -285.8982
  63   2.0000     -10.506467      -285.8955
  64   2.0000     -10.505452      -285.8679
  65   2.0000     -10.505430      -285.8673
  66   2.0000     -10.505333      -285.8646
  67   2.0000     -10.505316      -285.8642
  68   2.0000     -10.500971      -285.7459
  69   2.0000     -10.500953      -285.7455
  70   2.0000     -10.500905      -285.7442
  71   2.0000     -10.500864      -285.7430
  72   2.0000     -10.499678      -285.7108
  73   2.0000     -10.499661      -285.7103
  74   2.0000     -10.499554      -285.7074
  75   2.0000     -10.499527      -285.7067
  76   2.0000     -10.496896      -285.6350
  77   2.0000     -10.496889      -285.6349
  78   2.0000     -10.496853      -285.6339
  79   2.0000     -10.496770      -285.6316
  80   2.0000     -10.492387      -285.5124
  81   2.0000     -10.492382      -285.5122
  82   2.0000     -10.492333      -285.5109
  83   2.0000     -10.492240      -285.5084
  84   2.0000     -10.491997      -285.5017
  85   2.0000     -10.491990      -285.5016
  86   2.0000     -10.491972      -285.5011
  87   2.0000     -10.491858      -285.4980
  88   2.0000     -10.489192      -285.4254
  89   2.0000     -10.489190      -285.4254
  90   2.0000     -10.489189      -285.4253
  91   2.0000     -10.489051      -285.4216
  92   2.0000     -10.488014      -285.3934
  93   2.0000     -10.488001      -285.3930
  94   2.0000     -10.487936      -285.3913
  95   2.0000     -10.487875      -285.3896
  96   2.0000     -10.483980      -285.2836
  97   2.0000     -10.483977      -285.2835
  98   2.0000     -10.483971      -285.2833
  99   2.0000     -10.483825      -285.2794
 100   2.0000     -10.483596      -285.2732
 101   2.0000     -10.483592      -285.2730
 102   2.0000     -10.483532      -285.2714
 103   2.0000     -10.483463      -285.2695
 104   2.0000     -10.480302      -285.1835
 105   2.0000     -10.480296      -285.1833
 106   2.0000     -10.480261      -285.1824
 107   2.0000     -10.480153      -285.1795
 108   2.0000     -10.476873      -285.0902
 109   2.0000     -10.476868      -285.0901
 110   2.0000     -10.476850      -285.0896
 111   2.0000     -10.476726      -285.0862
 112   2.0000      -3.850749      -104.7842
 113   2.0000      -3.837271      -104.4175
 114   2.0000      -2.527924       -68.7883
 115   2.0000      -2.527828       -68.7857
 116   2.0000      -2.514640       -68.4268
 117   2.0000      -2.514488       -68.4227
 118   2.0000      -2.490858       -67.7797
 119   2.0000      -2.477982       -67.4293
 120   2.0000      -1.304335       -35.4928
 121   2.0000      -1.296601       -35.2823
 122   2.0000      -1.296477       -35.2789
 123   2.0000      -1.295020       -35.2393
 124   2.0000      -1.290962       -35.1289
 125   2.0000      -1.283271       -34.9196
 126   2.0000      -1.283112       -34.9153
 127   2.0000      -1.282335       -34.8941
 128   2.0000      -1.165230       -31.7075
 129   2.0000      -1.164109       -31.6770
 130   2.0000      -1.163992       -31.6738
 131   2.0000      -1.163963       -31.6731
 132   2.0000      -1.160946       -31.5909
 133   2.0000      -1.160428       -31.5769
 134   2.0000      -1.160397       -31.5760
 135   2.0000      -1.160323       -31.5740
 136   2.0000      -1.137633       -30.9566
 137   2.0000      -1.135983       -30.9117
 138   2.0000      -1.135844       -30.9079
 139   2.0000      -1.135826       -30.9074
 140   2.0000      -1.108910       -30.1750
 141   2.0000      -1.107975       -30.1495
 142   2.0000      -1.107892       -30.1473
 143   2.0000      -1.107876       -30.1468
 144   2.0000      -1.099032       -29.9062
 145   2.0000      -1.098178       -29.8829
 146   2.0000      -1.098120       -29.8814
 147   2.0000      -1.097242       -29.8575
 148   2.0000      -1.090017       -29.6609
 149   2.0000      -1.089466       -29.6459
 150   2.0000      -1.089447       -29.6454
 151   2.0000      -1.088925       -29.6311
 152   2.0000      -1.076106       -29.2823
 153   2.0000      -1.073980       -29.2245
 154   2.0000      -1.073486       -29.2110
 155   2.0000      -1.073460       -29.2103
 156   2.0000      -1.055072       -28.7100
 157   2.0000      -1.054007       -28.6810
 158   2.0000      -1.053965       -28.6798
 159   2.0000      -1.052721       -28.6460
 160   2.0000      -1.046380       -28.4735
 161   2.0000      -1.046096       -28.4657
 162   2.0000      -1.046053       -28.4645
 163   2.0000      -1.045641       -28.4533
 164   2.0000      -1.032507       -28.0960
 165   2.0000      -1.032083       -28.0844
 166   2.0000      -1.032052       -28.0836
 167   2.0000      -1.031720       -28.0745
 168   2.0000      -1.004784       -27.3416
 169   2.0000      -1.004425       -27.3318
 170   2.0000      -1.004402       -27.3312
 171   2.0000      -1.003963       -27.3192
 172   2.0000      -0.984295       -26.7840
 173   2.0000      -0.984052       -26.7774
 174   2.0000      -0.984026       -26.7767
 175   2.0000      -0.983818       -26.7711
 176   2.0000      -0.960954       -26.1489
 177   2.0000      -0.959675       -26.1141
 178   2.0000      -0.959629       -26.1128
 179   2.0000      -0.958956       -26.0945
 180   2.0000      -0.958667       -26.0866
 181   2.0000      -0.956067       -26.0159
 182   2.0000      -0.956010       -26.0143
 183   2.0000      -0.954302       -25.9679
 184   2.0000      -0.948895       -25.8208
 185   2.0000      -0.947081       -25.7714
 186   2.0000      -0.944941       -25.7132
 187   2.0000      -0.944926       -25.7127
 188   2.0000      -0.933247       -25.3949
 189   2.0000      -0.929848       -25.3025
 190   2.0000      -0.929534       -25.2939
 191   2.0000      -0.929503       -25.2931
 192   2.0000      -0.918543       -24.9948
 193   2.0000      -0.918237       -24.9865
 194   2.0000      -0.918195       -24.9854
 195   2.0000      -0.917957       -24.9789
 196   2.0000      -0.896903       -24.4060
 197   2.0000      -0.895535       -24.3687
 198   2.0000      -0.895475       -24.3671
 199   2.0000      -0.895421       -24.3656
 200   2.0000      -0.887863       -24.1600
 201   2.0000      -0.885257       -24.0891
 202   2.0000      -0.883565       -24.0430
 203   2.0000      -0.883529       -24.0420
 204   2.0000      -0.867967       -23.6186
 205   2.0000      -0.867839       -23.6151
 206   2.0000      -0.867719       -23.6118
 207   2.0000      -0.867650       -23.6099
 208   2.0000      -0.861319       -23.4377
 209   2.0000      -0.851283       -23.1646
 210   2.0000      -0.850387       -23.1402
 211   2.0000      -0.848396       -23.0860
 212   2.0000      -0.848368       -23.0853
 213   2.0000      -0.842786       -22.9334
 214   2.0000      -0.840393       -22.8683
 215   2.0000      -0.840354       -22.8672
 216   2.0000      -0.830675       -22.6038
 217   2.0000      -0.826018       -22.4771
 218   2.0000      -0.825963       -22.4756
 219   2.0000      -0.825558       -22.4646
 220   2.0000      -0.816555       -22.2196
 221   2.0000      -0.816519       -22.2186
 222   2.0000      -0.816261       -22.2116
 223   2.0000      -0.815979       -22.2039
 224   2.0000      -0.813256       -22.1298
 225   2.0000      -0.809030       -22.0148
 226   2.0000      -0.804852       -21.9011
 227   2.0000      -0.804799       -21.8997
 228   2.0000      -0.800488       -21.7824
 229   2.0000      -0.799991       -21.7689
 230   2.0000      -0.797428       -21.6991
 231   2.0000      -0.797381       -21.6978
 232   2.0000      -0.784551       -21.3487
 233   2.0000      -0.784036       -21.3347
 234   2.0000      -0.783855       -21.3298
 235   2.0000      -0.783803       -21.3284
 236   2.0000      -0.783168       -21.3111
 237   2.0000      -0.781579       -21.2679
 238   2.0000      -0.779845       -21.2207
 239   2.0000      -0.779824       -21.2201
 240   2.0000      -0.773513       -21.0484
 241   2.0000      -0.769257       -20.9325
 242   2.0000      -0.768073       -20.9003
 243   2.0000      -0.767219       -20.8771
 244   2.0000      -0.765026       -20.8174
 245   2.0000      -0.764887       -20.8136
 246   2.0000      -0.758027       -20.6270
 247   2.0000      -0.758001       -20.6262
 248   2.0000      -0.757862       -20.6225
 249   2.0000      -0.756056       -20.5733
 250   2.0000      -0.755773       -20.5656
 251   2.0000      -0.755720       -20.5642
 252   2.0000      -0.755684       -20.5632
 253   2.0000      -0.755065       -20.5464
 254   2.0000      -0.755010       -20.5449
 255   2.0000      -0.750710       -20.4279
 256   2.0000      -0.747778       -20.3481
 257   2.0000      -0.747334       -20.3360
 258   2.0000      -0.740222       -20.1425
 259   2.0000      -0.734779       -19.9943
 260   2.0000      -0.734737       -19.9932
 261   2.0000      -0.734621       -19.9901
 262   2.0000      -0.733711       -19.9653
 263   2.0000      -0.732442       -19.9308
 264   2.0000      -0.731914       -19.9164
 265   2.0000      -0.728571       -19.8254
 266   2.0000      -0.728038       -19.8109
 267   2.0000      -0.727439       -19.7946
 268   2.0000      -0.727384       -19.7931
 269   2.0000      -0.725936       -19.7537
 270   2.0000      -0.721741       -19.6396
 271   2.0000      -0.721706       -19.6386
 272   2.0000      -0.720644       -19.6097
 273   2.0000      -0.720607       -19.6087
 274   2.0000      -0.720239       -19.5987
 275   2.0000      -0.718265       -19.5450
 276   2.0000      -0.712788       -19.3960
 277   2.0000      -0.712524       -19.3888
 278   2.0000      -0.712282       -19.3822
 279   2.0000      -0.712226       -19.3806
 280   2.0000      -0.708719       -19.2852
 281   2.0000      -0.707191       -19.2436
 282   2.0000      -0.707177       -19.2433
 283   2.0000      -0.706676       -19.2296
 284   2.0000      -0.705624       -19.2010
 285   2.0000      -0.698389       -19.0041
 286   2.0000      -0.689284       -18.7564
 287   2.0000      -0.689115       -18.7518
 288   2.0000      -0.689048       -18.7500
 289   2.0000      -0.688030       -18.7222
 290   2.0000      -0.687958       -18.7203
 291   2.0000      -0.686924       -18.6921
 292   2.0000      -0.682864       -18.5817
 293   2.0000      -0.682414       -18.5694
 294   2.0000      -0.681485       -18.5441
 295   2.0000      -0.681438       -18.5429
 296   2.0000      -0.680683       -18.5223
 297   2.0000      -0.679931       -18.5019
 298   2.0000      -0.679528       -18.4909
 299   2.0000      -0.676913       -18.4197
 300   2.0000      -0.675805       -18.3896
 301   2.0000      -0.672434       -18.2979
 302   2.0000      -0.672403       -18.2970
 303   2.0000      -0.671311       -18.2673
 304   2.0000      -0.670476       -18.2446
 305   2.0000      -0.668262       -18.1843
 306   2.0000      -0.668159       -18.1815
 307   2.0000      -0.665220       -18.1016
 308   2.0000      -0.665051       -18.0970
 309   2.0000      -0.663908       -18.0658
 310   2.0000      -0.663800       -18.0629
 311   2.0000      -0.655685       -17.8421
 312   2.0000      -0.654241       -17.8028
 313   2.0000      -0.653817       -17.7913
 314   2.0000      -0.653778       -17.7902
 315   2.0000      -0.648687       -17.6517
 316   2.0000      -0.648647       -17.6506
 317   2.0000      -0.642615       -17.4864
 318   2.0000      -0.641531       -17.4570
 319   2.0000      -0.637704       -17.3528
 320   2.0000      -0.635852       -17.3024
 321   2.0000      -0.634600       -17.2684
 322   2.0000      -0.634498       -17.2656
 323   2.0000      -0.632470       -17.2104
 324   2.0000      -0.632354       -17.2072
 325   2.0000      -0.632296       -17.2057
 326   2.0000      -0.631760       -17.1911
 327   2.0000      -0.625661       -17.0251
 328   2.0000      -0.625577       -17.0228
 329   2.0000      -0.624723       -16.9996
 330   2.0000      -0.624262       -16.9870
 331   2.0000      -0.617705       -16.8086
 332   2.0000      -0.617660       -16.8074
 333   2.0000      -0.614412       -16.7190
 334   2.0000      -0.612424       -16.6649
 335   2.0000      -0.612320       -16.6621
 336   2.0000      -0.611032       -16.6270
 337   2.0000      -0.611016       -16.6266
 338   2.0000      -0.610948       -16.6247
 339   2.0000      -0.610804       -16.6208
 340   2.0000      -0.605560       -16.4781
 341   2.0000      -0.605315       -16.4714
 342   2.0000      -0.604299       -16.4438
 343   2.0000      -0.602612       -16.3979
 344   2.0000      -0.600971       -16.3532
 345   2.0000      -0.600864       -16.3503
 346   2.0000      -0.596475       -16.2309
 347   2.0000      -0.595986       -16.2176
 348   2.0000      -0.595924       -16.2159
 349   2.0000      -0.595882       -16.2148
 350   2.0000      -0.595344       -16.2001
 351   2.0000      -0.593884       -16.1604
 352   2.0000      -0.593767       -16.1572
 353   2.0000      -0.587271       -15.9805
 354   2.0000      -0.583199       -15.8696
 355   2.0000      -0.583118       -15.8674
 356   2.0000      -0.583087       -15.8666
 357   2.0000      -0.582685       -15.8557
 358   2.0000      -0.572303       -15.5732
 359   2.0000      -0.565538       -15.3891
 360   2.0000      -0.565444       -15.3865
 361   2.0000      -0.562971       -15.3192
 362   2.0000      -0.558456       -15.1964
 363   2.0000      -0.558048       -15.1853
 364   2.0000      -0.552334       -15.0298
 365   2.0000      -0.552311       -15.0291
 366   2.0000      -0.552080       -15.0229
 367   2.0000      -0.551183       -14.9985
 368   2.0000      -0.546082       -14.8596
 369   2.0000      -0.546053       -14.8588
 370   2.0000      -0.545930       -14.8555
 371   2.0000      -0.544157       -14.8073
 372   2.0000      -0.539228       -14.6731
 373   2.0000      -0.538768       -14.6606
 374   2.0000      -0.538713       -14.6591
 375   2.0000      -0.538260       -14.6468
 376   2.0000      -0.517315       -14.0769
 377   2.0000      -0.516800       -14.0629
 378   2.0000      -0.516629       -14.0582
 379   2.0000      -0.515620       -14.0307
 380   2.0000      -0.489435       -13.3182
 381   2.0000      -0.489223       -13.3124
 382   2.0000      -0.489174       -13.3111
 383   2.0000      -0.488951       -13.3050
 384   2.0000      -0.470667       -12.8075
 385   2.0000      -0.470406       -12.8004
 386   2.0000      -0.470373       -12.7995
 387   2.0000      -0.469993       -12.7892
 388   0.0000      -0.350780        -9.5452
 389   0.0000      -0.340815        -9.2741
 390   0.0000      -0.340086        -9.2542
 391   0.0000      -0.339820        -9.2470
 392   0.0000      -0.338612        -9.2141

MULLIKEN ATOMIC CHARGES
-----------------------
   0 Pd:    0.421525
   1 Pd:    0.366672
   2 C :    0.013988
   3 C :   -0.044311
   4 C :   -0.008153
   5 C :    0.042311
   6 C :    0.018152
   7 C :    0.018068
   8 C :   -0.054093
   9 C :    0.159378
  10 N :   -0.309365
  11 C :    0.133996
  12 C :    0.008584
  13 C :    0.054398
  14 H :    0.061468
  15 H :    0.074290
  16 H :    0.042220
  17 H :    0.063395
  18 H :    0.041340
  19 H :    0.030205
  20 C :   -0.042245
  21 C :    0.050534
  22 C :    0.010981
  23 C :    0.008202
  24 C :    0.014175
  25 C :   -0.016684
  26 C :    0.036016
  27 C :   -0.035735
  28 C :    0.056125
  29 C :   -0.030228
  30 H :    0.048269
  31 H :    0.044320
  32 H :    0.042773
  33 H :    0.031244
  34 H :   -0.017350
  35 H :   -0.012733
  36 C :   -0.041421
  37 C :    0.068822
  38 C :   -0.016458
  39 C :    0.109796
  40 N :   -0.311942
  41 C :    0.143518
  42 H :    0.079559
  43 H :    0.080535
  44 H :    0.096237
  45 H :    0.061067
  46 C :    0.014239
  47 C :   -0.044547
  48 C :   -0.008038
  49 C :    0.042273
  50 C :    0.018144
  51 C :    0.017919
  52 C :   -0.053882
  53 C :    0.158868
  54 N :   -0.309844
  55 C :    0.134266
  56 C :    0.008612
  57 C :    0.054398
  58 H :    0.061464
  59 H :    0.074329
  60 H :    0.042249
  61 H :    0.063374
  62 H :    0.041707
  63 H :    0.029978
  64 C :   -0.042073
  65 C :    0.050533
  66 C :    0.010928
  67 C :    0.008262
  68 C :    0.014143
  69 C :   -0.016552
  70 C :    0.035791
  71 C :   -0.035885
  72 C :    0.056273
  73 C :   -0.030514
  74 H :    0.048211
  75 H :    0.044327
  76 H :    0.042750
  77 H :    0.031139
  78 H :   -0.017265
  79 H :   -0.012666
  80 C :   -0.041440
  81 C :    0.068997
  82 C :   -0.016632
  83 C :    0.110096
  84 N :   -0.311540
  85 C :    0.143698
  86 H :    0.079553
  87 H :    0.080604
  88 H :    0.095673
  89 H :    0.060816
  90 C :    0.014056
  91 C :   -0.044375
  92 C :   -0.008108
  93 C :    0.042261
  94 C :    0.018187
  95 C :    0.017900
  96 C :   -0.053834
  97 C :    0.158940
  98 N :   -0.309623
  99 C :    0.134292
 100 C :    0.008498
 101 C :    0.054441
 102 H :    0.061485
 103 H :    0.074276
 104 H :    0.042201
 105 H :    0.063378
 106 H :    0.041469
 107 H :    0.030074
 108 C :   -0.042108
 109 C :    0.050510
 110 C :    0.010925
 111 C :    0.008260
 112 C :    0.014170
 113 C :   -0.016520
 114 C :    0.035843
 115 C :   -0.035840
 116 C :    0.056236
 117 C :   -0.030433
 118 H :    0.048265
 119 H :    0.044323
 120 H :    0.042778
 121 H :    0.031174
 122 H :   -0.017319
 123 H :   -0.012666
 124 C :   -0.041347
 125 C :    0.068918
 126 C :   -0.016418
 127 C :    0.109559
 128 N :   -0.311946
 129 C :    0.143384
 130 H :    0.079507
 131 H :    0.080531
 132 H :    0.096549
 133 H :    0.061013
 134 C :    0.014295
 135 C :   -0.044461
 136 C :   -0.007997
 137 C :    0.042366
 138 C :    0.018176
 139 C :    0.017962
 140 C :   -0.054105
 141 C :    0.159096
 142 N :   -0.309703
 143 C :    0.134522
 144 C :    0.008683
 145 C :    0.054312
 146 H :    0.061428
 147 H :    0.074335
 148 H :    0.042288
 149 H :    0.063405
 150 H :    0.041397
 151 H :    0.029685
 152 C :   -0.041945
 153 C :    0.050552
 154 C :    0.010888
 155 C :    0.008210
 156 C :    0.014230
 157 C :   -0.016468
 158 C :    0.035328
 159 C :   -0.035769
 160 C :    0.056335
 161 C :   -0.030790
 162 H :    0.048232
 163 H :    0.044296
 164 H :    0.042639
 165 H :    0.031023
 166 H :   -0.017080
 167 H :   -0.012533
 168 C :   -0.041908
 169 C :    0.069318
 170 C :   -0.016620
 171 C :    0.110020
 172 N :   -0.311508
 173 C :    0.143989
 174 H :    0.079589
 175 H :    0.080626
 176 H :    0.095819
 177 H :    0.060797
Sum of atomic charges:    4.0000000

LOEWDIN ATOMIC CHARGES
----------------------
   0 Pd:   -0.349189
   1 Pd:   -0.344372
   2 C :    0.003152
   3 C :   -0.032765
   4 C :   -0.029755
   5 C :    0.049590
   6 C :    0.019592
   7 C :    0.008661
   8 C :   -0.029620
   9 C :    0.098693
  10 N :    0.061680
  11 C :    0.031112
  12 C :    0.008802
  13 C :    0.019984
  14 H :    0.061126
  15 H :    0.060388
  16 H :    0.049146
  17 H :    0.055625
  18 H :    0.044086
  19 H :    0.051798
  20 C :   -0.044029
  21 C :    0.019238
  22 C :    0.011138
  23 C :   -0.006863
  24 C :    0.017441
  25 C :   -0.018630
  26 C :   -0.042801
  27 C :   -0.009274
  28 C :   -0.018014
  29 C :    0.000804
  30 H :    0.053932
  31 H :    0.051878
  32 H :    0.052042
  33 H :    0.040727
  34 H :    0.025009
  35 H :    0.028023
  36 C :   -0.004371
  37 C :    0.057687
  38 C :    0.002165
  39 C :    0.056314
  40 N :    0.066452
  41 C :    0.069466
  42 H :    0.061888
  43 H :    0.065618
  44 H :    0.056982
  45 H :    0.049578
  46 C :    0.003182
  47 C :   -0.032756
  48 C :   -0.029736
  49 C :    0.049560
  50 C :    0.019626
  51 C :    0.008606
  52 C :   -0.029645
  53 C :    0.098566
  54 N :    0.061695
  55 C :    0.031100
  56 C :    0.008771
  57 C :    0.019941
  58 H :    0.061124
  59 H :    0.060403
  60 H :    0.049160
  61 H :    0.055623
  62 H :    0.044165
  63 H :    0.051737
  64 C :   -0.044002
  65 C :    0.019208
  66 C :    0.011120
  67 C :   -0.006922
  68 C :    0.017440
  69 C :   -0.018653
  70 C :   -0.042771
  71 C :   -0.009340
  72 C :   -0.018023
  73 C :    0.000822
  74 H :    0.053906
  75 H :    0.051882
  76 H :    0.052023
  77 H :    0.040698
  78 H :    0.025028
  79 H :    0.028010
  80 C :   -0.004427
  81 C :    0.057690
  82 C :    0.002162
  83 C :    0.056520
  84 N :    0.066457
  85 C :    0.069469
  86 H :    0.061912
  87 H :    0.065633
  88 H :    0.056783
  89 H :    0.049468
  90 C :    0.003173
  91 C :   -0.032771
  92 C :   -0.029727
  93 C :    0.049554
  94 C :    0.019611
  95 C :    0.008621
  96 C :   -0.029665
  97 C :    0.098547
  98 N :    0.061683
  99 C :    0.031222
 100 C :    0.008780
 101 C :    0.019940
 102 H :    0.061130
 103 H :    0.060378
 104 H :    0.049131
 105 H :    0.055630
 106 H :    0.044092
 107 H :    0.051771
 108 C :   -0.044018
 109 C :    0.019236
 110 C :    0.011123
 111 C :   -0.006885
 112 C :    0.017438
 113 C :   -0.018633
 114 C :   -0.042787
 115 C :   -0.009316
 116 C :   -0.018015
 117 C :    0.000820
 118 H :    0.053929
 119 H :    0.051881
 120 H :    0.052040
 121 H :    0.040711
 122 H :    0.025019
 123 H :    0.028019
 124 C :   -0.004397
 125 C :    0.057681
 126 C :    0.002180
 127 C :    0.056351
 128 N :    0.066440
 129 C :    0.069441
 130 H :    0.061881
 131 H :    0.065613
 132 H :    0.057028
 133 H :    0.049543
 134 C :    0.003152
 135 C :   -0.032668
 136 C :   -0.029710
 137 C :    0.049604
 138 C :    0.019649
 139 C :    0.008631
 140 C :   -0.029633
 141 C :    0.098681
 142 N :    0.061803
 143 C :    0.031015
 144 C :    0.008822
 145 C :    0.019939
 146 H :    0.061106
 147 H :    0.060409
 148 H :    0.049180
 149 H :    0.055647
 150 H :    0.044071
 151 H :    0.051681
 152 C :   -0.043951
 153 C :    0.019200
 154 C :    0.011087
 155 C :   -0.006941
 156 C :    0.017412
 157 C :   -0.018759
 158 C :   -0.042818
 159 C :   -0.009370
 160 C :   -0.018033
 161 C :    0.000801
 162 H :    0.053916
 163 H :    0.051863
 164 H :    0.051972
 165 H :    0.040651
 166 H :    0.025101
 167 H :    0.028009
 168 C :   -0.004469
 169 C :    0.057745
 170 C :    0.002144
 171 C :    0.056649
 172 N :    0.066352
 173 C :    0.069449
 174 H :    0.061948
 175 H :    0.065636
 176 H :    0.056804
 177 H :    0.049455

  Mayer bond orders larger than 0.100000
B(  0-Pd, 10-N ) :   0.5429 B(  0-Pd, 54-N ) :   0.5423 B(  0-Pd, 98-N ) :   0.5425
B(  0-Pd,142-N ) :   0.5423 B(  1-Pd, 40-N ) :   0.5451 B(  1-Pd, 84-N ) :   0.5454
B(  1-Pd,128-N ) :   0.5450 B(  1-Pd,172-N ) :   0.5456 B(  2-C ,  3-C ) :   2.5790
B(  2-C , 20-C ) :   1.0113 B(  3-C ,  4-C ) :   1.0188 B(  4-C ,  5-C ) :   1.4260
B(  4-C , 13-C ) :   1.2393 B(  5-C ,  6-C ) :   1.2674 B(  5-C , 14-H ) :   0.9925
B(  6-C ,  7-C ) :   1.4742 B(  6-C , 15-H ) :   0.9804 B(  7-C ,  8-C ) :   1.2382
B(  7-C , 16-H ) :   0.9954 B(  8-C ,  9-C ) :   1.2837 B(  8-C , 13-C ) :   1.2294
B(  9-C , 10-N ) :   1.4388 B(  9-C , 17-H ) :   0.9606 B( 10-N , 11-C ) :   1.1878
B( 11-C , 12-C ) :   1.5420 B( 11-C , 18-H ) :   0.9398 B( 12-C , 13-C ) :   1.2914
B( 12-C , 19-H ) :   0.9551 B( 20-C , 21-C ) :   1.2151 B( 20-C , 29-C ) :   1.4262
B( 21-C , 22-C ) :   1.4936 B( 21-C , 30-H ) :   0.9919 B( 22-C , 23-C ) :   1.2424
B( 22-C , 31-H ) :   0.9920 B( 23-C , 24-C ) :   1.2494 B( 23-C , 28-C ) :   1.2432
B( 24-C , 25-C ) :   1.5071 B( 24-C , 32-H ) :   0.9908 B( 25-C , 26-C ) :   1.2370
B( 25-C , 33-H ) :   0.9847 B( 26-C , 27-C ) :   1.4538 B( 26-C , 36-C ) :   1.0044
B( 27-C , 28-C ) :   1.2514 B( 27-C , 34-H ) :   0.9867 B( 28-C , 29-C ) :   1.2418
B( 29-C , 35-H ) :   0.9940 B( 36-C , 37-C ) :   1.3734 B( 36-C , 41-C ) :   1.3981
B( 37-C , 38-C ) :   1.4004 B( 37-C , 42-H ) :   0.9805 B( 38-C , 39-C ) :   1.4320
B( 38-C , 43-H ) :   0.9723 B( 39-C , 40-N ) :   1.3031 B( 39-C , 44-H ) :   0.9419
B( 40-N , 41-C ) :   1.3358 B( 41-C , 45-H ) :   0.9574 B( 46-C , 47-C ) :   2.5787
B( 46-C , 64-C ) :   1.0115 B( 47-C , 48-C ) :   1.0189 B( 48-C , 49-C ) :   1.4259
B( 48-C , 57-C ) :   1.2392 B( 49-C , 50-C ) :   1.2675 B( 49-C , 58-H ) :   0.9925
B( 50-C , 51-C ) :   1.4740 B( 50-C , 59-H ) :   0.9804 B( 51-C , 52-C ) :   1.2383
B( 51-C , 60-H ) :   0.9955 B( 52-C , 53-C ) :   1.2834 B( 52-C , 57-C ) :   1.2294
B( 53-C , 54-N ) :   1.4391 B( 53-C , 61-H ) :   0.9607 B( 54-N , 55-C ) :   1.1876
B( 55-C , 56-C ) :   1.5421 B( 55-C , 62-H ) :   0.9394 B( 56-C , 57-C ) :   1.2916
B( 56-C , 63-H ) :   0.9550 B( 64-C , 65-C ) :   1.2151 B( 64-C , 73-C ) :   1.4260
B( 65-C , 66-C ) :   1.4935 B( 65-C , 74-H ) :   0.9919 B( 66-C , 67-C ) :   1.2425
B( 66-C , 75-H ) :   0.9920 B( 67-C , 68-C ) :   1.2494 B( 67-C , 72-C ) :   1.2431
B( 68-C , 69-C ) :   1.5070 B( 68-C , 76-H ) :   0.9908 B( 69-C , 70-C ) :   1.2372
B( 69-C , 77-H ) :   0.9847 B( 70-C , 71-C ) :   1.4537 B( 70-C , 80-C ) :   1.0042
B( 71-C , 72-C ) :   1.2512 B( 71-C , 78-H ) :   0.9868 B( 72-C , 73-C ) :   1.2419
B( 73-C , 79-H ) :   0.9940 B( 80-C , 81-C ) :   1.3734 B( 80-C , 85-C ) :   1.3988
B( 81-C , 82-C ) :   1.4005 B( 81-C , 86-H ) :   0.9805 B( 82-C , 83-C ) :   1.4317
B( 82-C , 87-H ) :   0.9723 B( 83-C , 84-N ) :   1.3039 B( 83-C , 88-H ) :   0.9424
B( 84-N , 85-C ) :   1.3351 B( 85-C , 89-H ) :   0.9573 B( 90-C , 91-C ) :   2.5791
B( 90-C ,108-C ) :   1.0114 B( 91-C , 92-C ) :   1.0188 B( 92-C , 93-C ) :   1.4259
B( 92-C ,101-C ) :   1.2393 B( 93-C , 94-C ) :   1.2675 B( 93-C ,102-H ) :   0.9925
B( 94-C , 95-C ) :   1.4741 B( 94-C ,103-H ) :   0.9804 B( 95-C , 96-C ) :   1.2383
B( 95-C ,104-H ) :   0.9955 B( 96-C , 97-C ) :   1.2836 B( 96-C ,101-C ) :   1.2294
B( 97-C , 98-N ) :   1.4389 B( 97-C ,105-H ) :   0.9606 B( 98-N , 99-C ) :   1.1878
B( 99-C ,100-C ) :   1.5421 B( 99-C ,106-H ) :   0.9397 B(100-C ,101-C ) :   1.2914
B(100-C ,107-H ) :   0.9551 B(108-C ,109-C ) :   1.2152 B(108-C ,117-C ) :   1.4261
B(109-C ,110-C ) :   1.4935 B(109-C ,118-H ) :   0.9919 B(110-C ,111-C ) :   1.2425
B(110-C ,119-H ) :   0.9920 B(111-C ,112-C ) :   1.2494 B(111-C ,116-C ) :   1.2430
B(112-C ,113-C ) :   1.5071 B(112-C ,120-H ) :   0.9908 B(113-C ,114-C ) :   1.2371
B(113-C ,121-H ) :   0.9847 B(114-C ,115-C ) :   1.4537 B(114-C ,124-C ) :   1.0043
B(115-C ,116-C ) :   1.2514 B(115-C ,122-H ) :   0.9868 B(116-C ,117-C ) :   1.2418
B(117-C ,123-H ) :   0.9940 B(124-C ,125-C ) :   1.3736 B(124-C ,129-C ) :   1.3981
B(125-C ,126-C ) :   1.4002 B(125-C ,130-H ) :   0.9805 B(126-C ,127-C ) :   1.4319
B(126-C ,131-H ) :   0.9724 B(127-C ,128-N ) :   1.3032 B(127-C ,132-H ) :   0.9420
B(128-N ,129-C ) :   1.3357 B(129-C ,133-H ) :   0.9574 B(134-C ,135-C ) :   2.5785
B(134-C ,152-C ) :   1.0117 B(135-C ,136-C ) :   1.0193 B(136-C ,137-C ) :   1.4257
B(136-C ,145-C ) :   1.2392 B(137-C ,138-C ) :   1.2675 B(137-C ,146-H ) :   0.9925
B(138-C ,139-C ) :   1.4740 B(138-C ,147-H ) :   0.9804 B(139-C ,140-C ) :   1.2384
B(139-C ,148-H ) :   0.9954 B(140-C ,141-C ) :   1.2833 B(140-C ,145-C ) :   1.2295
B(141-C ,142-N ) :   1.4394 B(141-C ,149-H ) :   0.9607 B(142-N ,143-C ) :   1.1875
B(143-C ,144-C ) :   1.5424 B(143-C ,150-H ) :   0.9394 B(144-C ,145-C ) :   1.2916
B(144-C ,151-H ) :   0.9549 B(152-C ,153-C ) :   1.2151 B(152-C ,161-C ) :   1.4259
B(153-C ,154-C ) :   1.4935 B(153-C ,162-H ) :   0.9919 B(154-C ,155-C ) :   1.2425
B(154-C ,163-H ) :   0.9920 B(155-C ,156-C ) :   1.2494 B(155-C ,160-C ) :   1.2430
B(156-C ,157-C ) :   1.5069 B(156-C ,164-H ) :   0.9909 B(157-C ,158-C ) :   1.2373
B(157-C ,165-H ) :   0.9848 B(158-C ,159-C ) :   1.4540 B(158-C ,168-C ) :   1.0039
B(159-C ,160-C ) :   1.2511 B(159-C ,166-H ) :   0.9869 B(160-C ,161-C ) :   1.2421
B(161-C ,167-H ) :   0.9939 B(168-C ,169-C ) :   1.3734 B(168-C ,173-C ) :   1.3991
B(169-C ,170-C ) :   1.4005 B(169-C ,174-H ) :   0.9806 B(170-C ,171-C ) :   1.4315
B(170-C ,175-H ) :   0.9723 B(171-C ,172-N ) :   1.3039 B(171-C ,176-H ) :   0.9423
B(172-N ,173-C ) :   1.3348 B(173-C ,177-H ) :   0.9573

Dispersion correction           -0.286507735
FINAL SINGLE POINT ENERGY     -4686.280449461347

DIPOLE MOMENT
-------------
                                X             Y             Z
Electronic contribution:      0.87343     -10.20935      -1.18791
Nuclear contribution   :     -0.93528       8.51123       1.13586
                        -----------------------------------------
Total Dipole Moment    :     -0.06184      -1.69812      -0.05205
                        -----------------------------------------
Magnitude (a.u.)       :      1.70004
Magnitude (Debye)      :      4.32116

Rotational constants in cm-1:     0.000388     0.000289     0.000287
Rotational constants in MHz :    11.623692     8.670718     8.592836

                             ****ORCA TERMINATED NORMALLY****
TOTAL RUN TIME: 0 days 0 hours 19 minutes 17 seconds 794 msec
