                         Program Version 4.2.1 -  RELEASE  -
|  1> ! DFT SP RKS PBE0 def2-SVP D3BJ Grid6 NOFINALGRID SlowConv TightSCF printbasis
|  2>
|  3> %base "_s_5a1_d_PBE0"
|  4> %maxcore 3000
|  5> %scf
|  6>    MaxIter 2000
|  7> end
|  8> %pal
|  9>    nprocs 32
| 10> end
| 11>
| 12> * xyzfile 4 1 s_5a1_d.xyz
| 13>
| 14>                          ****END OF INPUT****

CARTESIAN COORDINATES (ANGSTROEM)
---------------------------------
  Pd     0.104100    5.162200   -0.260600
  Pd    -0.156200   -6.150600    0.342200
  C      6.532700   -2.448500    0.312200
  C      6.280500   -3.605900    0.556400
  C      5.883800   -4.934600    0.805400
  C      6.793900   -5.922300    1.135300
  C      6.374000   -7.237700    1.368100
  C      5.051300   -7.587700    1.272000
  C      4.091700   -6.610400    0.933100
  C      2.718400   -6.904700    0.810600
  N      1.825500   -5.995800    0.490900
  C      2.210900   -4.710000    0.265900
  C      3.515700   -4.322300    0.358400
  C      4.504100   -5.268900    0.698300
  H      7.841600   -5.674800    1.215700
  H      7.112000   -7.982000    1.625400
  H      4.736800   -8.603600    1.451000
  H      2.361700   -7.914200    0.985500
  H      1.416000   -4.006900    0.000600
  H      3.811200   -3.302300    0.171800
  C      6.799600   -1.106500   -0.030500
  C      8.033100   -0.770500   -0.639000
  C      8.270300    0.510600   -1.043600
  C      7.300600    1.520900   -0.861900
  C      7.503300    2.844000   -1.304400
  C      6.548800    3.801300   -1.116500
  C      5.332300    3.494000   -0.462000
  C      5.109900    2.206800   -0.026500
  C      6.074200    1.196300   -0.221000
  C      5.846600   -0.132300    0.185400
  H      8.773800   -1.542300   -0.786100
  H      9.206700    0.768600   -1.516800
  H      8.429700    3.088300   -1.803100
  H      6.714900    4.798500   -1.493400
  H      4.206000    1.952400    0.505100
  H      4.915500   -0.385200    0.669200
  C      4.341100    4.560200   -0.263300
  C      4.739400    5.876800   -0.010400
  C      3.786900    6.873400    0.120900
  C      2.448000    6.539400    0.016100
  N      2.065100    5.275900   -0.190400
  C      2.969200    4.311800   -0.334000
  H      5.786300    6.114700    0.093500
  H      4.081500    7.894100    0.304200
  H      1.664000    7.295600    0.102400
  H      2.583600    3.318000   -0.533600
  C      0.190000    1.689800    6.513200
  C      0.058500    2.857500    6.227300
  C     -0.072400    4.193400    5.800200
  C     -0.215100    5.236300    6.697500
  C     -0.334600    6.557800    6.250900
  C     -0.309100    6.858800    4.912900
  C     -0.160200    5.823900    3.965800
  C     -0.114900    6.065100    2.578000
  N      0.029900    5.100800    1.699300
  C      0.136600    3.809200    2.105500
  C      0.106000    3.469700    3.427700
  C     -0.043000    4.475300    4.405200
  H     -0.235900    5.027300    7.756400
  H     -0.446600    7.345900    6.979700
  H     -0.399500    7.879400    4.576800
  H     -0.202600    7.077200    2.197600
  H      0.253700    3.055800    1.320000
  H      0.198400    2.443500    3.745600
  C      0.390600    0.327800    6.818400
  C      0.987600   -0.035200    8.050000
  C      1.243800   -1.346300    8.326300
  C      0.917900   -2.361000    7.399900
  C      1.198900   -3.720500    7.646000
  C      0.869700   -4.681500    6.734500
  C      0.230600   -4.339400    5.519200
  C     -0.046300   -3.017400    5.253300
  C      0.292100   -2.004600    6.174500
  C      0.040200   -0.646000    5.905800
  H      1.243000    0.738800    8.758300
  H      1.706300   -1.626400    9.261800
  H      1.685400   -3.990700    8.571700
  H      1.121400   -5.711800    6.932900
  H     -0.562100   -2.733000    4.349200
  H     -0.433300   -0.370100    4.976100
  C     -0.124200   -5.408900    4.576200
  C     -0.549600   -6.659600    5.034900
  C     -0.828600   -7.667300    4.127300
  C     -0.691200   -7.408700    2.775300
  N     -0.314700   -6.203800    2.331000
  C     -0.034500   -5.230800    3.194700
  H     -0.671200   -6.835500    6.092100
  H     -1.148600   -8.639600    4.465400
  H     -0.888200   -8.175500    2.024300
  H      0.293300   -4.288500    2.768900
  C     -6.668100   -2.162500   -0.034500
  C     -6.470000   -3.349800   -0.152700
  C     -6.135600   -4.714300   -0.257600
  C     -7.091300   -5.688800   -0.480600
  C     -6.733200   -7.039400   -0.570700
  C     -5.427500   -7.437600   -0.436400
  C     -4.422800   -6.474900   -0.203200
  C     -3.064000   -6.817200   -0.048400
  N     -2.129200   -5.921400    0.173300
  C     -2.454200   -4.602500    0.258700
  C     -3.740200   -4.167400    0.123700
  C     -4.772300   -5.098300   -0.113900
  H     -8.126900   -5.403300   -0.588000
  H     -7.505600   -7.772200   -0.747400
  H     -5.160700   -8.480200   -0.505200
  H     -2.754700   -7.855000   -0.113700
  H     -1.626800   -3.912400    0.448100
  H     -3.987900   -3.120700    0.199600
  C     -6.872500   -0.780800    0.162000
  C     -8.088100   -0.325500    0.727700
  C     -8.265400    1.001000    0.992400
  C     -7.250700    1.940600    0.706700
  C     -7.391600    3.311300    1.004900
  C     -6.394600    4.198300    0.718600
  C     -5.194800    3.767500    0.104000
  C     -5.032700    2.432300   -0.191000
  C     -6.041900    1.493600    0.107500
  C     -5.876300    0.120100   -0.154000
  H     -8.863000   -1.042400    0.954300
  H     -9.188000    1.350800    1.432600
  H     -8.304800    3.649700    1.472000
  H     -6.514000    5.236600    0.986400
  H     -4.142500    2.081400   -0.689800
  H     -4.958800   -0.225400   -0.605300
  C     -4.156100    4.759700   -0.204600
  C     -4.494000    6.058800   -0.597200
  C     -3.496900    6.990900   -0.831500
  C     -2.174600    6.608700   -0.688200
  N     -1.849700    5.358100   -0.347400
  C     -2.796900    4.457400   -0.104300
  H     -5.529100    6.332200   -0.728700
  H     -3.744700    7.998700   -1.123300
  H     -1.356800    7.314600   -0.852500
  H     -2.457000    3.473800    0.200900
  C     -0.151700    0.996200   -6.627200
  C      0.033500    2.180500   -6.466400
  C      0.226000    3.546800   -6.183400
  C      0.415300    4.480700   -7.186000
  C      0.595700    5.835300   -6.882100
  C      0.585600    6.277900   -5.583900
  C      0.390600    5.357600   -4.532600
  C      0.358400    5.747100   -3.178500
  N      0.170800    4.889400   -2.202700
  C      0.004300    3.568100   -2.469500
  C      0.017500    3.088800   -3.748000
  C      0.211200    3.976700   -4.826300
  H      0.425400    4.159300   -8.216500
  H      0.742800    6.535400   -7.690300
  H      0.723100    7.323400   -5.358000
  H      0.492900    6.788800   -2.907600
  H     -0.146400    2.908900   -1.608700
  H     -0.122400    2.039900   -3.955100
  C     -0.415000   -0.379900   -6.786900
  C     -1.029700   -0.843800   -7.975100
  C     -1.346600   -2.163600   -8.111700
  C     -1.066600   -3.088100   -7.081600
  C     -1.410500   -4.451600   -7.183000
  C     -1.124900   -5.324600   -6.173500
  C     -0.468800   -4.885200   -4.999200
  C     -0.130700   -3.556600   -4.874200
  C     -0.423300   -2.632800   -5.898800
  C     -0.108600   -1.266400   -5.774900
  H     -1.250100   -0.138400   -8.762400
  H     -1.822800   -2.519800   -9.013800
  H     -1.910400   -4.795800   -8.076500
  H     -1.424300   -6.357300   -6.262300
  H      0.399100   -3.201900   -4.003700
  H      0.378400   -0.915400   -4.878000
  C     -0.162500   -5.863600   -3.946700
  C      0.203800   -7.174400   -4.268400
  C      0.437300   -8.091600   -3.257800
  C      0.314500   -7.684500   -1.941500
  N     -0.005100   -6.423100   -1.629100
  C     -0.241500   -5.535700   -2.592300
  H      0.315300   -7.467200   -5.300500
  H      0.711400   -9.108100   -3.489500
  H      0.477200   -8.375300   -1.112500
  H     -0.524800   -4.539200   -2.270200

 Total Charge           Charge          ....    4
 Multiplicity           Mult            ....    1
 Number of Electrons    NEL             ....  776
 Basis Dimension        Dim             .... 1950

ORBITAL ENERGIES
----------------

  NO   OCC          E(Eh)            E(eV)
   0   2.0000     -14.744708      -401.2239
   1   2.0000     -14.744679      -401.2231
   2   2.0000     -14.744323      -401.2134
   3   2.0000     -14.744296      -401.2127
   4   2.0000     -14.741040      -401.1241
   5   2.0000     -14.741009      -401.1233
   6   2.0000     -14.740442      -401.1078
   7   2.0000     -14.740416      -401.1071
   8   2.0000     -10.578790      -287.8635
   9   2.0000     -10.578773      -287.8631
  10   2.0000     -10.578689      -287.8608
  11   2.0000     -10.578663      -287.8600
  12   2.0000     -10.574141      -287.7370
  13   2.0000     -10.574130      -287.7367
  14   2.0000     -10.573688      -287.7247
  15   2.0000     -10.573675      -287.7243
  16   2.0000     -10.572643      -287.6963
  17   2.0000     -10.572621      -287.6956
  18   2.0000     -10.572019      -287.6793
  19   2.0000     -10.571989      -287.6785
  20   2.0000     -10.567795      -287.5643
  21   2.0000     -10.567775      -287.5638
  22   2.0000     -10.567384      -287.5531
  23   2.0000     -10.567359      -287.5525
  24   2.0000     -10.542264      -286.8696
  25   2.0000     -10.542255      -286.8693
  26   2.0000     -10.541728      -286.8550
  27   2.0000     -10.541714      -286.8546
  28   2.0000     -10.536669      -286.7173
  29   2.0000     -10.536665      -286.7172
  30   2.0000     -10.536585      -286.7151
  31   2.0000     -10.536568      -286.7146
  32   2.0000     -10.535561      -286.6872
  33   2.0000     -10.535560      -286.6872
  34   2.0000     -10.535434      -286.6837
  35   2.0000     -10.535431      -286.6837
  36   2.0000     -10.533756      -286.6381
  37   2.0000     -10.533751      -286.6379
  38   2.0000     -10.533647      -286.6351
  39   2.0000     -10.533630      -286.6347
  40   2.0000     -10.531516      -286.5771
  41   2.0000     -10.531512      -286.5770
  42   2.0000     -10.531497      -286.5766
  43   2.0000     -10.531493      -286.5765
  44   2.0000     -10.531102      -286.5659
  45   2.0000     -10.531085      -286.5654
  46   2.0000     -10.530993      -286.5629
  47   2.0000     -10.530971      -286.5623
  48   2.0000     -10.528278      -286.4890
  49   2.0000     -10.528277      -286.4890
  50   2.0000     -10.528208      -286.4871
  51   2.0000     -10.528197      -286.4868
  52   2.0000     -10.509801      -285.9862
  53   2.0000     -10.509791      -285.9859
  54   2.0000     -10.509736      -285.9844
  55   2.0000     -10.509734      -285.9844
  56   2.0000     -10.507968      -285.9363
  57   2.0000     -10.507951      -285.9359
  58   2.0000     -10.507888      -285.9342
  59   2.0000     -10.507872      -285.9337
  60   2.0000     -10.507587      -285.9260
  61   2.0000     -10.507582      -285.9258
  62   2.0000     -10.507432      -285.9218
  63   2.0000     -10.507423      -285.9215
  64   2.0000     -10.505423      -285.8671
  65   2.0000     -10.505422      -285.8671
  66   2.0000     -10.505419      -285.8670
  67   2.0000     -10.505418      -285.8670
  68   2.0000     -10.502386      -285.7844
  69   2.0000     -10.502375      -285.7841
  70   2.0000     -10.502339      -285.7832
  71   2.0000     -10.502329      -285.7829
  72   2.0000     -10.497701      -285.6570
  73   2.0000     -10.497696      -285.6568
  74   2.0000     -10.497525      -285.6522
  75   2.0000     -10.497513      -285.6519
  76   2.0000     -10.494550      -285.5712
  77   2.0000     -10.494542      -285.5710
  78   2.0000     -10.494522      -285.5705
  79   2.0000     -10.494510      -285.5701
  80   2.0000     -10.491151      -285.4787
  81   2.0000     -10.491148      -285.4787
  82   2.0000     -10.491110      -285.4776
  83   2.0000     -10.491107      -285.4775
  84   2.0000     -10.489862      -285.4436
  85   2.0000     -10.489852      -285.4434
  86   2.0000     -10.489828      -285.4427
  87   2.0000     -10.489822      -285.4426
  88   2.0000     -10.489609      -285.4368
  89   2.0000     -10.489590      -285.4362
  90   2.0000     -10.489546      -285.4350
  91   2.0000     -10.489545      -285.4350
  92   2.0000     -10.486048      -285.3399
  93   2.0000     -10.486033      -285.3395
  94   2.0000     -10.485990      -285.3383
  95   2.0000     -10.485984      -285.3381
  96   2.0000     -10.484636      -285.3015
  97   2.0000     -10.484625      -285.3011
  98   2.0000     -10.484584      -285.3000
  99   2.0000     -10.484583      -285.3000
 100   2.0000     -10.481015      -285.2029
 101   2.0000     -10.481004      -285.2026
 102   2.0000     -10.480918      -285.2003
 103   2.0000     -10.480911      -285.2001
 104   2.0000     -10.479266      -285.1553
 105   2.0000     -10.479252      -285.1549
 106   2.0000     -10.479233      -285.1544
 107   2.0000     -10.479226      -285.1542
 108   2.0000     -10.475358      -285.0490
 109   2.0000     -10.475353      -285.0488
 110   2.0000     -10.475295      -285.0473
 111   2.0000     -10.475284      -285.0470
 112   2.0000      -3.843335      -104.5825
 113   2.0000      -3.842259      -104.5532
 114   2.0000      -2.521586       -68.6158
 115   2.0000      -2.520960       -68.5988
 116   2.0000      -2.519617       -68.5623
 117   2.0000      -2.519418       -68.5568
 118   2.0000      -2.484217       -67.5990
 119   2.0000      -2.483022       -67.5665
 120   2.0000      -1.298554       -35.3354
 121   2.0000      -1.295863       -35.2622
 122   2.0000      -1.291532       -35.1444
 123   2.0000      -1.289785       -35.0968
 124   2.0000      -1.289103       -35.0783
 125   2.0000      -1.288283       -35.0560
 126   2.0000      -1.287236       -35.0275
 127   2.0000      -1.286724       -35.0136
 128   2.0000      -1.167720       -31.7753
 129   2.0000      -1.167438       -31.7676
 130   2.0000      -1.166939       -31.7540
 131   2.0000      -1.166776       -31.7496
 132   2.0000      -1.157569       -31.4991
 133   2.0000      -1.157456       -31.4960
 134   2.0000      -1.157303       -31.4918
 135   2.0000      -1.157257       -31.4906
 136   2.0000      -1.132769       -30.8242
 137   2.0000      -1.132357       -30.8130
 138   2.0000      -1.131606       -30.7926
 139   2.0000      -1.131381       -30.7864
 140   2.0000      -1.104626       -30.0584
 141   2.0000      -1.104109       -30.0443
 142   2.0000      -1.103808       -30.0361
 143   2.0000      -1.103751       -30.0346
 144   2.0000      -1.101169       -29.9643
 145   2.0000      -1.100855       -29.9558
 146   2.0000      -1.100563       -29.9479
 147   2.0000      -1.100531       -29.9470
 148   2.0000      -1.086124       -29.5549
 149   2.0000      -1.086097       -29.5542
 150   2.0000      -1.085395       -29.5351
 151   2.0000      -1.085339       -29.5336
 152   2.0000      -1.078180       -29.3388
 153   2.0000      -1.077728       -29.3265
 154   2.0000      -1.076522       -29.2937
 155   2.0000      -1.076304       -29.2877
 156   2.0000      -1.056094       -28.7378
 157   2.0000      -1.055961       -28.7342
 158   2.0000      -1.055458       -28.7205
 159   2.0000      -1.055085       -28.7103
 160   2.0000      -1.044594       -28.4248
 161   2.0000      -1.044395       -28.4194
 162   2.0000      -1.044359       -28.4185
 163   2.0000      -1.044126       -28.4121
 164   2.0000      -1.031345       -28.0643
 165   2.0000      -1.031009       -28.0552
 166   2.0000      -1.030969       -28.0541
 167   2.0000      -1.030775       -28.0488
 168   2.0000      -1.002644       -27.2833
 169   2.0000      -1.002542       -27.2806
 170   2.0000      -1.002208       -27.2715
 171   2.0000      -1.001972       -27.2650
 172   2.0000      -0.984174       -26.7807
 173   2.0000      -0.984129       -26.7795
 174   2.0000      -0.984043       -26.7772
 175   2.0000      -0.984005       -26.7761
 176   2.0000      -0.962374       -26.1875
 177   2.0000      -0.960976       -26.1495
 178   2.0000      -0.960971       -26.1493
 179   2.0000      -0.959940       -26.1213
 180   2.0000      -0.955244       -25.9935
 181   2.0000      -0.955129       -25.9904
 182   2.0000      -0.954159       -25.9640
 183   2.0000      -0.953951       -25.9583
 184   2.0000      -0.942595       -25.6493
 185   2.0000      -0.941845       -25.6289
 186   2.0000      -0.939413       -25.5627
 187   2.0000      -0.939062       -25.5532
 188   2.0000      -0.934963       -25.4416
 189   2.0000      -0.934368       -25.4255
 190   2.0000      -0.932718       -25.3805
 191   2.0000      -0.932418       -25.3724
 192   2.0000      -0.919129       -25.0108
 193   2.0000      -0.919000       -25.0073
 194   2.0000      -0.918972       -25.0065
 195   2.0000      -0.918878       -25.0039
 196   2.0000      -0.895641       -24.3716
 197   2.0000      -0.894897       -24.3514
 198   2.0000      -0.894872       -24.3507
 199   2.0000      -0.894841       -24.3499
 200   2.0000      -0.884665       -24.0730
 201   2.0000      -0.883271       -24.0350
 202   2.0000      -0.880863       -23.9695
 203   2.0000      -0.880738       -23.9661
 204   2.0000      -0.865929       -23.5631
 205   2.0000      -0.865708       -23.5571
 206   2.0000      -0.865537       -23.5525
 207   2.0000      -0.865528       -23.5522
 208   2.0000      -0.857029       -23.3209
 209   2.0000      -0.853811       -23.2334
 210   2.0000      -0.848311       -23.0837
 211   2.0000      -0.845041       -22.9947
 212   2.0000      -0.844087       -22.9688
 213   2.0000      -0.843602       -22.9556
 214   2.0000      -0.841880       -22.9087
 215   2.0000      -0.841380       -22.8951
 216   2.0000      -0.833028       -22.6678
 217   2.0000      -0.831731       -22.6325
 218   2.0000      -0.830219       -22.5914
 219   2.0000      -0.829363       -22.5681
 220   2.0000      -0.816160       -22.2088
 221   2.0000      -0.814537       -22.1647
 222   2.0000      -0.812895       -22.1200
 223   2.0000      -0.812246       -22.1023
 224   2.0000      -0.811716       -22.0879
 225   2.0000      -0.811036       -22.0694
 226   2.0000      -0.806291       -21.9403
 227   2.0000      -0.805934       -21.9306
 228   2.0000      -0.797139       -21.6912
 229   2.0000      -0.796669       -21.6785
 230   2.0000      -0.795675       -21.6514
 231   2.0000      -0.795587       -21.6490
 232   2.0000      -0.781535       -21.2666
 233   2.0000      -0.781292       -21.2600
 234   2.0000      -0.780888       -21.2491
 235   2.0000      -0.780812       -21.2470
 236   2.0000      -0.779767       -21.2185
 237   2.0000      -0.778560       -21.1857
 238   2.0000      -0.776846       -21.1391
 239   2.0000      -0.776740       -21.1362
 240   2.0000      -0.776575       -21.1317
 241   2.0000      -0.770847       -20.9758
 242   2.0000      -0.769103       -20.9283
 243   2.0000      -0.767605       -20.8876
 244   2.0000      -0.763682       -20.7808
 245   2.0000      -0.761119       -20.7111
 246   2.0000      -0.760715       -20.7001
 247   2.0000      -0.760445       -20.6928
 248   2.0000      -0.760374       -20.6908
 249   2.0000      -0.759619       -20.6703
 250   2.0000      -0.758773       -20.6473
 251   2.0000      -0.758078       -20.6283
 252   2.0000      -0.749834       -20.4040
 253   2.0000      -0.749466       -20.3940
 254   2.0000      -0.749189       -20.3865
 255   2.0000      -0.748252       -20.3610
 256   2.0000      -0.742199       -20.1963
 257   2.0000      -0.740598       -20.1527
 258   2.0000      -0.740315       -20.1450
 259   2.0000      -0.739453       -20.1215
 260   2.0000      -0.739152       -20.1133
 261   2.0000      -0.738545       -20.0968
 262   2.0000      -0.734596       -19.9894
 263   2.0000      -0.734245       -19.9798
 264   2.0000      -0.731444       -19.9036
 265   2.0000      -0.730812       -19.8864
 266   2.0000      -0.726886       -19.7796
 267   2.0000      -0.726714       -19.7749
 268   2.0000      -0.726647       -19.7731
 269   2.0000      -0.726198       -19.7608
 270   2.0000      -0.722525       -19.6609
 271   2.0000      -0.722230       -19.6529
 272   2.0000      -0.719914       -19.5898
 273   2.0000      -0.719382       -19.5754
 274   2.0000      -0.716839       -19.5062
 275   2.0000      -0.716619       -19.5002
 276   2.0000      -0.710549       -19.3350
 277   2.0000      -0.710227       -19.3263
 278   2.0000      -0.709651       -19.3106
 279   2.0000      -0.709618       -19.3097
 280   2.0000      -0.708810       -19.2877
 281   2.0000      -0.707353       -19.2480
 282   2.0000      -0.704752       -19.1773
 283   2.0000      -0.704315       -19.1654
 284   2.0000      -0.704153       -19.1610
 285   2.0000      -0.703851       -19.1528
 286   2.0000      -0.692308       -18.8387
 287   2.0000      -0.691783       -18.8244
 288   2.0000      -0.686231       -18.6733
 289   2.0000      -0.685645       -18.6573
 290   2.0000      -0.684645       -18.6301
 291   2.0000      -0.684637       -18.6299
 292   2.0000      -0.684003       -18.6127
 293   2.0000      -0.683407       -18.5964
 294   2.0000      -0.680064       -18.5055
 295   2.0000      -0.679815       -18.4987
 296   2.0000      -0.679212       -18.4823
 297   2.0000      -0.679161       -18.4809
 298   2.0000      -0.676494       -18.4083
 299   2.0000      -0.675252       -18.3746
 300   2.0000      -0.672905       -18.3107
 301   2.0000      -0.671665       -18.2769
 302   2.0000      -0.670159       -18.2360
 303   2.0000      -0.670108       -18.2346
 304   2.0000      -0.667941       -18.1756
 305   2.0000      -0.667776       -18.1711
 306   2.0000      -0.667652       -18.1677
 307   2.0000      -0.665371       -18.1057
 308   2.0000      -0.662424       -18.0255
 309   2.0000      -0.662372       -18.0241
 310   2.0000      -0.661036       -17.9877
 311   2.0000      -0.660560       -17.9747
 312   2.0000      -0.658692       -17.9239
 313   2.0000      -0.658561       -17.9204
 314   2.0000      -0.645358       -17.5611
 315   2.0000      -0.645133       -17.5550
 316   2.0000      -0.641603       -17.4589
 317   2.0000      -0.641269       -17.4498
 318   2.0000      -0.640614       -17.4320
 319   2.0000      -0.639213       -17.3939
 320   2.0000      -0.636316       -17.3150
 321   2.0000      -0.636203       -17.3120
 322   2.0000      -0.636058       -17.3080
 323   2.0000      -0.635001       -17.2793
 324   2.0000      -0.634859       -17.2754
 325   2.0000      -0.632979       -17.2242
 326   2.0000      -0.628955       -17.1147
 327   2.0000      -0.628532       -17.1032
 328   2.0000      -0.622049       -16.9268
 329   2.0000      -0.620787       -16.8925
 330   2.0000      -0.619816       -16.8660
 331   2.0000      -0.617272       -16.7968
 332   2.0000      -0.616260       -16.7693
 333   2.0000      -0.615459       -16.7475
 334   2.0000      -0.612226       -16.6595
 335   2.0000      -0.611307       -16.6345
 336   2.0000      -0.609490       -16.5851
 337   2.0000      -0.608817       -16.5668
 338   2.0000      -0.608704       -16.5637
 339   2.0000      -0.608629       -16.5616
 340   2.0000      -0.608431       -16.5563
 341   2.0000      -0.607704       -16.5365
 342   2.0000      -0.603836       -16.4312
 343   2.0000      -0.602627       -16.3983
 344   2.0000      -0.601984       -16.3808
 345   2.0000      -0.601255       -16.3610
 346   2.0000      -0.594527       -16.1779
 347   2.0000      -0.594520       -16.1777
 348   2.0000      -0.594197       -16.1689
 349   2.0000      -0.594050       -16.1649
 350   2.0000      -0.591094       -16.0845
 351   2.0000      -0.590056       -16.0563
 352   2.0000      -0.588378       -16.0106
 353   2.0000      -0.583006       -15.8644
 354   2.0000      -0.581410       -15.8210
 355   2.0000      -0.580607       -15.7991
 356   2.0000      -0.580483       -15.7958
 357   2.0000      -0.577305       -15.7093
 358   2.0000      -0.566302       -15.4099
 359   2.0000      -0.566197       -15.4070
 360   2.0000      -0.561692       -15.2844
 361   2.0000      -0.561378       -15.2759
 362   2.0000      -0.559491       -15.2245
 363   2.0000      -0.558509       -15.1978
 364   2.0000      -0.550842       -14.9892
 365   2.0000      -0.549973       -14.9655
 366   2.0000      -0.549923       -14.9642
 367   2.0000      -0.548893       -14.9361
 368   2.0000      -0.547043       -14.8858
 369   2.0000      -0.546945       -14.8831
 370   2.0000      -0.546329       -14.8664
 371   2.0000      -0.545829       -14.8528
 372   2.0000      -0.540464       -14.7068
 373   2.0000      -0.540386       -14.7047
 374   2.0000      -0.540153       -14.6983
 375   2.0000      -0.540043       -14.6953
 376   2.0000      -0.516363       -14.0509
 377   2.0000      -0.516328       -14.0500
 378   2.0000      -0.515322       -14.0226
 379   2.0000      -0.514743       -14.0069
 380   2.0000      -0.487899       -13.2764
 381   2.0000      -0.487496       -13.2655
 382   2.0000      -0.487466       -13.2646
 383   2.0000      -0.486992       -13.2517
 384   2.0000      -0.470310       -12.7978
 385   2.0000      -0.470292       -12.7973
 386   2.0000      -0.470105       -12.7922
 387   2.0000      -0.470018       -12.7898
 388   0.0000      -0.343136        -9.3372
 389   0.0000      -0.342691        -9.3251
 390   0.0000      -0.340721        -9.2715
 391   0.0000      -0.340133        -9.2555
 392   0.0000      -0.333262        -9.0685

MULLIKEN ATOMIC CHARGES
-----------------------
   0 Pd:    0.398233
   1 Pd:    0.406354
   2 C :    0.014081
   3 C :   -0.050087
   4 C :   -0.012488
   5 C :    0.042133
   6 C :    0.019546
   7 C :    0.017371
   8 C :   -0.058763
   9 C :    0.157401
  10 N :   -0.316037
  11 C :    0.124100
  12 C :    0.011298
  13 C :    0.059644
  14 H :    0.061579
  15 H :    0.074954
  16 H :    0.043344
  17 H :    0.060970
  18 H :    0.059977
  19 H :    0.034717
  20 C :   -0.047033
  21 C :    0.047959
  22 C :    0.010959
  23 C :    0.008674
  24 C :    0.013749
  25 C :   -0.016207
  26 C :    0.048908
  27 C :   -0.045447
  28 C :    0.056628
  29 C :   -0.023779
  30 H :    0.045884
  31 H :    0.043783
  32 H :    0.042213
  33 H :    0.032103
  34 H :   -0.015414
  35 H :   -0.012188
  36 C :   -0.030213
  37 C :    0.059754
  38 C :   -0.013230
  39 C :    0.123031
  40 N :   -0.306834
  41 C :    0.142036
  42 H :    0.076564
  43 H :    0.078434
  44 H :    0.088391
  45 H :    0.046032
  46 C :    0.015392
  47 C :   -0.052094
  48 C :   -0.012056
  49 C :    0.041770
  50 C :    0.020049
  51 C :    0.017531
  52 C :   -0.058041
  53 C :    0.159521
  54 N :   -0.316904
  55 C :    0.128886
  56 C :    0.011297
  57 C :    0.059044
  58 H :    0.061475
  59 H :    0.075062
  60 H :    0.043216
  61 H :    0.058159
  62 H :    0.059024
  63 H :    0.034044
  64 C :   -0.045930
  65 C :    0.047672
  66 C :    0.011032
  67 C :    0.008529
  68 C :    0.013539
  69 C :   -0.015642
  70 C :    0.046463
  71 C :   -0.044284
  72 C :    0.056688
  73 C :   -0.024256
  74 H :    0.045661
  75 H :    0.043672
  76 H :    0.042066
  77 H :    0.031855
  78 H :   -0.015558
  79 H :   -0.012721
  80 C :   -0.033525
  81 C :    0.062431
  82 C :   -0.015108
  83 C :    0.122800
  84 N :   -0.305296
  85 C :    0.140096
  86 H :    0.076808
  87 H :    0.079045
  88 H :    0.088741
  89 H :    0.049022
  90 C :    0.014066
  91 C :   -0.050086
  92 C :   -0.012438
  93 C :    0.042098
  94 C :    0.019574
  95 C :    0.017330
  96 C :   -0.058716
  97 C :    0.157369
  98 N :   -0.315932
  99 C :    0.124153
 100 C :    0.011182
 101 C :    0.059657
 102 H :    0.061599
 103 H :    0.074953
 104 H :    0.043329
 105 H :    0.060912
 106 H :    0.059952
 107 H :    0.034740
 108 C :   -0.047052
 109 C :    0.048051
 110 C :    0.010987
 111 C :    0.008637
 112 C :    0.013758
 113 C :   -0.016174
 114 C :    0.048869
 115 C :   -0.045452
 116 C :    0.056644
 117 C :   -0.023732
 118 H :    0.045830
 119 H :    0.043784
 120 H :    0.042229
 121 H :    0.032103
 122 H :   -0.015467
 123 H :   -0.012232
 124 C :   -0.030112
 125 C :    0.059652
 126 C :   -0.013217
 127 C :    0.123065
 128 N :   -0.306817
 129 C :    0.142075
 130 H :    0.076593
 131 H :    0.078437
 132 H :    0.088329
 133 H :    0.045997
 134 C :    0.015424
 135 C :   -0.052129
 136 C :   -0.012079
 137 C :    0.041797
 138 C :    0.020026
 139 C :    0.017465
 140 C :   -0.058041
 141 C :    0.159578
 142 N :   -0.316964
 143 C :    0.128930
 144 C :    0.011250
 145 C :    0.059126
 146 H :    0.061444
 147 H :    0.075097
 148 H :    0.043281
 149 H :    0.058135
 150 H :    0.058991
 151 H :    0.034039
 152 C :   -0.045914
 153 C :    0.047640
 154 C :    0.011084
 155 C :    0.008516
 156 C :    0.013494
 157 C :   -0.015549
 158 C :    0.046453
 159 C :   -0.044281
 160 C :    0.056715
 161 C :   -0.024269
 162 H :    0.045655
 163 H :    0.043658
 164 H :    0.042102
 165 H :    0.031810
 166 H :   -0.015599
 167 H :   -0.012698
 168 C :   -0.033556
 169 C :    0.062475
 170 C :   -0.015113
 171 C :    0.122771
 172 N :   -0.305181
 173 C :    0.140011
 174 H :    0.076805
 175 H :    0.079048
 176 H :    0.088778
 177 H :    0.048989
Sum of atomic charges:    4.0000000

LOEWDIN ATOMIC CHARGES
----------------------
   0 Pd:   -0.379322
   1 Pd:   -0.357466
   2 C :    0.006212
   3 C :   -0.038595
   4 C :   -0.029357
   5 C :    0.050139
   6 C :    0.020310
   7 C :    0.008621
   8 C :   -0.029612
   9 C :    0.096722
  10 N :    0.059680
  11 C :    0.029348
  12 C :    0.009795
  13 C :    0.018322
  14 H :    0.061136
  15 H :    0.060746
  16 H :    0.049567
  17 H :    0.053836
  18 H :    0.051443
  19 H :    0.052784
  20 C :   -0.047018
  21 C :    0.017640
  22 C :    0.010828
  23 C :   -0.006244
  24 C :    0.016917
  25 C :   -0.014672
  26 C :   -0.040110
  27 C :   -0.008392
  28 C :   -0.017970
  29 C :    0.002514
  30 H :    0.052695
  31 H :    0.051723
  32 H :    0.051820
  33 H :    0.041425
  34 H :    0.025012
  35 H :    0.029058
  36 C :   -0.003553
  37 C :    0.054299
  38 C :    0.003478
  39 C :    0.059794
  40 N :    0.074085
  41 C :    0.070219
  42 H :    0.060409
  43 H :    0.064736
  44 H :    0.059925
  45 H :    0.044948
  46 C :    0.006353
  47 C :   -0.038756
  48 C :   -0.029143
  49 C :    0.049943
  50 C :    0.020798
  51 C :    0.008407
  52 C :   -0.028786
  53 C :    0.097013
  54 N :    0.062318
  55 C :    0.029378
  56 C :    0.010668
  57 C :    0.017891
  58 H :    0.061105
  59 H :    0.060821
  60 H :    0.049548
  61 H :    0.053417
  62 H :    0.052274
  63 H :    0.052252
  64 C :   -0.046989
  65 C :    0.017422
  66 C :    0.010736
  67 C :   -0.006421
  68 C :    0.016709
  69 C :   -0.015002
  70 C :   -0.040012
  71 C :   -0.008720
  72 C :   -0.017986
  73 C :    0.002657
  74 H :    0.052612
  75 H :    0.051679
  76 H :    0.051730
  77 H :    0.041349
  78 H :    0.025047
  79 H :    0.028833
  80 C :   -0.004881
  81 C :    0.055078
  82 C :    0.002791
  83 C :    0.061193
  84 N :    0.071556
  85 C :    0.069140
  86 H :    0.060541
  87 H :    0.065067
  88 H :    0.058929
  89 H :    0.045147
  90 C :    0.006211
  91 C :   -0.038582
  92 C :   -0.029353
  93 C :    0.050112
  94 C :    0.020319
  95 C :    0.008639
  96 C :   -0.029605
  97 C :    0.096682
  98 N :    0.059688
  99 C :    0.029337
 100 C :    0.009767
 101 C :    0.018311
 102 H :    0.061148
 103 H :    0.060751
 104 H :    0.049559
 105 H :    0.053829
 106 H :    0.051451
 107 H :    0.052792
 108 C :   -0.047010
 109 C :    0.017675
 110 C :    0.010825
 111 C :   -0.006229
 112 C :    0.016912
 113 C :   -0.014653
 114 C :   -0.040113
 115 C :   -0.008379
 116 C :   -0.017978
 117 C :    0.002538
 118 H :    0.052669
 119 H :    0.051723
 120 H :    0.051827
 121 H :    0.041422
 122 H :    0.024997
 123 H :    0.029037
 124 C :   -0.003567
 125 C :    0.054303
 126 C :    0.003482
 127 C :    0.059776
 128 N :    0.074090
 129 C :    0.070245
 130 H :    0.060418
 131 H :    0.064738
 132 H :    0.059925
 133 H :    0.044941
 134 C :    0.006372
 135 C :   -0.038772
 136 C :   -0.029126
 137 C :    0.049921
 138 C :    0.020765
 139 C :    0.008368
 140 C :   -0.028775
 141 C :    0.097036
 142 N :    0.062308
 143 C :    0.029410
 144 C :    0.010673
 145 C :    0.017876
 146 H :    0.061096
 147 H :    0.060845
 148 H :    0.049579
 149 H :    0.053402
 150 H :    0.052261
 151 H :    0.052252
 152 C :   -0.047001
 153 C :    0.017414
 154 C :    0.010759
 155 C :   -0.006412
 156 C :    0.016706
 157 C :   -0.014963
 158 C :   -0.040003
 159 C :   -0.008715
 160 C :   -0.017998
 161 C :    0.002661
 162 H :    0.052608
 163 H :    0.051674
 164 H :    0.051743
 165 H :    0.041329
 166 H :    0.025033
 167 H :    0.028844
 168 C :   -0.004888
 169 C :    0.055115
 170 C :    0.002782
 171 C :    0.061177
 172 N :    0.071580
 173 C :    0.069092
 174 H :    0.060535
 175 H :    0.065072
 176 H :    0.058949
 177 H :    0.045166

  Mayer bond orders larger than 0.100000
B(  0-Pd, 40-N ) :   0.5424 B(  0-Pd, 54-N ) :   0.5438 B(  0-Pd,128-N ) :   0.5424
B(  0-Pd,142-N ) :   0.5438 B(  1-Pd, 10-N ) :   0.5361 B(  1-Pd, 84-N ) :   0.5362
B(  1-Pd, 98-N ) :   0.5360 B(  1-Pd,172-N ) :   0.5362 B(  2-C ,  3-C ) :   2.5859
B(  2-C , 20-C ) :   1.0080 B(  3-C ,  4-C ) :   1.0056 B(  4-C ,  5-C ) :   1.4294
B(  4-C , 13-C ) :   1.2406 B(  5-C ,  6-C ) :   1.2698 B(  5-C , 14-H ) :   0.9920
B(  6-C ,  7-C ) :   1.4704 B(  6-C , 15-H ) :   0.9807 B(  7-C ,  8-C ) :   1.2403
B(  7-C , 16-H ) :   0.9957 B(  8-C ,  9-C ) :   1.2845 B(  8-C , 13-C ) :   1.2257
B(  9-C , 10-N ) :   1.4475 B(  9-C , 17-H ) :   0.9590 B( 10-N , 11-C ) :   1.1786
B( 11-C , 12-C ) :   1.5392 B( 11-C , 18-H ) :   0.9396 B( 12-C , 13-C ) :   1.2897
B( 12-C , 19-H ) :   0.9552 B( 20-C , 21-C ) :   1.2160 B( 20-C , 29-C ) :   1.4250
B( 21-C , 22-C ) :   1.4960 B( 21-C , 30-H ) :   0.9913 B( 22-C , 23-C ) :   1.2420
B( 22-C , 31-H ) :   0.9921 B( 23-C , 24-C ) :   1.2496 B( 23-C , 28-C ) :   1.2441
B( 24-C , 25-C ) :   1.5083 B( 24-C , 32-H ) :   0.9905 B( 25-C , 26-C ) :   1.2385
B( 25-C , 33-H ) :   0.9838 B( 26-C , 27-C ) :   1.4475 B( 26-C , 36-C ) :   1.0117
B( 27-C , 28-C ) :   1.2537 B( 27-C , 34-H ) :   0.9848 B( 28-C , 29-C ) :   1.2377
B( 29-C , 35-H ) :   0.9960 B( 36-C , 37-C ) :   1.3758 B( 36-C , 41-C ) :   1.3926
B( 37-C , 38-C ) :   1.4016 B( 37-C , 42-H ) :   0.9796 B( 38-C , 39-C ) :   1.4307
B( 38-C , 43-H ) :   0.9720 B( 39-C , 40-N ) :   1.2937 B( 39-C , 44-H ) :   0.9449
B( 40-N , 41-C ) :   1.3491 B( 41-C , 45-H ) :   0.9568 B( 46-C , 47-C ) :   2.5852
B( 46-C , 64-C ) :   1.0085 B( 47-C , 48-C ) :   1.0050 B( 48-C , 49-C ) :   1.4293
B( 48-C , 57-C ) :   1.2397 B( 49-C , 50-C ) :   1.2706 B( 49-C , 58-H ) :   0.9920
B( 50-C , 51-C ) :   1.4691 B( 50-C , 59-H ) :   0.9808 B( 51-C , 52-C ) :   1.2409
B( 51-C , 60-H ) :   0.9959 B( 52-C , 53-C ) :   1.2850 B( 52-C , 57-C ) :   1.2253
B( 53-C , 54-N ) :   1.4453 B( 53-C , 61-H ) :   0.9588 B( 54-N , 55-C ) :   1.1726
B( 55-C , 56-C ) :   1.5374 B( 55-C , 62-H ) :   0.9394 B( 56-C , 57-C ) :   1.2915
B( 56-C , 63-H ) :   0.9549 B( 64-C , 65-C ) :   1.2154 B( 64-C , 73-C ) :   1.4240
B( 65-C , 66-C ) :   1.4962 B( 65-C , 74-H ) :   0.9913 B( 66-C , 67-C ) :   1.2418
B( 66-C , 75-H ) :   0.9920 B( 67-C , 68-C ) :   1.2497 B( 67-C , 72-C ) :   1.2440
B( 68-C , 69-C ) :   1.5077 B( 68-C , 76-H ) :   0.9906 B( 69-C , 70-C ) :   1.2391
B( 69-C , 77-H ) :   0.9840 B( 70-C , 71-C ) :   1.4490 B( 70-C , 80-C ) :   1.0099
B( 71-C , 72-C ) :   1.2529 B( 71-C , 78-H ) :   0.9851 B( 72-C , 73-C ) :   1.2386
B( 73-C , 79-H ) :   0.9961 B( 80-C , 81-C ) :   1.3754 B( 80-C , 85-C ) :   1.3960
B( 81-C , 82-C ) :   1.4005 B( 81-C , 86-H ) :   0.9799 B( 82-C , 83-C ) :   1.4312
B( 82-C , 87-H ) :   0.9722 B( 83-C , 84-N ) :   1.3030 B( 83-C , 88-H ) :   0.9460
B( 84-N , 85-C ) :   1.3480 B( 85-C , 89-H ) :   0.9554 B( 90-C , 91-C ) :   2.5857
B( 90-C ,108-C ) :   1.0081 B( 91-C , 92-C ) :   1.0056 B( 92-C , 93-C ) :   1.4293
B( 92-C ,101-C ) :   1.2406 B( 93-C , 94-C ) :   1.2700 B( 93-C ,102-H ) :   0.9920
B( 94-C , 95-C ) :   1.4702 B( 94-C ,103-H ) :   0.9807 B( 95-C , 96-C ) :   1.2404
B( 95-C ,104-H ) :   0.9957 B( 96-C , 97-C ) :   1.2845 B( 96-C ,101-C ) :   1.2255
B( 97-C , 98-N ) :   1.4475 B( 97-C ,105-H ) :   0.9590 B( 98-N , 99-C ) :   1.1786
B( 99-C ,100-C ) :   1.5392 B( 99-C ,106-H ) :   0.9396 B(100-C ,101-C ) :   1.2898
B(100-C ,107-H ) :   0.9551 B(108-C ,109-C ) :   1.2159 B(108-C ,117-C ) :   1.4250
B(109-C ,110-C ) :   1.4961 B(109-C ,118-H ) :   0.9913 B(110-C ,111-C ) :   1.2419
B(110-C ,119-H ) :   0.9920 B(111-C ,112-C ) :   1.2496 B(111-C ,116-C ) :   1.2441
B(112-C ,113-C ) :   1.5084 B(112-C ,120-H ) :   0.9905 B(113-C ,114-C ) :   1.2385
B(113-C ,121-H ) :   0.9837 B(114-C ,115-C ) :   1.4475 B(114-C ,124-C ) :   1.0118
B(115-C ,116-C ) :   1.2537 B(115-C ,122-H ) :   0.9848 B(116-C ,117-C ) :   1.2376
B(117-C ,123-H ) :   0.9960 B(124-C ,125-C ) :   1.3758 B(124-C ,129-C ) :   1.3925
B(125-C ,126-C ) :   1.4016 B(125-C ,130-H ) :   0.9796 B(126-C ,127-C ) :   1.4308
B(126-C ,131-H ) :   0.9720 B(127-C ,128-N ) :   1.2937 B(127-C ,132-H ) :   0.9449
B(128-N ,129-C ) :   1.3491 B(129-C ,133-H ) :   0.9568 B(134-C ,135-C ) :   2.5851
B(134-C ,152-C ) :   1.0085 B(135-C ,136-C ) :   1.0051 B(136-C ,137-C ) :   1.4294
B(136-C ,145-C ) :   1.2395 B(137-C ,138-C ) :   1.2706 B(137-C ,146-H ) :   0.9920
B(138-C ,139-C ) :   1.4691 B(138-C ,147-H ) :   0.9807 B(139-C ,140-C ) :   1.2408
B(139-C ,148-H ) :   0.9959 B(140-C ,141-C ) :   1.2850 B(140-C ,145-C ) :   1.2254
B(141-C ,142-N ) :   1.4453 B(141-C ,149-H ) :   0.9588 B(142-N ,143-C ) :   1.1726
B(143-C ,144-C ) :   1.5373 B(143-C ,150-H ) :   0.9394 B(144-C ,145-C ) :   1.2916
B(144-C ,151-H ) :   0.9549 B(152-C ,153-C ) :   1.2155 B(152-C ,161-C ) :   1.4240
B(153-C ,154-C ) :   1.4962 B(153-C ,162-H ) :   0.9913 B(154-C ,155-C ) :   1.2418
B(154-C ,163-H ) :   0.9921 B(155-C ,156-C ) :   1.2497 B(155-C ,160-C ) :   1.2440
B(156-C ,157-C ) :   1.5077 B(156-C ,164-H ) :   0.9906 B(157-C ,158-C ) :   1.2390
B(157-C ,165-H ) :   0.9840 B(158-C ,159-C ) :   1.4490 B(158-C ,168-C ) :   1.0100
B(159-C ,160-C ) :   1.2530 B(159-C ,166-H ) :   0.9851 B(160-C ,161-C ) :   1.2386
B(161-C ,167-H ) :   0.9960 B(168-C ,169-C ) :   1.3753 B(168-C ,173-C ) :   1.3962
B(169-C ,170-C ) :   1.4005 B(169-C ,174-H ) :   0.9799 B(170-C ,171-C ) :   1.4313
B(170-C ,175-H ) :   0.9722 B(171-C ,172-N ) :   1.3031 B(171-C ,176-H ) :   0.9460
B(172-N ,173-C ) :   1.3479 B(173-C ,177-H ) :   0.9553

Dispersion correction           -0.285118695
FINAL SINGLE POINT ENERGY     -4686.271260854939

DIPOLE MOMENT
-------------
                                X             Y             Z
Electronic contribution:     -0.12770      -1.18563       0.01700
Nuclear contribution   :      0.12612       1.15319      -0.01462
                        -----------------------------------------
Total Dipole Moment    :     -0.00158      -0.03244       0.00238
                        -----------------------------------------
Magnitude (a.u.)       :      0.03257
Magnitude (Debye)      :      0.08278

Rotational constants in cm-1:     0.000394     0.000284     0.000277
Rotational constants in MHz :    11.825231     8.508040     8.291470

                             ****ORCA TERMINATED NORMALLY****
TOTAL RUN TIME: 0 days 0 hours 19 minutes 15 seconds 28 msec
