                         Program Version 4.2.1 -  RELEASE  -
|  1> ! DFT SP RKS PBE0 def2-SVP D3BJ Grid6 NOFINALGRID SlowConv TightSCF printbasis
|  2>
|  3> %base "_s_5d3_a_PBE0"
|  4> %maxcore 3000
|  5> %scf
|  6>    MaxIter 2000
|  7> end
|  8> %pal
|  9>    nprocs 32
| 10> end
| 11>
| 12> * xyzfile 4 1 s_5d3_a.xyz
| 13>
| 14>                          ****END OF INPUT****

CARTESIAN COORDINATES (ANGSTROEM)
---------------------------------
  Pd     0.991400    5.692500    0.324300
  Pd     0.373200   -4.885200   -0.113200
  C      7.855400    2.290200   -0.138100
  C      7.561000    3.461900   -0.087900
  C      7.097200    4.790300   -0.022700
  C      7.954600    5.874800   -0.034900
  C      7.458200    7.182800    0.032800
  C      6.111300    7.428000    0.113100
  C      5.202100    6.348400    0.127900
  C      3.806500    6.527900    0.208100
  N      2.962300    5.519000    0.221000
  C      3.424100    4.244700    0.156200
  C      4.756300    3.962800    0.076300
  C      5.693500    5.014700    0.059500
  H      9.019800    5.711000   -0.097200
  H      8.156800    8.005400    0.021000
  H      5.739100    8.438800    0.164900
  H      3.384800    7.528000    0.262200
  H      2.673400    3.455900    0.171800
  H      5.110600    2.946200    0.025200
  C      8.166700    0.915000   -0.192300
  C      9.493000    0.482600   -0.283100
  C      9.774900   -0.871500   -0.332600
  C      8.754700   -1.805000   -0.292000
  C      7.424000   -1.380500   -0.201800
  C      7.132100   -0.019700   -0.152900
  H     10.291700    1.208300   -0.313800
  H     10.800800   -1.201500   -0.402800
  H      8.981500   -2.859500   -0.330300
  H      6.107000    0.308300   -0.082400
  C      6.392300   -2.341900   -0.158400
  C      5.509200   -3.167000   -0.120500
  C      4.592500   -4.235600   -0.076700
  C      5.075300   -5.551600   -0.025800
  C      4.174900   -6.599600    0.012900
  C      2.818400   -6.320100   -0.002400
  N      2.357900   -5.065300   -0.051100
  C      3.207500   -4.040100   -0.086100
  H      6.138800   -5.732200   -0.017400
  H      4.517700   -7.620800    0.053100
  H      2.080900   -7.120400    0.027600
  H      2.773700   -3.044600   -0.124400
  C      1.141800    2.378700    7.244500
  C      1.207900    3.544500    6.930500
  C      1.273900    4.864700    6.443900
  C      1.398800    5.957000    7.282300
  C      1.459800    7.256500    6.763400
  C      1.397800    7.485600    5.412600
  C      1.270600    6.397500    4.522400
  C      1.202000    6.560300    3.124100
  N      1.084300    5.543600    2.297800
  C      1.023800    4.277200    2.781500
  C      1.081400    4.011500    4.118100
  C      1.207700    5.072200    5.036800
  H      1.449600    5.805900    8.349900
  H      1.557300    8.085600    7.447500
  H      1.445300    8.490000    5.023100
  H      1.246100    7.553500    2.685300
  H      0.925900    3.481300    2.044700
  H      1.032500    3.001100    4.489900
  C      1.059600    1.010400    7.579200
  C      1.110900    0.593500    8.912600
  C      1.025900   -0.753900    9.217400
  C      0.889000   -1.695700    8.213400
  C      0.837500   -1.286800    6.875700
  C      0.923800    0.067100    6.560700
  H      1.216400    1.325800    9.698800
  H      1.066000   -1.072000   10.248600
  H      0.822500   -2.744700    8.458000
  H      0.883200    0.383200    5.530300
  C      0.694700   -2.256200    5.860800
  C      0.571300   -3.088400    4.992200
  C      0.417700   -4.162800    4.094200
  C      0.237700   -5.458700    4.600000
  C      0.091000   -6.512800    3.718100
  C      0.128700   -6.259500    2.356900
  N      0.300500   -5.023900    1.874500
  C      0.441000   -3.992900    2.706000
  H      0.215700   -5.619400    5.666500
  H     -0.049400   -7.518900    4.078700
  H      0.016100   -7.065300    1.633500
  H      0.576600   -3.013700    2.254800
  C     -6.224200    3.087700    0.530700
  C     -5.795500    4.217500    0.575800
  C     -5.179900    5.483600    0.618000
  C     -5.905200    6.656100    0.721200
  C     -5.259300    7.898400    0.759000
  C     -3.892500    7.990500    0.695000
  C     -3.115200    6.817100    0.589400
  C     -1.707600    6.838500    0.519900
  N     -0.986700    5.742500    0.422100
  C     -1.594200    4.529700    0.384400
  C     -2.950600    4.399500    0.445100
  C     -3.759000    5.548700    0.550300
  H     -6.982600    6.613100    0.773000
  H     -5.857400    8.793100    0.839900
  H     -3.404800    8.951900    0.724600
  H     -1.172100    7.783700    0.546200
  H     -0.940500    3.662600    0.302300
  H     -3.421300    3.430400    0.414400
  C     -6.693400    1.758200    0.473200
  C     -8.061500    1.476800    0.533200
  C     -8.498800    0.165100    0.472600
  C     -7.593700   -0.874000    0.352000
  C     -6.222200   -0.601100    0.291900
  C     -5.774000    0.716100    0.353600
  H     -8.770700    2.285400    0.626200
  H     -9.556500   -0.048200    0.519300
  H     -7.941500   -1.894600    0.304600
  H     -4.717400    0.927500    0.306400
  C     -5.308900   -1.669000    0.166000
  C     -4.527400   -2.585300    0.057000
  C     -3.741200   -3.746300   -0.077700
  C     -4.374100   -4.988400   -0.234200
  C     -3.601900   -6.127600   -0.362300
  C     -2.222100   -6.010500   -0.329800
  N     -1.618600   -4.826300   -0.180400
  C     -2.343000   -3.715300   -0.058000
  H     -5.451300   -5.042300   -0.253000
  H     -4.061300   -7.095000   -0.484500
  H     -1.582900   -6.886300   -0.428200
  H     -1.796200   -2.783700    0.059900
  C      0.512500    2.997700   -6.845500
  C      0.579500    4.133500   -6.436100
  C      0.663300    5.407900   -5.842200
  C      0.674900    6.572300   -6.587500
  C      0.761100    7.823200   -5.963200
  C      0.836700    7.931900   -4.598100
  C      0.827500    6.767200   -3.800800
  C      0.902100    6.805700   -2.393900
  N      0.892600    5.717900   -1.654200
  C      0.808400    4.497100   -2.240700
  C      0.732300    4.350300   -3.594700
  C      0.739800    5.490300   -4.422700
  H      0.617000    6.516200   -7.664000
  H      0.767500    8.711200   -6.576600
  H      0.903100    8.899700   -4.127100
  H      0.970700    7.757800   -1.874600
  H      0.805300    3.637500   -1.572100
  H      0.665800    3.375100   -4.048600
  C      0.438100    1.661300   -7.292300
  C      0.350800    1.364300   -8.655500
  C      0.281400    0.045800   -9.070700
  C      0.298600   -0.984800   -8.148100
  C      0.385200   -0.696000   -6.781200
  C      0.454000    0.628100   -6.355300
  H      0.338300    2.166000   -9.378400
  H      0.214000   -0.179600  -10.124700
  H      0.244900   -2.010800   -8.478700
  H      0.521800    0.851500   -5.302300
  C      0.404700   -1.755600   -5.849900
  C      0.422400   -2.664900   -5.053000
  C      0.441200   -3.819900   -4.246900
  C      0.470500   -5.082100   -4.858100
  C      0.485100   -6.215000   -4.066200
  C      0.467800   -6.071400   -2.688700
  N      0.439600   -4.867900   -2.105800
  C      0.427900   -3.762900   -2.849300
  H      0.481200   -5.156300   -5.934200
  H      0.508400   -7.197600   -4.508800
  H      0.479300   -6.941400   -2.034300
  H      0.405400   -2.814900   -2.318800

 Total Charge           Charge          ....    4
 Multiplicity           Mult            ....    1
 Number of Electrons    NEL             ....  720
 Basis Dimension        Dim             .... 1798

ORBITAL ENERGIES
----------------

  NO   OCC          E(Eh)            E(eV)
   0   2.0000     -14.754865      -401.5003
   1   2.0000     -14.754780      -401.4980
   2   2.0000     -14.754778      -401.4979
   3   2.0000     -14.754748      -401.4971
   4   2.0000     -14.738525      -401.0557
   5   2.0000     -14.738436      -401.0532
   6   2.0000     -14.738428      -401.0530
   7   2.0000     -14.738394      -401.0521
   8   2.0000     -10.585054      -288.0340
   9   2.0000     -10.585049      -288.0338
  10   2.0000     -10.585035      -288.0334
  11   2.0000     -10.585009      -288.0327
  12   2.0000     -10.580702      -287.9155
  13   2.0000     -10.580687      -287.9151
  14   2.0000     -10.580684      -287.9150
  15   2.0000     -10.580653      -287.9142
  16   2.0000     -10.576511      -287.8015
  17   2.0000     -10.576499      -287.8012
  18   2.0000     -10.576471      -287.8004
  19   2.0000     -10.576456      -287.8000
  20   2.0000     -10.564598      -287.4773
  21   2.0000     -10.564574      -287.4767
  22   2.0000     -10.564560      -287.4763
  23   2.0000     -10.564532      -287.4755
  24   2.0000     -10.563485      -287.4470
  25   2.0000     -10.563481      -287.4469
  26   2.0000     -10.563474      -287.4467
  27   2.0000     -10.563462      -287.4464
  28   2.0000     -10.545405      -286.9551
  29   2.0000     -10.545403      -286.9550
  30   2.0000     -10.545387      -286.9546
  31   2.0000     -10.545385      -286.9545
  32   2.0000     -10.538918      -286.7786
  33   2.0000     -10.538913      -286.7784
  34   2.0000     -10.538893      -286.7779
  35   2.0000     -10.538891      -286.7778
  36   2.0000     -10.534604      -286.6611
  37   2.0000     -10.534595      -286.6609
  38   2.0000     -10.534563      -286.6600
  39   2.0000     -10.534559      -286.6599
  40   2.0000     -10.531802      -286.5849
  41   2.0000     -10.531792      -286.5846
  42   2.0000     -10.531771      -286.5841
  43   2.0000     -10.531752      -286.5835
  44   2.0000     -10.528460      -286.4940
  45   2.0000     -10.528451      -286.4937
  46   2.0000     -10.528422      -286.4929
  47   2.0000     -10.528419      -286.4929
  48   2.0000     -10.526478      -286.4400
  49   2.0000     -10.526461      -286.4396
  50   2.0000     -10.526451      -286.4393
  51   2.0000     -10.526430      -286.4387
  52   2.0000     -10.510848      -286.0147
  53   2.0000     -10.510844      -286.0146
  54   2.0000     -10.510832      -286.0143
  55   2.0000     -10.510827      -286.0142
  56   2.0000     -10.510421      -286.0031
  57   2.0000     -10.510417      -286.0030
  58   2.0000     -10.510403      -286.0026
  59   2.0000     -10.510397      -286.0024
  60   2.0000     -10.508162      -285.9416
  61   2.0000     -10.508155      -285.9414
  62   2.0000     -10.508140      -285.9410
  63   2.0000     -10.508106      -285.9401
  64   2.0000     -10.507176      -285.9148
  65   2.0000     -10.507174      -285.9147
  66   2.0000     -10.507161      -285.9144
  67   2.0000     -10.507151      -285.9141
  68   2.0000     -10.506273      -285.8902
  69   2.0000     -10.506256      -285.8898
  70   2.0000     -10.506236      -285.8892
  71   2.0000     -10.506222      -285.8888
  72   2.0000     -10.500787      -285.7410
  73   2.0000     -10.500786      -285.7409
  74   2.0000     -10.500758      -285.7401
  75   2.0000     -10.500734      -285.7395
  76   2.0000     -10.500532      -285.7340
  77   2.0000     -10.500529      -285.7339
  78   2.0000     -10.500526      -285.7338
  79   2.0000     -10.500514      -285.7335
  80   2.0000     -10.498552      -285.6801
  81   2.0000     -10.498548      -285.6800
  82   2.0000     -10.498542      -285.6799
  83   2.0000     -10.498531      -285.6796
  84   2.0000     -10.488864      -285.4165
  85   2.0000     -10.488860      -285.4164
  86   2.0000     -10.488838      -285.4158
  87   2.0000     -10.488831      -285.4156
  88   2.0000     -10.488134      -285.3966
  89   2.0000     -10.488123      -285.3963
  90   2.0000     -10.488111      -285.3960
  91   2.0000     -10.488092      -285.3955
  92   2.0000     -10.485579      -285.3271
  93   2.0000     -10.485578      -285.3271
  94   2.0000     -10.485573      -285.3269
  95   2.0000     -10.485556      -285.3265
  96   2.0000     -10.484091      -285.2866
  97   2.0000     -10.484082      -285.2864
  98   2.0000     -10.484062      -285.2858
  99   2.0000     -10.484062      -285.2858
 100   2.0000     -10.476399      -285.0773
 101   2.0000     -10.476387      -285.0770
 102   2.0000     -10.476376      -285.0767
 103   2.0000     -10.476359      -285.0762
 104   2.0000      -3.852716      -104.8377
 105   2.0000      -3.839126      -104.4679
 106   2.0000      -2.529925       -68.8428
 107   2.0000      -2.529922       -68.8427
 108   2.0000      -2.516442       -68.4759
 109   2.0000      -2.516440       -68.4758
 110   2.0000      -2.493362       -67.8478
 111   2.0000      -2.479936       -67.4825
 112   2.0000      -1.306702       -35.5572
 113   2.0000      -1.299168       -35.3522
 114   2.0000      -1.299165       -35.3521
 115   2.0000      -1.298437       -35.3323
 116   2.0000      -1.292643       -35.1746
 117   2.0000      -1.284781       -34.9607
 118   2.0000      -1.284771       -34.9604
 119   2.0000      -1.284120       -34.9427
 120   2.0000      -1.166307       -31.7368
 121   2.0000      -1.165164       -31.7057
 122   2.0000      -1.165039       -31.7023
 123   2.0000      -1.165035       -31.7022
 124   2.0000      -1.145395       -31.1678
 125   2.0000      -1.144596       -31.1460
 126   2.0000      -1.144529       -31.1442
 127   2.0000      -1.144526       -31.1441
 128   2.0000      -1.140542       -31.0357
 129   2.0000      -1.138651       -30.9843
 130   2.0000      -1.138322       -30.9753
 131   2.0000      -1.138319       -30.9752
 132   2.0000      -1.102741       -30.0071
 133   2.0000      -1.101459       -29.9722
 134   2.0000      -1.101458       -29.9722
 135   2.0000      -1.100202       -29.9380
 136   2.0000      -1.100076       -29.9346
 137   2.0000      -1.099314       -29.9139
 138   2.0000      -1.099311       -29.9138
 139   2.0000      -1.098364       -29.8880
 140   2.0000      -1.079289       -29.3690
 141   2.0000      -1.077571       -29.3222
 142   2.0000      -1.077059       -29.3083
 143   2.0000      -1.077058       -29.3082
 144   2.0000      -1.068720       -29.0813
 145   2.0000      -1.067825       -29.0570
 146   2.0000      -1.067824       -29.0570
 147   2.0000      -1.067525       -29.0488
 148   2.0000      -1.052986       -28.6532
 149   2.0000      -1.052016       -28.6268
 150   2.0000      -1.052014       -28.6268
 151   2.0000      -1.050618       -28.5888
 152   2.0000      -1.035747       -28.1841
 153   2.0000      -1.035361       -28.1736
 154   2.0000      -1.035356       -28.1735
 155   2.0000      -1.034906       -28.1612
 156   2.0000      -1.014458       -27.6048
 157   2.0000      -1.013462       -27.5777
 158   2.0000      -1.013459       -27.5776
 159   2.0000      -1.012256       -27.5449
 160   2.0000      -0.989613       -26.9287
 161   2.0000      -0.989343       -26.9214
 162   2.0000      -0.989339       -26.9213
 163   2.0000      -0.988910       -26.9096
 164   2.0000      -0.966055       -26.2877
 165   2.0000      -0.964913       -26.2566
 166   2.0000      -0.964913       -26.2566
 167   2.0000      -0.961828       -26.1727
 168   2.0000      -0.960779       -26.1441
 169   2.0000      -0.957609       -26.0579
 170   2.0000      -0.957608       -26.0578
 171   2.0000      -0.955604       -26.0033
 172   2.0000      -0.954390       -25.9703
 173   2.0000      -0.951560       -25.8933
 174   2.0000      -0.949416       -25.8349
 175   2.0000      -0.949415       -25.8349
 176   2.0000      -0.934704       -25.4346
 177   2.0000      -0.931465       -25.3464
 178   2.0000      -0.930919       -25.3316
 179   2.0000      -0.930919       -25.3316
 180   2.0000      -0.916610       -24.9422
 181   2.0000      -0.915968       -24.9247
 182   2.0000      -0.915966       -24.9247
 183   2.0000      -0.915622       -24.9153
 184   2.0000      -0.896995       -24.4085
 185   2.0000      -0.895375       -24.3644
 186   2.0000      -0.894600       -24.3433
 187   2.0000      -0.894592       -24.3431
 188   2.0000      -0.884754       -24.0754
 189   2.0000      -0.883468       -24.0404
 190   2.0000      -0.883424       -24.0392
 191   2.0000      -0.883416       -24.0390
 192   2.0000      -0.876664       -23.8552
 193   2.0000      -0.868569       -23.6350
 194   2.0000      -0.862046       -23.4575
 195   2.0000      -0.862044       -23.4574
 196   2.0000      -0.851950       -23.1827
 197   2.0000      -0.845021       -22.9942
 198   2.0000      -0.842169       -22.9166
 199   2.0000      -0.842167       -22.9165
 200   2.0000      -0.832618       -22.6567
 201   2.0000      -0.827761       -22.5245
 202   2.0000      -0.827289       -22.5117
 203   2.0000      -0.827285       -22.5116
 204   2.0000      -0.827266       -22.5110
 205   2.0000      -0.826622       -22.4935
 206   2.0000      -0.826619       -22.4934
 207   2.0000      -0.824645       -22.4397
 208   2.0000      -0.818145       -22.2629
 209   2.0000      -0.817922       -22.2568
 210   2.0000      -0.817921       -22.2568
 211   2.0000      -0.816373       -22.2146
 212   2.0000      -0.814360       -22.1599
 213   2.0000      -0.810421       -22.0527
 214   2.0000      -0.805221       -21.9112
 215   2.0000      -0.804021       -21.8785
 216   2.0000      -0.804019       -21.8785
 217   2.0000      -0.800079       -21.7712
 218   2.0000      -0.800076       -21.7712
 219   2.0000      -0.797793       -21.7091
 220   2.0000      -0.782978       -21.3059
 221   2.0000      -0.772201       -21.0127
 222   2.0000      -0.771443       -20.9920
 223   2.0000      -0.770410       -20.9639
 224   2.0000      -0.769350       -20.9351
 225   2.0000      -0.768485       -20.9115
 226   2.0000      -0.761736       -20.7279
 227   2.0000      -0.761734       -20.7278
 228   2.0000      -0.761113       -20.7109
 229   2.0000      -0.759055       -20.6549
 230   2.0000      -0.758605       -20.6427
 231   2.0000      -0.756975       -20.5983
 232   2.0000      -0.756968       -20.5981
 233   2.0000      -0.755945       -20.5703
 234   2.0000      -0.755941       -20.5702
 235   2.0000      -0.752611       -20.4796
 236   2.0000      -0.749385       -20.3918
 237   2.0000      -0.749370       -20.3914
 238   2.0000      -0.744571       -20.2608
 239   2.0000      -0.743659       -20.2360
 240   2.0000      -0.743647       -20.2357
 241   2.0000      -0.743170       -20.2227
 242   2.0000      -0.740665       -20.1545
 243   2.0000      -0.738100       -20.0847
 244   2.0000      -0.738098       -20.0847
 245   2.0000      -0.737401       -20.0657
 246   2.0000      -0.736433       -20.0394
 247   2.0000      -0.735090       -20.0028
 248   2.0000      -0.735087       -20.0027
 249   2.0000      -0.734639       -19.9905
 250   2.0000      -0.733089       -19.9484
 251   2.0000      -0.733080       -19.9481
 252   2.0000      -0.729243       -19.8437
 253   2.0000      -0.729141       -19.8409
 254   2.0000      -0.729004       -19.8372
 255   2.0000      -0.723849       -19.6969
 256   2.0000      -0.723846       -19.6969
 257   2.0000      -0.723338       -19.6830
 258   2.0000      -0.723332       -19.6829
 259   2.0000      -0.719578       -19.5807
 260   2.0000      -0.718164       -19.5422
 261   2.0000      -0.717178       -19.5154
 262   2.0000      -0.716966       -19.5096
 263   2.0000      -0.716965       -19.5096
 264   2.0000      -0.707256       -19.2454
 265   2.0000      -0.700608       -19.0645
 266   2.0000      -0.698293       -19.0015
 267   2.0000      -0.692616       -18.8470
 268   2.0000      -0.692614       -18.8470
 269   2.0000      -0.690715       -18.7953
 270   2.0000      -0.690710       -18.7952
 271   2.0000      -0.689792       -18.7702
 272   2.0000      -0.688506       -18.7352
 273   2.0000      -0.688279       -18.7290
 274   2.0000      -0.687930       -18.7195
 275   2.0000      -0.687923       -18.7193
 276   2.0000      -0.682900       -18.5827
 277   2.0000      -0.681489       -18.5442
 278   2.0000      -0.681239       -18.5375
 279   2.0000      -0.678551       -18.4643
 280   2.0000      -0.676616       -18.4117
 281   2.0000      -0.672720       -18.3056
 282   2.0000      -0.668627       -18.1943
 283   2.0000      -0.668625       -18.1942
 284   2.0000      -0.662979       -18.0406
 285   2.0000      -0.660569       -17.9750
 286   2.0000      -0.660568       -17.9750
 287   2.0000      -0.655789       -17.8449
 288   2.0000      -0.654637       -17.8136
 289   2.0000      -0.654433       -17.8080
 290   2.0000      -0.654427       -17.8079
 291   2.0000      -0.642040       -17.4708
 292   2.0000      -0.642033       -17.4706
 293   2.0000      -0.638997       -17.3880
 294   2.0000      -0.637217       -17.3396
 295   2.0000      -0.634472       -17.2649
 296   2.0000      -0.634462       -17.2646
 297   2.0000      -0.634373       -17.2622
 298   2.0000      -0.633481       -17.2379
 299   2.0000      -0.630410       -17.1543
 300   2.0000      -0.630406       -17.1542
 301   2.0000      -0.630246       -17.1499
 302   2.0000      -0.623193       -16.9579
 303   2.0000      -0.623187       -16.9578
 304   2.0000      -0.623125       -16.9561
 305   2.0000      -0.623098       -16.9554
 306   2.0000      -0.622010       -16.9258
 307   2.0000      -0.619698       -16.8628
 308   2.0000      -0.619693       -16.8627
 309   2.0000      -0.617617       -16.8062
 310   2.0000      -0.617607       -16.8059
 311   2.0000      -0.617427       -16.8010
 312   2.0000      -0.617404       -16.8004
 313   2.0000      -0.615395       -16.7458
 314   2.0000      -0.613064       -16.6823
 315   2.0000      -0.613060       -16.6822
 316   2.0000      -0.608513       -16.5585
 317   2.0000      -0.608512       -16.5585
 318   2.0000      -0.605220       -16.4689
 319   2.0000      -0.603851       -16.4316
 320   2.0000      -0.603849       -16.4316
 321   2.0000      -0.603497       -16.4220
 322   2.0000      -0.596139       -16.2218
 323   2.0000      -0.596136       -16.2217
 324   2.0000      -0.593072       -16.1383
 325   2.0000      -0.585897       -15.9431
 326   2.0000      -0.583326       -15.8731
 327   2.0000      -0.583324       -15.8731
 328   2.0000      -0.581223       -15.8159
 329   2.0000      -0.580753       -15.8031
 330   2.0000      -0.574515       -15.6333
 331   2.0000      -0.562249       -15.2996
 332   2.0000      -0.562240       -15.2993
 333   2.0000      -0.559735       -15.2312
 334   2.0000      -0.559089       -15.2136
 335   2.0000      -0.557099       -15.1594
 336   2.0000      -0.555028       -15.1031
 337   2.0000      -0.554572       -15.0907
 338   2.0000      -0.554564       -15.0904
 339   2.0000      -0.554512       -15.0890
 340   2.0000      -0.548304       -14.9201
 341   2.0000      -0.548303       -14.9201
 342   2.0000      -0.547564       -14.9000
 343   2.0000      -0.545836       -14.8530
 344   2.0000      -0.537233       -14.6188
 345   2.0000      -0.537224       -14.6186
 346   2.0000      -0.537188       -14.6176
 347   2.0000      -0.537165       -14.6170
 348   2.0000      -0.528466       -14.3803
 349   2.0000      -0.527322       -14.3492
 350   2.0000      -0.527319       -14.3491
 351   2.0000      -0.525533       -14.3005
 352   2.0000      -0.499884       -13.6025
 353   2.0000      -0.498669       -13.5695
 354   2.0000      -0.498664       -13.5693
 355   2.0000      -0.497236       -13.5305
 356   2.0000      -0.476329       -12.9616
 357   2.0000      -0.475745       -12.9457
 358   2.0000      -0.475742       -12.9456
 359   2.0000      -0.474871       -12.9219
 360   0.0000      -0.345131        -9.3915
 361   0.0000      -0.342323        -9.3151
 362   0.0000      -0.341745        -9.2994
 363   0.0000      -0.341739        -9.2992
 364   0.0000      -0.340970        -9.2783

MULLIKEN ATOMIC CHARGES
-----------------------
   0 Pd:    0.408566
   1 Pd:    0.404379
   2 C :    0.026562
   3 C :   -0.059330
   4 C :   -0.007040
   5 C :    0.040493
   6 C :    0.019120
   7 C :    0.016412
   8 C :   -0.052081
   9 C :    0.157255
  10 N :   -0.308205
  11 C :    0.140351
  12 C :    0.009382
  13 C :    0.058138
  14 H :    0.061091
  15 H :    0.074046
  16 H :    0.040717
  17 H :    0.060295
  18 H :    0.040337
  19 H :    0.029028
  20 C :   -0.048498
  21 C :    0.049605
  22 C :    0.005859
  23 C :    0.038372
  24 C :   -0.056552
  25 C :    0.021583
  26 H :    0.053048
  27 H :    0.066596
  28 H :    0.042445
  29 H :   -0.003352
  30 C :    0.061226
  31 C :   -0.055024
  32 C :   -0.099624
  33 C :    0.106154
  34 C :   -0.017639
  35 C :    0.124030
  36 N :   -0.299765
  37 C :    0.168228
  38 H :    0.078258
  39 H :    0.084042
  40 H :    0.076652
  41 H :    0.054465
  42 C :    0.026543
  43 C :   -0.059331
  44 C :   -0.007094
  45 C :    0.040627
  46 C :    0.019108
  47 C :    0.016479
  48 C :   -0.052236
  49 C :    0.157367
  50 N :   -0.308053
  51 C :    0.140280
  52 C :    0.009471
  53 C :    0.058154
  54 H :    0.061042
  55 H :    0.074064
  56 H :    0.040698
  57 H :    0.060266
  58 H :    0.040283
  59 H :    0.028980
  60 C :   -0.048476
  61 C :    0.049654
  62 C :    0.005892
  63 C :    0.038462
  64 C :   -0.056664
  65 C :    0.021629
  66 H :    0.053063
  67 H :    0.066563
  68 H :    0.042374
  69 H :   -0.003368
  70 C :    0.061165
  71 C :   -0.054962
  72 C :   -0.099671
  73 C :    0.106178
  74 C :   -0.017648
  75 C :    0.123983
  76 N :   -0.299728
  77 C :    0.168282
  78 H :    0.078264
  79 H :    0.084037
  80 H :    0.076659
  81 H :    0.054467
  82 C :    0.026578
  83 C :   -0.059335
  84 C :   -0.007048
  85 C :    0.040525
  86 C :    0.019145
  87 C :    0.016381
  88 C :   -0.052171
  89 C :    0.157455
  90 N :   -0.308064
  91 C :    0.140193
  92 C :    0.009458
  93 C :    0.058049
  94 H :    0.061082
  95 H :    0.074022
  96 H :    0.040746
  97 H :    0.060295
  98 H :    0.040361
  99 H :    0.029018
 100 C :   -0.048522
 101 C :    0.049690
 102 C :    0.005859
 103 C :    0.038409
 104 C :   -0.056615
 105 C :    0.021597
 106 H :    0.053046
 107 H :    0.066617
 108 H :    0.042413
 109 H :   -0.003345
 110 C :    0.061285
 111 C :   -0.055101
 112 C :   -0.099662
 113 C :    0.106221
 114 C :   -0.017594
 115 C :    0.124027
 116 N :   -0.299691
 117 C :    0.168218
 118 H :    0.078230
 119 H :    0.084004
 120 H :    0.076572
 121 H :    0.054487
 122 C :    0.026581
 123 C :   -0.059362
 124 C :   -0.007043
 125 C :    0.040484
 126 C :    0.019113
 127 C :    0.016384
 128 C :   -0.052079
 129 C :    0.157360
 130 N :   -0.308175
 131 C :    0.140390
 132 C :    0.009510
 133 C :    0.058055
 134 H :    0.061087
 135 H :    0.074053
 136 H :    0.040723
 137 H :    0.060194
 138 H :    0.040326
 139 H :    0.028979
 140 C :   -0.048481
 141 C :    0.049649
 142 C :    0.005857
 143 C :    0.038422
 144 C :   -0.056598
 145 C :    0.021613
 146 H :    0.053048
 147 H :    0.066586
 148 H :    0.042437
 149 H :   -0.003349
 150 C :    0.061216
 151 C :   -0.055017
 152 C :   -0.099671
 153 C :    0.106151
 154 C :   -0.017630
 155 C :    0.124012
 156 N :   -0.299690
 157 C :    0.168321
 158 H :    0.078232
 159 H :    0.084038
 160 H :    0.076615
 161 H :    0.054395
Sum of atomic charges:    4.0000000

LOEWDIN ATOMIC CHARGES
----------------------
   0 Pd:   -0.353748
   1 Pd:   -0.342514
   2 C :    0.004524
   3 C :   -0.034552
   4 C :   -0.029168
   5 C :    0.049358
   6 C :    0.019768
   7 C :    0.006991
   8 C :   -0.029111
   9 C :    0.096425
  10 N :    0.062671
  11 C :    0.032761
  12 C :    0.010062
  13 C :    0.019427
  14 H :    0.060937
  15 H :    0.060350
  16 H :    0.048476
  17 H :    0.054747
  18 H :    0.044041
  19 H :    0.051050
  20 C :   -0.048492
  21 C :    0.038544
  22 C :    0.004003
  23 C :    0.029377
  24 C :   -0.060202
  25 C :    0.020309
  26 H :    0.054971
  27 H :    0.056633
  28 H :    0.049649
  29 H :    0.032660
  30 C :    0.044090
  31 C :   -0.069530
  32 C :   -0.028664
  33 C :    0.071777
  34 C :    0.004431
  35 C :    0.059320
  36 N :    0.071060
  37 C :    0.075587
  38 H :    0.066188
  39 H :    0.067207
  40 H :    0.054075
  41 H :    0.052257
  42 C :    0.004499
  43 C :   -0.034530
  44 C :   -0.029144
  45 C :    0.049367
  46 C :    0.019771
  47 C :    0.007035
  48 C :   -0.029096
  49 C :    0.096432
  50 N :    0.062713
  51 C :    0.032720
  52 C :    0.010093
  53 C :    0.019405
  54 H :    0.060916
  55 H :    0.060355
  56 H :    0.048461
  57 H :    0.054744
  58 H :    0.044017
  59 H :    0.051041
  60 C :   -0.048482
  61 C :    0.038573
  62 C :    0.004012
  63 C :    0.029404
  64 C :   -0.060206
  65 C :    0.020326
  66 H :    0.054979
  67 H :    0.056615
  68 H :    0.049618
  69 H :    0.032647
  70 C :    0.044071
  71 C :   -0.069531
  72 C :   -0.028655
  73 C :    0.071772
  74 C :    0.004418
  75 C :    0.059311
  76 N :    0.071063
  77 C :    0.075580
  78 H :    0.066193
  79 H :    0.067205
  80 H :    0.054070
  81 H :    0.052269
  82 C :    0.004512
  83 C :   -0.034532
  84 C :   -0.029166
  85 C :    0.049359
  86 C :    0.019795
  87 C :    0.006973
  88 C :   -0.029110
  89 C :    0.096491
  90 N :    0.062719
  91 C :    0.032702
  92 C :    0.010087
  93 C :    0.019438
  94 H :    0.060932
  95 H :    0.060337
  96 H :    0.048492
  97 H :    0.054744
  98 H :    0.044027
  99 H :    0.051054
 100 C :   -0.048481
 101 C :    0.038583
 102 C :    0.003979
 103 C :    0.029367
 104 C :   -0.060199
 105 C :    0.020329
 106 H :    0.054972
 107 H :    0.056650
 108 H :    0.049641
 109 H :    0.032652
 110 C :    0.044096
 111 C :   -0.069542
 112 C :   -0.028653
 113 C :    0.071817
 114 C :    0.004430
 115 C :    0.059318
 116 N :    0.071084
 117 C :    0.075549
 118 H :    0.066172
 119 H :    0.067183
 120 H :    0.054049
 121 H :    0.052268
 122 C :    0.004523
 123 C :   -0.034550
 124 C :   -0.029172
 125 C :    0.049343
 126 C :    0.019792
 127 C :    0.006995
 128 C :   -0.029116
 129 C :    0.096437
 130 N :    0.062700
 131 C :    0.032772
 132 C :    0.010091
 133 C :    0.019437
 134 H :    0.060931
 135 H :    0.060347
 136 H :    0.048474
 137 H :    0.054726
 138 H :    0.044033
 139 H :    0.051033
 140 C :   -0.048480
 141 C :    0.038564
 142 C :    0.004009
 143 C :    0.029371
 144 C :   -0.060191
 145 C :    0.020317
 146 H :    0.054977
 147 H :    0.056627
 148 H :    0.049647
 149 H :    0.032659
 150 C :    0.044084
 151 C :   -0.069529
 152 C :   -0.028659
 153 C :    0.071799
 154 C :    0.004448
 155 C :    0.059290
 156 N :    0.071085
 157 C :    0.075594
 158 H :    0.066171
 159 H :    0.067201
 160 H :    0.054059
 161 H :    0.052243

  Mayer bond orders larger than 0.100000
B(  0-Pd, 10-N ) :   0.5447 B(  0-Pd, 50-N ) :   0.5448 B(  0-Pd, 90-N ) :   0.5449
B(  0-Pd,130-N ) :   0.5448 B(  1-Pd, 36-N ) :   0.5422 B(  1-Pd, 76-N ) :   0.5423
B(  1-Pd,116-N ) :   0.5423 B(  1-Pd,156-N ) :   0.5422 B(  2-C ,  3-C ) :   2.5917
B(  2-C , 20-C ) :   1.0006 B(  3-C ,  4-C ) :   1.0093 B(  4-C ,  5-C ) :   1.4288
B(  4-C , 13-C ) :   1.2370 B(  5-C ,  6-C ) :   1.2686 B(  5-C , 14-H ) :   0.9923
B(  6-C ,  7-C ) :   1.4729 B(  6-C , 15-H ) :   0.9806 B(  7-C ,  8-C ) :   1.2384
B(  7-C , 16-H ) :   0.9956 B(  8-C ,  9-C ) :   1.2863 B(  8-C , 13-C ) :   1.2264
B(  9-C , 10-N ) :   1.4328 B(  9-C , 17-H ) :   0.9599 B( 10-N , 11-C ) :   1.1918
B( 11-C , 12-C ) :   1.5381 B( 11-C , 18-H ) :   0.9447 B( 12-C , 13-C ) :   1.2945
B( 12-C , 19-H ) :   0.9554 B( 20-C , 21-C ) :   1.3260 B( 20-C , 25-C ) :   1.3376
B( 21-C , 22-C ) :   1.3808 B( 21-C , 26-H ) :   0.9958 B( 22-C , 23-C ) :   1.3899
B( 22-C , 27-H ) :   0.9838 B( 23-C , 24-C ) :   1.3163 B( 23-C , 28-H ) :   0.9959
B( 24-C , 25-C ) :   1.3310 B( 24-C , 30-C ) :   1.0115 B( 25-C , 29-H ) :   0.9971
B( 30-C , 31-C ) :   2.5915 B( 31-C , 32-C ) :   1.0312 B( 32-C , 33-C ) :   1.3460
B( 32-C , 37-C ) :   1.3517 B( 33-C , 34-C ) :   1.4074 B( 33-C , 38-H ) :   0.9856
B( 34-C , 35-C ) :   1.4241 B( 34-C , 39-H ) :   0.9721 B( 35-C , 36-N ) :   1.3030
B( 35-C , 40-H ) :   0.9490 B( 36-N , 37-C ) :   1.3417 B( 37-C , 41-H ) :   0.9667
B( 42-C , 43-C ) :   2.5917 B( 42-C , 60-C ) :   1.0006 B( 43-C , 44-C ) :   1.0094
B( 44-C , 45-C ) :   1.4286 B( 44-C , 53-C ) :   1.2371 B( 45-C , 46-C ) :   1.2687
B( 45-C , 54-H ) :   0.9923 B( 46-C , 47-C ) :   1.4728 B( 46-C , 55-H ) :   0.9806
B( 47-C , 48-C ) :   1.2384 B( 47-C , 56-H ) :   0.9956 B( 48-C , 49-C ) :   1.2863
B( 48-C , 53-C ) :   1.2264 B( 49-C , 50-N ) :   1.4331 B( 49-C , 57-H ) :   0.9599
B( 50-N , 51-C ) :   1.1916 B( 51-C , 52-C ) :   1.5382 B( 51-C , 58-H ) :   0.9447
B( 52-C , 53-C ) :   1.2944 B( 52-C , 59-H ) :   0.9554 B( 60-C , 61-C ) :   1.3259
B( 60-C , 65-C ) :   1.3376 B( 61-C , 62-C ) :   1.3808 B( 61-C , 66-H ) :   0.9958
B( 62-C , 63-C ) :   1.3899 B( 62-C , 67-H ) :   0.9838 B( 63-C , 64-C ) :   1.3163
B( 63-C , 68-H ) :   0.9959 B( 64-C , 65-C ) :   1.3309 B( 64-C , 70-C ) :   1.0117
B( 65-C , 69-H ) :   0.9971 B( 70-C , 71-C ) :   2.5913 B( 71-C , 72-C ) :   1.0313
B( 72-C , 73-C ) :   1.3459 B( 72-C , 77-C ) :   1.3517 B( 73-C , 74-C ) :   1.4074
B( 73-C , 78-H ) :   0.9856 B( 74-C , 75-C ) :   1.4241 B( 74-C , 79-H ) :   0.9721
B( 75-C , 76-N ) :   1.3030 B( 75-C , 80-H ) :   0.9490 B( 76-N , 77-C ) :   1.3417
B( 77-C , 81-H ) :   0.9667 B( 82-C , 83-C ) :   2.5915 B( 82-C ,100-C ) :   1.0006
B( 83-C , 84-C ) :   1.0095 B( 84-C , 85-C ) :   1.4287 B( 84-C , 93-C ) :   1.2370
B( 85-C , 86-C ) :   1.2686 B( 85-C , 94-H ) :   0.9923 B( 86-C , 87-C ) :   1.4729
B( 86-C , 95-H ) :   0.9806 B( 87-C , 88-C ) :   1.2385 B( 87-C , 96-H ) :   0.9956
B( 88-C , 89-C ) :   1.2862 B( 88-C , 93-C ) :   1.2265 B( 89-C , 90-N ) :   1.4330
B( 89-C , 97-H ) :   0.9599 B( 90-N , 91-C ) :   1.1916 B( 91-C , 92-C ) :   1.5382
B( 91-C , 98-H ) :   0.9447 B( 92-C , 93-C ) :   1.2945 B( 92-C , 99-H ) :   0.9554
B(100-C ,101-C ) :   1.3259 B(100-C ,105-C ) :   1.3377 B(101-C ,102-C ) :   1.3808
B(101-C ,106-H ) :   0.9958 B(102-C ,103-C ) :   1.3899 B(102-C ,107-H ) :   0.9838
B(103-C ,104-C ) :   1.3163 B(103-C ,108-H ) :   0.9959 B(104-C ,105-C ) :   1.3309
B(104-C ,110-C ) :   1.0116 B(105-C ,109-H ) :   0.9971 B(110-C ,111-C ) :   2.5913
B(111-C ,112-C ) :   1.0313 B(112-C ,113-C ) :   1.3458 B(112-C ,117-C ) :   1.3518
B(113-C ,114-C ) :   1.4075 B(113-C ,118-H ) :   0.9856 B(114-C ,115-C ) :   1.4240
B(114-C ,119-H ) :   0.9721 B(115-C ,116-N ) :   1.3030 B(115-C ,120-H ) :   0.9491
B(116-N ,117-C ) :   1.3416 B(117-C ,121-H ) :   0.9667 B(122-C ,123-C ) :   2.5916
B(122-C ,140-C ) :   1.0006 B(123-C ,124-C ) :   1.0094 B(124-C ,125-C ) :   1.4287
B(124-C ,133-C ) :   1.2370 B(125-C ,126-C ) :   1.2687 B(125-C ,134-H ) :   0.9923
B(126-C ,127-C ) :   1.4728 B(126-C ,135-H ) :   0.9806 B(127-C ,128-C ) :   1.2384
B(127-C ,136-H ) :   0.9956 B(128-C ,129-C ) :   1.2863 B(128-C ,133-C ) :   1.2264
B(129-C ,130-N ) :   1.4329 B(129-C ,137-H ) :   0.9599 B(130-N ,131-C ) :   1.1917
B(131-C ,132-C ) :   1.5381 B(131-C ,138-H ) :   0.9447 B(132-C ,133-C ) :   1.2944
B(132-C ,139-H ) :   0.9554 B(140-C ,141-C ) :   1.3261 B(140-C ,145-C ) :   1.3375
B(141-C ,142-C ) :   1.3807 B(141-C ,146-H ) :   0.9958 B(142-C ,143-C ) :   1.3901
B(142-C ,147-H ) :   0.9838 B(143-C ,144-C ) :   1.3162 B(143-C ,148-H ) :   0.9959
B(144-C ,145-C ) :   1.3311 B(144-C ,150-C ) :   1.0116 B(145-C ,149-H ) :   0.9971
B(150-C ,151-C ) :   2.5914 B(151-C ,152-C ) :   1.0313 B(152-C ,153-C ) :   1.3460
B(152-C ,157-C ) :   1.3516 B(153-C ,154-C ) :   1.4073 B(153-C ,158-H ) :   0.9856
B(154-C ,155-C ) :   1.4242 B(154-C ,159-H ) :   0.9721 B(155-C ,156-N ) :   1.3029
B(155-C ,160-H ) :   0.9490 B(156-N ,157-C ) :   1.3418 B(157-C ,161-H ) :   0.9667

Dispersion correction           -0.249612699
FINAL SINGLE POINT ENERGY     -4376.836878097250

DIPOLE MOMENT
-------------
                                X             Y             Z
Electronic contribution:     -5.53185     -87.27441      -3.44995
Nuclear contribution   :      5.37086      84.50175       3.33410
                        -----------------------------------------
Total Dipole Moment    :     -0.16099      -2.77266      -0.11586
                        -----------------------------------------
Magnitude (a.u.)       :      2.77975
Magnitude (Debye)      :      7.06556

Rotational constants in cm-1:     0.000403     0.000308     0.000308
Rotational constants in MHz :    12.093871     9.227274     9.224787

                             ****ORCA TERMINATED NORMALLY****
TOTAL RUN TIME: 0 days 0 hours 14 minutes 7 seconds 165 msec
