                         Program Version 4.2.1 -  RELEASE  -
|  1> ! DFT SP RKS PBE0 def2-SVP D3BJ Grid6 NOFINALGRID SlowConv TightSCF printbasis
|  2>
|  3> %base "_s_5d1_d_PBE0"
|  4> %maxcore 3000
|  5> %scf
|  6>    MaxIter 2000
|  7> end
|  8> %pal
|  9>    nprocs 32
| 10> end
| 11>
| 12> * xyzfile 4 1 s_5d1_d.xyz
| 13>
| 14>                          ****END OF INPUT****

CARTESIAN COORDINATES (ANGSTROEM)
---------------------------------
  Pd    -0.438900    3.615500   -0.634800
  Pd    -0.570600   -5.439400   -0.722900
  C      5.734300   -1.292000   -0.728900
  C      5.615800   -2.472900   -0.960100
  C      5.342900   -3.837600   -1.185400
  C      6.334300   -4.748300   -1.499800
  C      6.028100   -6.099800   -1.703400
  C      4.740800   -6.561400   -1.593500
  C      3.701100   -5.664200   -1.270500
  C      2.357200   -6.070800   -1.137900
  N      1.393700   -5.233000   -0.834300
  C      1.667300   -3.914400   -0.635000
  C      2.934900   -3.421300   -0.739200
  C      3.998400   -4.288200   -1.065200
  H      7.356700   -4.413900   -1.590400
  H      6.826700   -6.783000   -1.948800
  H      4.515800   -7.604400   -1.749900
  H      2.085100   -7.108900   -1.290400
  H      0.821500   -3.268800   -0.372900
  H      3.146400   -2.377200   -0.572300
  C      5.865900    0.073900   -0.395600
  C      7.016600    0.526500    0.254000
  C      7.109600    1.852400    0.633200
  C      6.076700    2.733500    0.364400
  C      4.927500    2.298600   -0.300500
  C      4.826100    0.962700   -0.675000
  H      7.821000   -0.161900    0.463100
  H      7.993300    2.203200    1.144500
  H      6.158200    3.757300    0.694900
  H      3.964600    0.609600   -1.219800
  C      3.854000    3.262400   -0.592300
  C      4.160400    4.579400   -0.946500
  C      3.139500    5.488700   -1.167800
  C      1.828000    5.065200   -1.048100
  N      1.532200    3.797200   -0.740400
  C      2.503900    2.917400   -0.512100
  H      5.189200    4.883900   -1.057500
  H      3.361000    6.510300   -1.431300
  H      0.993700    5.753500   -1.208400
  H      2.190300    1.917400   -0.234900
  C     -0.613400   -0.677200    5.570400
  C     -0.383300    0.507000    5.488100
  C     -0.153800    1.878300    5.254900
  C      0.110900    2.769000    6.278500
  C      0.319600    4.127800    6.010500
  C      0.263500    4.616600    4.729800
  C     -0.008200    3.740700    3.657800
  C     -0.088000    4.176300    2.318800
  N     -0.345100    3.358200    1.325400
  C     -0.544000    2.032200    1.561400
  C     -0.489500    1.511900    2.821100
  C     -0.217000    2.357400    3.916300
  H      0.158200    2.413000    7.296500
  H      0.525500    4.794800    6.833600
  H      0.422900    5.665100    4.534400
  H      0.067400    5.221200    2.076400
  H     -0.762000    1.402800    0.691100
  H     -0.656500    0.462100    3.002400
  C     -0.943300   -2.047400    5.658100
  C     -1.621800   -2.532600    6.778500
  C     -1.994500   -3.862700    6.828100
  C     -1.690900   -4.716200    5.781700
  C     -0.997600   -4.248500    4.662600
  C     -0.629700   -2.908300    4.604700
  H     -1.857700   -1.865800    7.593700
  H     -2.527600   -4.238500    7.688200
  H     -2.015800   -5.743900    5.828700
  H     -0.063800   -2.530800    3.767400
  C     -0.670500   -5.183300    3.573800
  C     -0.312000   -6.504400    3.856900
  C     -0.058200   -7.386800    2.820100
  C     -0.152500   -6.933200    1.516500
  N     -0.464900   -5.661300    1.243900
  C     -0.722300   -4.806700    2.230900
  H     -0.223000   -6.832700    4.880600
  H      0.209600   -8.411100    3.023100
  H      0.033200   -7.599600    0.670000
  H     -0.999900   -3.801300    1.935000
  C     -6.754900   -1.120900   -0.687700
  C     -6.674500   -2.308800   -0.477100
  C     -6.442300   -3.684600   -0.275000
  C     -7.461800   -4.573800    0.009800
  C     -7.194800   -5.936900    0.189900
  C     -5.919400   -6.431400    0.085300
  C     -4.851800   -5.557000   -0.207900
  C     -3.518100   -5.997700   -0.334700
  N     -2.528900   -5.180600   -0.610400
  C     -2.764000   -3.851100   -0.784600
  C     -4.018700   -3.325600   -0.684300
  C     -5.109200   -4.169500   -0.388500
  H     -8.475800   -4.213300    0.095100
  H     -8.014600   -6.602600    0.412500
  H     -5.724700   -7.483100    0.223200
  H     -3.276100   -7.045700   -0.201300
  H     -1.897600   -3.223500   -1.022700
  H     -4.199600   -2.272800   -0.831600
  C     -6.841400    0.254200   -0.997100
  C     -7.968800    0.752700   -1.653900
  C     -8.017200    2.087500   -2.009700
  C     -6.962600    2.932300   -1.710200
  C     -5.836400    2.451200   -1.037800
  C     -5.779700    1.106300   -0.687200
  H     -8.790200    0.092500   -1.886700
  H     -8.882600    2.473800   -2.526500
  H     -7.009000    3.964000   -2.022400
  H     -4.936700    0.717900   -0.137500
  C     -4.739600    3.377400   -0.713300
  C     -5.013200    4.695400   -0.336700
  C     -3.970100    5.571000   -0.085100
  C     -2.669600    5.113100   -0.198700
  N     -2.405700    3.843500   -0.528100
  C     -3.398900    2.995900   -0.784300
  H     -6.034400    5.026700   -0.232000
  H     -4.165900    6.593100    0.196300
  H     -1.818300    5.774300   -0.015500
  H     -3.109700    1.992800   -1.076400
  C     -0.498900   -0.557200   -6.921300
  C     -0.697200    0.630500   -6.811900
  C     -0.886600    2.002400   -6.547700
  C     -1.161600    2.917600   -7.546800
  C     -1.329900    4.275700   -7.248500
  C     -1.223500    4.739500   -5.961700
  C     -0.940100    3.837900   -4.914200
  C     -0.812600    4.246400   -3.570400
  N     -0.545600    3.404400   -2.599800
  C     -0.381400    2.079300   -2.865900
  C     -0.483800    1.583900   -4.132600
  C     -0.770900    2.455300   -5.203600
  H     -1.248500    2.581600   -8.568900
  H     -1.545100    4.962200   -8.052900
  H     -1.352600    5.787500   -5.742900
  H     -0.937900    5.289600   -3.304400
  H     -0.149500    1.429600   -2.014400
  H     -0.344700    0.534400   -4.337700
  C     -0.203800   -1.932800   -7.042800
  C      0.441600   -2.410200   -8.185800
  C      0.783200   -3.746900   -8.269000
  C      0.480700   -4.614400   -7.233800
  C     -0.180500   -4.154300   -6.092300
  C     -0.516900   -2.807600   -6.000700
  H      0.676800   -1.732400   -8.992100
  H      1.291000   -4.117100   -9.146700
  H      0.781900   -5.647700   -7.307400
  H     -1.058000   -2.434500   -5.145400
  C     -0.508100   -5.103800   -5.016400
  C     -0.898200   -6.411500   -5.319100
  C     -1.152400   -7.309300   -4.295700
  C     -1.028200   -6.883600   -2.985300
  N     -0.686000   -5.623700   -2.693300
  C     -0.426900   -4.755000   -3.667400
  H     -1.011300   -6.717400   -6.347200
  H     -1.444100   -8.323800   -4.514200
  H     -1.212900   -7.562900   -2.148700
  H     -0.123700   -3.761800   -3.356100

 Total Charge           Charge          ....    4
 Multiplicity           Mult            ....    1
 Number of Electrons    NEL             ....  672
 Basis Dimension        Dim             .... 1686

ORBITAL ENERGIES
----------------

  NO   OCC          E(Eh)            E(eV)
   0   2.0000     -14.761888      -401.6914
   1   2.0000     -14.761839      -401.6901
   2   2.0000     -14.761780      -401.6885
   3   2.0000     -14.761710      -401.6866
   4   2.0000     -14.758205      -401.5912
   5   2.0000     -14.758166      -401.5901
   6   2.0000     -14.758122      -401.5889
   7   2.0000     -14.758091      -401.5881
   8   2.0000     -10.596196      -288.3372
   9   2.0000     -10.596134      -288.3355
  10   2.0000     -10.596060      -288.3335
  11   2.0000     -10.596006      -288.3320
  12   2.0000     -10.592064      -288.2247
  13   2.0000     -10.592011      -288.2233
  14   2.0000     -10.591911      -288.2206
  15   2.0000     -10.591790      -288.2173
  16   2.0000     -10.589786      -288.1627
  17   2.0000     -10.589661      -288.1593
  18   2.0000     -10.589556      -288.1565
  19   2.0000     -10.589472      -288.1542
  20   2.0000     -10.586324      -288.0685
  21   2.0000     -10.586287      -288.0675
  22   2.0000     -10.586198      -288.0651
  23   2.0000     -10.586146      -288.0637
  24   2.0000     -10.559858      -287.3483
  25   2.0000     -10.559813      -287.3471
  26   2.0000     -10.559700      -287.3440
  27   2.0000     -10.559546      -287.3399
  28   2.0000     -10.554186      -287.1940
  29   2.0000     -10.554119      -287.1922
  30   2.0000     -10.554009      -287.1892
  31   2.0000     -10.553947      -287.1875
  32   2.0000     -10.552477      -287.1475
  33   2.0000     -10.552407      -287.1456
  34   2.0000     -10.552323      -287.1433
  35   2.0000     -10.552146      -287.1385
  36   2.0000     -10.550909      -287.1048
  37   2.0000     -10.550836      -287.1028
  38   2.0000     -10.550737      -287.1001
  39   2.0000     -10.550655      -287.0979
  40   2.0000     -10.549625      -287.0699
  41   2.0000     -10.549569      -287.0684
  42   2.0000     -10.549460      -287.0654
  43   2.0000     -10.549452      -287.0652
  44   2.0000     -10.547676      -287.0169
  45   2.0000     -10.547568      -287.0139
  46   2.0000     -10.547454      -287.0108
  47   2.0000     -10.547331      -287.0075
  48   2.0000     -10.545625      -286.9610
  49   2.0000     -10.545578      -286.9598
  50   2.0000     -10.545438      -286.9559
  51   2.0000     -10.545383      -286.9545
  52   2.0000     -10.528690      -286.5002
  53   2.0000     -10.528642      -286.4989
  54   2.0000     -10.528525      -286.4957
  55   2.0000     -10.528376      -286.4917
  56   2.0000     -10.526598      -286.4433
  57   2.0000     -10.526566      -286.4424
  58   2.0000     -10.526494      -286.4405
  59   2.0000     -10.526444      -286.4391
  60   2.0000     -10.526431      -286.4387
  61   2.0000     -10.526319      -286.4357
  62   2.0000     -10.526285      -286.4348
  63   2.0000     -10.526212      -286.4328
  64   2.0000     -10.525200      -286.4052
  65   2.0000     -10.525135      -286.4035
  66   2.0000     -10.525003      -286.3999
  67   2.0000     -10.524923      -286.3977
  68   2.0000     -10.518813      -286.2315
  69   2.0000     -10.518780      -286.2306
  70   2.0000     -10.518653      -286.2271
  71   2.0000     -10.518592      -286.2254
  72   2.0000     -10.518528      -286.2237
  73   2.0000     -10.518514      -286.2233
  74   2.0000     -10.518419      -286.2207
  75   2.0000     -10.518312      -286.2178
  76   2.0000     -10.508967      -285.9635
  77   2.0000     -10.508923      -285.9623
  78   2.0000     -10.508771      -285.9582
  79   2.0000     -10.508745      -285.9575
  80   2.0000     -10.508017      -285.9377
  81   2.0000     -10.507964      -285.9362
  82   2.0000     -10.507877      -285.9339
  83   2.0000     -10.507664      -285.9281
  84   2.0000     -10.504796      -285.8500
  85   2.0000     -10.504763      -285.8491
  86   2.0000     -10.504618      -285.8452
  87   2.0000     -10.504559      -285.8436
  88   2.0000     -10.504164      -285.8328
  89   2.0000     -10.504103      -285.8312
  90   2.0000     -10.504006      -285.8285
  91   2.0000     -10.503835      -285.8239
  92   2.0000     -10.497824      -285.6603
  93   2.0000     -10.497760      -285.6586
  94   2.0000     -10.497676      -285.6563
  95   2.0000     -10.497461      -285.6504
  96   2.0000      -3.860047      -105.0372
  97   2.0000      -3.859989      -105.0356
  98   2.0000      -2.537873       -69.0590
  99   2.0000      -2.537857       -69.0586
 100   2.0000      -2.537630       -69.0524
 101   2.0000      -2.537466       -69.0480
 102   2.0000      -2.500980       -68.0551
 103   2.0000      -2.500943       -68.0541
 104   2.0000      -1.314388       -35.7663
 105   2.0000      -1.314287       -35.7636
 106   2.0000      -1.307874       -35.5891
 107   2.0000      -1.307824       -35.5877
 108   2.0000      -1.305578       -35.5266
 109   2.0000      -1.305508       -35.5247
 110   2.0000      -1.305008       -35.5111
 111   2.0000      -1.304919       -35.5087
 112   2.0000      -1.184999       -32.2455
 113   2.0000      -1.184902       -32.2428
 114   2.0000      -1.184257       -32.2253
 115   2.0000      -1.184182       -32.2232
 116   2.0000      -1.171415       -31.8758
 117   2.0000      -1.171300       -31.8727
 118   2.0000      -1.170915       -31.8622
 119   2.0000      -1.170808       -31.8593
 120   2.0000      -1.137586       -30.9553
 121   2.0000      -1.137422       -30.9508
 122   2.0000      -1.136066       -30.9139
 123   2.0000      -1.136011       -30.9124
 124   2.0000      -1.119359       -30.4593
 125   2.0000      -1.119241       -30.4561
 126   2.0000      -1.119133       -30.4532
 127   2.0000      -1.119081       -30.4518
 128   2.0000      -1.108497       -30.1637
 129   2.0000      -1.108392       -30.1609
 130   2.0000      -1.108288       -30.1581
 131   2.0000      -1.108088       -30.1526
 132   2.0000      -1.096326       -29.8325
 133   2.0000      -1.096161       -29.8281
 134   2.0000      -1.094678       -29.7877
 135   2.0000      -1.094630       -29.7864
 136   2.0000      -1.077005       -29.3068
 137   2.0000      -1.076577       -29.2951
 138   2.0000      -1.076508       -29.2933
 139   2.0000      -1.076269       -29.2868
 140   2.0000      -1.061235       -28.8777
 141   2.0000      -1.060729       -28.8639
 142   2.0000      -1.060683       -28.8627
 143   2.0000      -1.060321       -28.8528
 144   2.0000      -1.040945       -28.3255
 145   2.0000      -1.040874       -28.3236
 146   2.0000      -1.040761       -28.3206
 147   2.0000      -1.040604       -28.3163
 148   2.0000      -1.010445       -27.4956
 149   2.0000      -1.010226       -27.4897
 150   2.0000      -1.010129       -27.4870
 151   2.0000      -1.009991       -27.4833
 152   2.0000      -0.979668       -26.6581
 153   2.0000      -0.979365       -26.6499
 154   2.0000      -0.978204       -26.6183
 155   2.0000      -0.978142       -26.6166
 156   2.0000      -0.970803       -26.4169
 157   2.0000      -0.970767       -26.4159
 158   2.0000      -0.970522       -26.4093
 159   2.0000      -0.970334       -26.4041
 160   2.0000      -0.961746       -26.1704
 161   2.0000      -0.961505       -26.1639
 162   2.0000      -0.958816       -26.0907
 163   2.0000      -0.958784       -26.0898
 164   2.0000      -0.952003       -25.9053
 165   2.0000      -0.951833       -25.9007
 166   2.0000      -0.949778       -25.8448
 167   2.0000      -0.949731       -25.8435
 168   2.0000      -0.934475       -25.4284
 169   2.0000      -0.934427       -25.4271
 170   2.0000      -0.934034       -25.4164
 171   2.0000      -0.934028       -25.4162
 172   2.0000      -0.903840       -24.5947
 173   2.0000      -0.903377       -24.5821
 174   2.0000      -0.902598       -24.5609
 175   2.0000      -0.902549       -24.5596
 176   2.0000      -0.898159       -24.4401
 177   2.0000      -0.897862       -24.4321
 178   2.0000      -0.895137       -24.3579
 179   2.0000      -0.895078       -24.3563
 180   2.0000      -0.876742       -23.8574
 181   2.0000      -0.871763       -23.7219
 182   2.0000      -0.865909       -23.5626
 183   2.0000      -0.864542       -23.5254
 184   2.0000      -0.864516       -23.5247
 185   2.0000      -0.860384       -23.4122
 186   2.0000      -0.856662       -23.3110
 187   2.0000      -0.856636       -23.3103
 188   2.0000      -0.850042       -23.1308
 189   2.0000      -0.849487       -23.1157
 190   2.0000      -0.847173       -23.0528
 191   2.0000      -0.847111       -23.0511
 192   2.0000      -0.833265       -22.6743
 193   2.0000      -0.832958       -22.6659
 194   2.0000      -0.826128       -22.4801
 195   2.0000      -0.826091       -22.4791
 196   2.0000      -0.824544       -22.4370
 197   2.0000      -0.824527       -22.4365
 198   2.0000      -0.824392       -22.4329
 199   2.0000      -0.824349       -22.4317
 200   2.0000      -0.821619       -22.3574
 201   2.0000      -0.820966       -22.3396
 202   2.0000      -0.818399       -22.2698
 203   2.0000      -0.818368       -22.2689
 204   2.0000      -0.790600       -21.5133
 205   2.0000      -0.790416       -21.5083
 206   2.0000      -0.788400       -21.4535
 207   2.0000      -0.788002       -21.4426
 208   2.0000      -0.786052       -21.3896
 209   2.0000      -0.784723       -21.3534
 210   2.0000      -0.780851       -21.2480
 211   2.0000      -0.780824       -21.2473
 212   2.0000      -0.779544       -21.2125
 213   2.0000      -0.778531       -21.1849
 214   2.0000      -0.776107       -21.1189
 215   2.0000      -0.776011       -21.1163
 216   2.0000      -0.773864       -21.0579
 217   2.0000      -0.773851       -21.0576
 218   2.0000      -0.768572       -20.9139
 219   2.0000      -0.768455       -20.9107
 220   2.0000      -0.762582       -20.7509
 221   2.0000      -0.762515       -20.7491
 222   2.0000      -0.762041       -20.7362
 223   2.0000      -0.761123       -20.7112
 224   2.0000      -0.759004       -20.6535
 225   2.0000      -0.758759       -20.6469
 226   2.0000      -0.757117       -20.6022
 227   2.0000      -0.756986       -20.5986
 228   2.0000      -0.755466       -20.5573
 229   2.0000      -0.754452       -20.5297
 230   2.0000      -0.753589       -20.5062
 231   2.0000      -0.753430       -20.5019
 232   2.0000      -0.752033       -20.4639
 233   2.0000      -0.751986       -20.4626
 234   2.0000      -0.748717       -20.3736
 235   2.0000      -0.747820       -20.3492
 236   2.0000      -0.747124       -20.3303
 237   2.0000      -0.747078       -20.3290
 238   2.0000      -0.742998       -20.2180
 239   2.0000      -0.742943       -20.2165
 240   2.0000      -0.742417       -20.2022
 241   2.0000      -0.741722       -20.1833
 242   2.0000      -0.737507       -20.0686
 243   2.0000      -0.737458       -20.0673
 244   2.0000      -0.736034       -20.0285
 245   2.0000      -0.735553       -20.0154
 246   2.0000      -0.731849       -19.9146
 247   2.0000      -0.731831       -19.9141
 248   2.0000      -0.725912       -19.7531
 249   2.0000      -0.725650       -19.7459
 250   2.0000      -0.711242       -19.3539
 251   2.0000      -0.711128       -19.3508
 252   2.0000      -0.711050       -19.3487
 253   2.0000      -0.710873       -19.3438
 254   2.0000      -0.708764       -19.2864
 255   2.0000      -0.708684       -19.2843
 256   2.0000      -0.700918       -19.0729
 257   2.0000      -0.700807       -19.0699
 258   2.0000      -0.694508       -18.8985
 259   2.0000      -0.693559       -18.8727
 260   2.0000      -0.691284       -18.8108
 261   2.0000      -0.691014       -18.8034
 262   2.0000      -0.690929       -18.8011
 263   2.0000      -0.690058       -18.7774
 264   2.0000      -0.685864       -18.6633
 265   2.0000      -0.685781       -18.6611
 266   2.0000      -0.684457       -18.6250
 267   2.0000      -0.684293       -18.6206
 268   2.0000      -0.676119       -18.3981
 269   2.0000      -0.676061       -18.3966
 270   2.0000      -0.674465       -18.3531
 271   2.0000      -0.671418       -18.2702
 272   2.0000      -0.671379       -18.2691
 273   2.0000      -0.669806       -18.2264
 274   2.0000      -0.657410       -17.8890
 275   2.0000      -0.657060       -17.8795
 276   2.0000      -0.652815       -17.7640
 277   2.0000      -0.652757       -17.7624
 278   2.0000      -0.652590       -17.7579
 279   2.0000      -0.652162       -17.7462
 280   2.0000      -0.651209       -17.7203
 281   2.0000      -0.647100       -17.6085
 282   2.0000      -0.646933       -17.6039
 283   2.0000      -0.646841       -17.6014
 284   2.0000      -0.641670       -17.4607
 285   2.0000      -0.641599       -17.4588
 286   2.0000      -0.640810       -17.4373
 287   2.0000      -0.640698       -17.4343
 288   2.0000      -0.636568       -17.3219
 289   2.0000      -0.636517       -17.3205
 290   2.0000      -0.633859       -17.2482
 291   2.0000      -0.633318       -17.2335
 292   2.0000      -0.633150       -17.2289
 293   2.0000      -0.632966       -17.2239
 294   2.0000      -0.628507       -17.1026
 295   2.0000      -0.628453       -17.1011
 296   2.0000      -0.624994       -17.0069
 297   2.0000      -0.624882       -17.0039
 298   2.0000      -0.624494       -16.9933
 299   2.0000      -0.622525       -16.9398
 300   2.0000      -0.621118       -16.9015
 301   2.0000      -0.620967       -16.8974
 302   2.0000      -0.610538       -16.6136
 303   2.0000      -0.609945       -16.5974
 304   2.0000      -0.609895       -16.5961
 305   2.0000      -0.605688       -16.4816
 306   2.0000      -0.601754       -16.3746
 307   2.0000      -0.601687       -16.3727
 308   2.0000      -0.601235       -16.3604
 309   2.0000      -0.596956       -16.2440
 310   2.0000      -0.588991       -16.0273
 311   2.0000      -0.588948       -16.0261
 312   2.0000      -0.586045       -15.9471
 313   2.0000      -0.585078       -15.9208
 314   2.0000      -0.575702       -15.6657
 315   2.0000      -0.575183       -15.6515
 316   2.0000      -0.573128       -15.5956
 317   2.0000      -0.573014       -15.5925
 318   2.0000      -0.571364       -15.5476
 319   2.0000      -0.568949       -15.4819
 320   2.0000      -0.562636       -15.3101
 321   2.0000      -0.562394       -15.3035
 322   2.0000      -0.562278       -15.3004
 323   2.0000      -0.561827       -15.2881
 324   2.0000      -0.539121       -14.6702
 325   2.0000      -0.538936       -14.6652
 326   2.0000      -0.538867       -14.6633
 327   2.0000      -0.538593       -14.6559
 328   2.0000      -0.532596       -14.4927
 329   2.0000      -0.532385       -14.4869
 330   2.0000      -0.532295       -14.4845
 331   2.0000      -0.531873       -14.4730
 332   2.0000      -0.499543       -13.5933
 333   2.0000      -0.499344       -13.5878
 334   2.0000      -0.499220       -13.5845
 335   2.0000      -0.498827       -13.5738
 336   0.0000      -0.359611        -9.7855
 337   0.0000      -0.359601        -9.7852
 338   0.0000      -0.357151        -9.7186
 339   0.0000      -0.357022        -9.7151
 340   0.0000      -0.348286        -9.4773

MULLIKEN ATOMIC CHARGES
-----------------------
   0 Pd:    0.407072
   1 Pd:    0.404137
   2 C :    0.009186
   3 C :   -0.043061
   4 C :   -0.015257
   5 C :    0.045770
   6 C :    0.020466
   7 C :    0.020718
   8 C :   -0.061890
   9 C :    0.159575
  10 N :   -0.321282
  11 C :    0.129258
  12 C :    0.010917
  13 C :    0.059928
  14 H :    0.065015
  15 H :    0.079204
  16 H :    0.047279
  17 H :    0.064146
  18 H :    0.056574
  19 H :    0.026822
  20 C :   -0.057925
  21 C :    0.049047
  22 C :    0.010877
  23 C :   -0.016150
  24 C :    0.037753
  25 C :   -0.015203
  26 H :    0.055250
  27 H :    0.067718
  28 H :    0.041089
  29 H :   -0.005444
  30 C :   -0.035293
  31 C :    0.065713
  32 C :   -0.012359
  33 C :    0.124637
  34 N :   -0.309995
  35 C :    0.142668
  36 H :    0.080008
  37 H :    0.082588
  38 H :    0.093668
  39 H :    0.045979
  40 C :    0.009561
  41 C :   -0.043263
  42 C :   -0.014859
  43 C :    0.045714
  44 C :    0.020567
  45 C :    0.020777
  46 C :   -0.062123
  47 C :    0.160191
  48 N :   -0.321227
  49 C :    0.129702
  50 C :    0.010796
  51 C :    0.059729
  52 H :    0.065013
  53 H :    0.079280
  54 H :    0.047346
  55 H :    0.063456
  56 H :    0.055418
  57 H :    0.026348
  58 C :   -0.057630
  59 C :    0.048859
  60 C :    0.010842
  61 C :   -0.016164
  62 C :    0.037419
  63 C :   -0.015300
  64 H :    0.055242
  65 H :    0.067533
  66 H :    0.040713
  67 H :   -0.005038
  68 C :   -0.035575
  69 C :    0.065996
  70 C :   -0.012381
  71 C :    0.124755
  72 N :   -0.310397
  73 C :    0.141869
  74 H :    0.080126
  75 H :    0.082705
  76 H :    0.094042
  77 H :    0.046990
  78 C :    0.009213
  79 C :   -0.042766
  80 C :   -0.015270
  81 C :    0.045763
  82 C :    0.020470
  83 C :    0.020718
  84 C :   -0.061882
  85 C :    0.159692
  86 N :   -0.321421
  87 C :    0.128756
  88 C :    0.010998
  89 C :    0.059781
  90 H :    0.065059
  91 H :    0.079243
  92 H :    0.047336
  93 H :    0.064255
  94 H :    0.056401
  95 H :    0.026715
  96 C :   -0.057998
  97 C :    0.048964
  98 C :    0.010886
  99 C :   -0.016309
 100 C :    0.037486
 101 C :   -0.015191
 102 H :    0.055299
 103 H :    0.067604
 104 H :    0.040880
 105 H :   -0.005027
 106 C :   -0.035276
 107 C :    0.065583
 108 C :   -0.012288
 109 C :    0.123835
 110 N :   -0.310413
 111 C :    0.142654
 112 H :    0.080081
 113 H :    0.082636
 114 H :    0.093657
 115 H :    0.046632
 116 C :    0.009169
 117 C :   -0.042928
 118 C :   -0.015218
 119 C :    0.045844
 120 C :    0.020482
 121 C :    0.020787
 122 C :   -0.062016
 123 C :    0.160093
 124 N :   -0.321247
 125 C :    0.129256
 126 C :    0.010825
 127 C :    0.059811
 128 H :    0.064957
 129 H :    0.079208
 130 H :    0.047290
 131 H :    0.063838
 132 H :    0.055703
 133 H :    0.026711
 134 C :   -0.057827
 135 C :    0.048928
 136 C :    0.010879
 137 C :   -0.016288
 138 C :    0.037647
 139 C :   -0.015065
 140 H :    0.055299
 141 H :    0.067618
 142 H :    0.040836
 143 H :   -0.005330
 144 C :   -0.035036
 145 C :    0.065689
 146 C :   -0.012240
 147 C :    0.124063
 148 N :   -0.310466
 149 C :    0.141845
 150 H :    0.080007
 151 H :    0.082621
 152 H :    0.094304
 153 H :    0.046967
Sum of atomic charges:    4.0000000

LOEWDIN ATOMIC CHARGES
----------------------
   0 Pd:   -0.376267
   1 Pd:   -0.376711
   2 C :   -0.000201
   3 C :   -0.031811
   4 C :   -0.030922
   5 C :    0.053969
   6 C :    0.023544
   7 C :    0.012554
   8 C :   -0.029127
   9 C :    0.099372
  10 N :    0.060372
  11 C :    0.027925
  12 C :    0.007529
  13 C :    0.018420
  14 H :    0.062700
  15 H :    0.062667
  16 H :    0.051381
  17 H :    0.054818
  18 H :    0.051727
  19 H :    0.050055
  20 C :   -0.044666
  21 C :    0.034458
  22 C :    0.009817
  23 C :    0.004312
  24 C :   -0.038600
  25 C :   -0.005497
  26 H :    0.056046
  27 H :    0.057661
  28 H :    0.044099
  29 H :    0.027916
  30 C :   -0.004607
  31 C :    0.058454
  32 C :    0.005809
  33 C :    0.063251
  34 N :    0.072479
  35 C :    0.068187
  36 H :    0.062129
  37 H :    0.066641
  38 H :    0.062002
  39 H :    0.043991
  40 C :   -0.000339
  41 C :   -0.031510
  42 C :   -0.030933
  43 C :    0.054034
  44 C :    0.023625
  45 C :    0.012667
  46 C :   -0.029116
  47 C :    0.099542
  48 N :    0.060460
  49 C :    0.027645
  50 C :    0.007484
  51 C :    0.018441
  52 H :    0.062698
  53 H :    0.062713
  54 H :    0.051414
  55 H :    0.054761
  56 H :    0.051563
  57 H :    0.049905
  58 C :   -0.044548
  59 C :    0.034346
  60 C :    0.009688
  61 C :    0.004048
  62 C :   -0.038652
  63 C :   -0.005446
  64 H :    0.056037
  65 H :    0.057566
  66 H :    0.043949
  67 H :    0.028015
  68 C :   -0.004728
  69 C :    0.058442
  70 C :    0.005795
  71 C :    0.063465
  72 N :    0.072258
  73 C :    0.067904
  74 H :    0.062194
  75 H :    0.066678
  76 H :    0.061989
  77 H :    0.044071
  78 C :   -0.000311
  79 C :   -0.031625
  80 C :   -0.030950
  81 C :    0.053961
  82 C :    0.023530
  83 C :    0.012587
  84 C :   -0.029148
  85 C :    0.099479
  86 N :    0.060381
  87 C :    0.027664
  88 C :    0.007502
  89 C :    0.018432
  90 H :    0.062718
  91 H :    0.062688
  92 H :    0.051411
  93 H :    0.054883
  94 H :    0.051808
  95 H :    0.050057
  96 C :   -0.044627
  97 C :    0.034394
  98 C :    0.009748
  99 C :    0.004107
 100 C :   -0.038655
 101 C :   -0.005459
 102 H :    0.056056
 103 H :    0.057600
 104 H :    0.044000
 105 H :    0.028055
 106 C :   -0.004701
 107 C :    0.058360
 108 C :    0.005683
 109 C :    0.062960
 110 N :    0.072277
 111 C :    0.068280
 112 H :    0.062150
 113 H :    0.066637
 114 H :    0.062001
 115 H :    0.044075
 116 C :   -0.000352
 117 C :   -0.031618
 118 C :   -0.030948
 119 C :    0.054018
 120 C :    0.023530
 121 C :    0.012655
 122 C :   -0.029159
 123 C :    0.099533
 124 N :    0.060323
 125 C :    0.027751
 126 C :    0.007454
 127 C :    0.018420
 128 H :    0.062667
 129 H :    0.062669
 130 H :    0.051386
 131 H :    0.054780
 132 H :    0.051591
 133 H :    0.050027
 134 C :   -0.044598
 135 C :    0.034401
 136 C :    0.009752
 137 C :    0.004164
 138 C :   -0.038623
 139 C :   -0.005448
 140 H :    0.056066
 141 H :    0.057610
 142 H :    0.043983
 143 H :    0.027954
 144 C :   -0.004688
 145 C :    0.058396
 146 C :    0.005763
 147 C :    0.063177
 148 N :    0.072286
 149 C :    0.068047
 150 H :    0.062118
 151 H :    0.066644
 152 H :    0.062140
 153 H :    0.044120

  Mayer bond orders larger than 0.100000
B(  0-Pd, 34-N ) :   0.5363 B(  0-Pd, 48-N ) :   0.5350 B(  0-Pd,110-N ) :   0.5354
B(  0-Pd,124-N ) :   0.5353 B(  1-Pd, 10-N ) :   0.5363 B(  1-Pd, 72-N ) :   0.5367
B(  1-Pd, 86-N ) :   0.5355 B(  1-Pd,148-N ) :   0.5360 B(  2-C ,  3-C ) :   2.5950
B(  2-C , 20-C ) :   0.9999 B(  3-C ,  4-C ) :   1.0060 B(  4-C ,  5-C ) :   1.4277
B(  4-C , 13-C ) :   1.2443 B(  5-C ,  6-C ) :   1.2696 B(  5-C , 14-H ) :   0.9921
B(  6-C ,  7-C ) :   1.4708 B(  6-C , 15-H ) :   0.9801 B(  7-C ,  8-C ) :   1.2405
B(  7-C , 16-H ) :   0.9957 B(  8-C ,  9-C ) :   1.2817 B(  8-C , 13-C ) :   1.2272
B(  9-C , 10-N ) :   1.4537 B(  9-C , 17-H ) :   0.9584 B( 10-N , 11-C ) :   1.1677
B( 11-C , 12-C ) :   1.5398 B( 11-C , 18-H ) :   0.9373 B( 12-C , 13-C ) :   1.2891
B( 12-C , 19-H ) :   0.9535 B( 20-C , 21-C ) :   1.3370 B( 20-C , 25-C ) :   1.3458
B( 21-C , 22-C ) :   1.3835 B( 21-C , 26-H ) :   0.9956 B( 22-C , 23-C ) :   1.3956
B( 22-C , 27-H ) :   0.9830 B( 23-C , 24-C ) :   1.3563 B( 23-C , 28-H ) :   0.9889
B( 24-C , 25-C ) :   1.3646 B( 24-C , 30-C ) :   1.0051 B( 25-C , 29-H ) :   0.9864
B( 30-C , 31-C ) :   1.3803 B( 30-C , 35-C ) :   1.3939 B( 31-C , 32-C ) :   1.3989
B( 31-C , 36-H ) :   0.9800 B( 32-C , 33-C ) :   1.4336 B( 32-C , 37-H ) :   0.9712
B( 33-C , 34-N ) :   1.2928 B( 33-C , 38-H ) :   0.9422 B( 34-N , 35-C ) :   1.3539
B( 35-C , 39-H ) :   0.9571 B( 40-C , 41-C ) :   2.5948 B( 40-C , 58-C ) :   1.0002
B( 41-C , 42-C ) :   1.0062 B( 42-C , 43-C ) :   1.4274 B( 42-C , 51-C ) :   1.2441
B( 43-C , 44-C ) :   1.2697 B( 43-C , 52-H ) :   0.9921 B( 44-C , 45-C ) :   1.4707
B( 44-C , 53-H ) :   0.9801 B( 45-C , 46-C ) :   1.2406 B( 45-C , 54-H ) :   0.9957
B( 46-C , 47-C ) :   1.2817 B( 46-C , 51-C ) :   1.2273 B( 47-C , 48-N ) :   1.4547
B( 47-C , 55-H ) :   0.9587 B( 48-N , 49-C ) :   1.1675 B( 49-C , 50-C ) :   1.5407
B( 49-C , 56-H ) :   0.9375 B( 50-C , 51-C ) :   1.2893 B( 50-C , 57-H ) :   0.9532
B( 58-C , 59-C ) :   1.3369 B( 58-C , 63-C ) :   1.3456 B( 59-C , 60-C ) :   1.3836
B( 59-C , 64-H ) :   0.9956 B( 60-C , 61-C ) :   1.3954 B( 60-C , 65-H ) :   0.9830
B( 61-C , 62-C ) :   1.3563 B( 61-C , 66-H ) :   0.9890 B( 62-C , 63-C ) :   1.3650
B( 62-C , 68-C ) :   1.0047 B( 63-C , 67-H ) :   0.9864 B( 68-C , 69-C ) :   1.3801
B( 68-C , 73-C ) :   1.3945 B( 69-C , 70-C ) :   1.3990 B( 69-C , 74-H ) :   0.9801
B( 70-C , 71-C ) :   1.4330 B( 70-C , 75-H ) :   0.9712 B( 71-C , 72-N ) :   1.2933
B( 71-C , 76-H ) :   0.9421 B( 72-N , 73-C ) :   1.3528 B( 73-C , 77-H ) :   0.9567
B( 78-C , 79-C ) :   2.5948 B( 78-C , 96-C ) :   1.0000 B( 79-C , 80-C ) :   1.0064
B( 80-C , 81-C ) :   1.4275 B( 80-C , 89-C ) :   1.2444 B( 81-C , 82-C ) :   1.2696
B( 81-C , 90-H ) :   0.9921 B( 82-C , 83-C ) :   1.4707 B( 82-C , 91-H ) :   0.9801
B( 83-C , 84-C ) :   1.2405 B( 83-C , 92-H ) :   0.9957 B( 84-C , 85-C ) :   1.2813
B( 84-C , 89-C ) :   1.2273 B( 85-C , 86-N ) :   1.4542 B( 85-C , 93-H ) :   0.9585
B( 86-N , 87-C ) :   1.1674 B( 87-C , 88-C ) :   1.5399 B( 87-C , 94-H ) :   0.9374
B( 88-C , 89-C ) :   1.2890 B( 88-C , 95-H ) :   0.9535 B( 96-C , 97-C ) :   1.3371
B( 96-C ,101-C ) :   1.3456 B( 97-C , 98-C ) :   1.3834 B( 97-C ,102-H ) :   0.9956
B( 98-C , 99-C ) :   1.3956 B( 98-C ,103-H ) :   0.9830 B( 99-C ,100-C ) :   1.3562
B( 99-C ,104-H ) :   0.9890 B(100-C ,101-C ) :   1.3648 B(100-C ,106-C ) :   1.0049
B(101-C ,105-H ) :   0.9865 B(106-C ,107-C ) :   1.3803 B(106-C ,111-C ) :   1.3939
B(107-C ,108-C ) :   1.3989 B(107-C ,112-H ) :   0.9801 B(108-C ,109-C ) :   1.4334
B(108-C ,113-H ) :   0.9712 B(109-C ,110-N ) :   1.2927 B(109-C ,114-H ) :   0.9423
B(110-N ,111-C ) :   1.3541 B(111-C ,115-H ) :   0.9569 B(116-C ,117-C ) :   2.5950
B(116-C ,134-C ) :   0.9999 B(117-C ,118-C ) :   1.0061 B(118-C ,119-C ) :   1.4274
B(118-C ,127-C ) :   1.2444 B(119-C ,120-C ) :   1.2697 B(119-C ,128-H ) :   0.9921
B(120-C ,121-C ) :   1.4707 B(120-C ,129-H ) :   0.9801 B(121-C ,122-C ) :   1.2405
B(121-C ,130-H ) :   0.9957 B(122-C ,123-C ) :   1.2816 B(122-C ,127-C ) :   1.2273
B(123-C ,124-N ) :   1.4545 B(123-C ,131-H ) :   0.9584 B(124-N ,125-C ) :   1.1675
B(125-C ,126-C ) :   1.5403 B(125-C ,132-H ) :   0.9376 B(126-C ,127-C ) :   1.2890
B(126-C ,133-H ) :   0.9534 B(134-C ,135-C ) :   1.3370 B(134-C ,139-C ) :   1.3456
B(135-C ,136-C ) :   1.3836 B(135-C ,140-H ) :   0.9956 B(136-C ,137-C ) :   1.3955
B(136-C ,141-H ) :   0.9830 B(137-C ,138-C ) :   1.3563 B(137-C ,142-H ) :   0.9890
B(138-C ,139-C ) :   1.3648 B(138-C ,144-C ) :   1.0050 B(139-C ,143-H ) :   0.9864
B(144-C ,145-C ) :   1.3801 B(144-C ,149-C ) :   1.3940 B(145-C ,146-C ) :   1.3989
B(145-C ,150-H ) :   0.9801 B(146-C ,147-C ) :   1.4331 B(146-C ,151-H ) :   0.9712
B(147-C ,148-N ) :   1.2930 B(147-C ,152-H ) :   0.9421 B(148-N ,149-C ) :   1.3534
B(149-C ,153-H ) :   0.9570

Dispersion correction           -0.248134046
FINAL SINGLE POINT ENERGY     -4072.754275194235

DIPOLE MOMENT
-------------
                                X             Y             Z
Electronic contribution:      2.15571      -0.00344       1.10461
Nuclear contribution   :     -2.16962       0.01187      -1.11261
                        -----------------------------------------
Total Dipole Moment    :     -0.01390       0.00843      -0.00800
                        -----------------------------------------
Magnitude (a.u.)       :      0.01812
Magnitude (Debye)      :      0.04606

Rotational constants in cm-1:     0.000525     0.000421     0.000418
Rotational constants in MHz :    15.737495    12.624530    12.517205

                             ****ORCA TERMINATED NORMALLY****
TOTAL RUN TIME: 0 days 0 hours 14 minutes 38 seconds 194 msec
