                         Program Version 4.2.1 -  RELEASE  -
|  1> ! DFT SP RKS PBE0 def2-SVP D3BJ Grid6 NOFINALGRID SlowConv TightSCF printbasis
|  2>
|  3> %base "_s_5d1_c_PBE0"
|  4> %maxcore 3000
|  5> %scf
|  6>    MaxIter 2000
|  7> end
|  8> %pal
|  9>    nprocs 32
| 10> end
| 11>
| 12> * xyzfile 4 1 s_5d1_c.xyz
| 13>
| 14>                          ****END OF INPUT****

CARTESIAN COORDINATES (ANGSTROEM)
---------------------------------
  Pd    -0.052400    3.661000    0.293000
  Pd    -0.737800   -5.573300    0.175500
  C      5.667800   -1.123600    0.665800
  C      5.411200   -2.305200    0.670800
  C      5.097000   -3.676000    0.753700
  C      6.061300   -4.597700    1.122800
  C      5.743900   -5.952300    1.277800
  C      4.462800   -6.402500    1.088600
  C      3.452200   -5.495600    0.703400
  C      2.114500   -5.890600    0.519200
  N      1.172700   -5.051900    0.142500
  C      1.474900   -3.751800   -0.104300
  C      2.736400   -3.261100    0.075700
  C      3.767700   -4.120500    0.507100
  H      7.072400   -4.264000    1.300400
  H      6.523500   -6.641700    1.563300
  H      4.219100   -7.443400    1.229500
  H      1.820500   -6.922800    0.693900
  H      0.648000   -3.137000   -0.453900
  H      2.966300   -2.224000   -0.109000
  C      5.946800    0.258300    0.729000
  C      7.194400    0.700300    1.177800
  C      7.437600    2.056000    1.293500
  C      6.455800    2.977900    0.971600
  C      5.208000    2.551000    0.512500
  C      4.963100    1.186800    0.388400
  H      7.958100   -0.017100    1.436300
  H      8.398800    2.399900    1.644700
  H      6.656100    4.029600    1.104000
  H      4.022100    0.831600    0.000300
  C      4.166800    3.536100    0.180900
  C      4.483600    4.773000   -0.390300
  C      3.476100    5.683500   -0.661900
  C      2.165200    5.339900   -0.379700
  N      1.857900    4.153000    0.147100
  C      2.820000    3.275500    0.430800
  H      5.507500    5.011300   -0.631700
  H      3.705300    6.643800   -1.094700
  H      1.338800    6.020600   -0.574200
  H      2.498100    2.344500    0.893000
  C     -0.051100   -0.775300    6.302300
  C     -0.135300   -1.967800    6.121500
  C     -0.154800   -3.358400    5.896100
  C      0.117400   -4.242200    6.925800
  C      0.171700   -5.622300    6.697800
  C     -0.022000   -6.137700    5.442200
  C     -0.310300   -5.270300    4.366700
  C     -0.492600   -5.734700    3.051200
  N     -0.780400   -4.931600    2.048800
  C     -0.932600   -3.599900    2.263100
  C     -0.744000   -3.044700    3.496300
  C     -0.405200   -3.866900    4.590500
  H      0.297400   -3.859000    7.918800
  H      0.383100   -6.280300    7.526600
  H      0.041900   -7.199900    5.267800
  H     -0.391900   -6.793900    2.826700
  H     -1.214200   -3.014400    1.390200
  H     -0.852000   -1.984000    3.656200
  C      0.116800    0.612700    6.494500
  C      0.596900    1.096500    7.714600
  C      0.815500    2.452000    7.873500
  C      0.565400    3.332400    6.834400
  C      0.076000    2.864500    5.613200
  C     -0.151200    1.501000    5.452900
  H      0.799300    0.410600    8.522900
  H      1.191200    2.827700    8.813300
  H      0.777200    4.381600    6.969500
  H     -0.564900    1.118200    4.533800
  C     -0.179800    3.805000    4.511200
  C     -0.657500    5.098100    4.747800
  C     -0.859800    5.962100    3.684600
  C     -0.602600    5.517900    2.399100
  N     -0.164900    4.278500    2.168600
  C      0.051600    3.443600    3.184500
  H     -0.881500    5.416700    5.753800
  H     -1.220400    6.964100    3.851700
  H     -0.745200    6.158600    1.531100
  H      0.443300    2.462600    2.923300
  C     -6.458800   -0.784000   -0.184600
  C     -6.204900    0.398100   -0.172000
  C     -5.893300    1.770600   -0.235300
  C     -6.862900    2.697300   -0.576800
  C     -6.548600    4.054600   -0.713100
  C     -5.265400    4.502800   -0.533300
  C     -4.249300    3.590600   -0.176300
  C     -2.909400    3.983500   -0.003700
  N     -1.962300    3.139700    0.347700
  C     -2.260900    1.835900    0.578800
  C     -3.524200    1.347100    0.406900
  C     -4.561300    2.212300    0.002000
  H     -7.875900    2.365700   -0.747200
  H     -7.332300    4.747900   -0.976900
  H     -5.024300    5.546100   -0.660300
  H     -2.618200    5.018400   -0.166400
  H     -1.429300    1.216500    0.908600
  H     -3.751200    0.307000    0.577900
  C     -6.735500   -2.165300   -0.269000
  C     -7.978600   -2.602200   -0.735000
  C     -8.219400   -3.956300   -0.871600
  C     -7.239700   -4.881600   -0.553400
  C     -5.996500   -4.460100   -0.077000
  C     -5.754000   -3.097500    0.067700
  H     -8.740500   -1.881800   -0.990400
  H     -9.177000   -4.296200   -1.236300
  H     -7.437800   -5.931700   -0.701800
  H     -4.816900   -2.747000    0.469500
  C     -4.958000   -5.448900    0.251600
  C     -5.279600   -6.692600    0.804900
  C     -4.274400   -7.606000    1.075100
  C     -2.961100   -7.258800    0.808900
  N     -2.649400   -6.065800    0.298700
  C     -3.609000   -5.185100    0.016800
  H     -6.305600   -6.933900    1.034200
  H     -4.507300   -8.571400    1.494400
  H     -2.136300   -7.941600    1.002800
  H     -3.283200   -4.248500   -0.431100
  C     -0.746800   -1.140500   -5.833400
  C     -0.680700    0.052800   -5.650400
  C     -0.681600    1.443100   -5.422400
  C     -0.981400    2.323900   -6.447000
  C     -1.055500    3.702600   -6.215800
  C     -0.853600    4.219100   -4.961900
  C     -0.537300    3.354900   -3.891800
  C     -0.344200    3.820400   -2.578200
  N     -0.031200    3.020300   -1.581000
  C      0.137800    1.691300   -1.799000
  C     -0.057900    1.135100   -3.030600
  C     -0.423200    1.953500   -4.119200
  H     -1.167800    1.939500   -7.438300
  H     -1.288500    4.358300   -7.040500
  H     -0.932400    5.279900   -4.784800
  H     -0.457800    4.877600   -2.350800
  H      0.438900    1.108900   -0.930600
  H      0.064500    0.076300   -3.193600
  C     -0.893300   -2.530600   -6.027800
  C     -1.354900   -3.020900   -7.252400
  C     -1.552700   -4.379400   -7.413300
  C     -1.300300   -5.256300   -6.371900
  C     -0.829300   -4.781700   -5.145900
  C     -0.622600   -3.415200   -4.983700
  H     -1.559200   -2.337900   -8.062600
  H     -1.914100   -4.760200   -8.356700
  H     -1.496200   -6.308300   -6.509000
  H     -0.223500   -3.026700   -4.060700
  C     -0.571800   -5.718600   -4.041300
  C     -0.076000   -7.005900   -4.272800
  C      0.126700   -7.866900   -3.207300
  C     -0.147900   -7.425500   -1.924400
  N     -0.602400   -6.191300   -1.698600
  C     -0.819700   -5.359600   -2.716900
  H      0.161400   -7.322000   -5.276400
  H      0.500800   -8.864700   -3.370600
  H     -0.005600   -8.064100   -1.054900
  H     -1.226000   -4.383400   -2.459800

 Total Charge           Charge          ....    4
 Multiplicity           Mult            ....    1
 Number of Electrons    NEL             ....  672
 Basis Dimension        Dim             .... 1686

ORBITAL ENERGIES
----------------

  NO   OCC          E(Eh)            E(eV)
   0   2.0000     -14.760182      -401.6450
   1   2.0000     -14.760181      -401.6449
   2   2.0000     -14.760131      -401.6436
   3   2.0000     -14.760131      -401.6436
   4   2.0000     -14.759421      -401.6243
   5   2.0000     -14.759420      -401.6242
   6   2.0000     -14.759341      -401.6221
   7   2.0000     -14.759340      -401.6221
   8   2.0000     -10.598429      -288.3979
   9   2.0000     -10.598427      -288.3979
  10   2.0000     -10.598411      -288.3974
  11   2.0000     -10.598406      -288.3973
  12   2.0000     -10.589794      -288.1630
  13   2.0000     -10.589793      -288.1629
  14   2.0000     -10.589760      -288.1620
  15   2.0000     -10.589759      -288.1620
  16   2.0000     -10.587556      -288.1020
  17   2.0000     -10.587546      -288.1018
  18   2.0000     -10.587509      -288.1008
  19   2.0000     -10.587498      -288.1005
  20   2.0000     -10.587287      -288.0947
  21   2.0000     -10.587283      -288.0946
  22   2.0000     -10.587262      -288.0941
  23   2.0000     -10.587257      -288.0939
  24   2.0000     -10.558002      -287.2978
  25   2.0000     -10.557994      -287.2976
  26   2.0000     -10.557987      -287.2974
  27   2.0000     -10.557984      -287.2974
  28   2.0000     -10.557273      -287.2780
  29   2.0000     -10.557266      -287.2778
  30   2.0000     -10.557266      -287.2778
  31   2.0000     -10.557259      -287.2776
  32   2.0000     -10.553162      -287.1661
  33   2.0000     -10.553155      -287.1659
  34   2.0000     -10.553153      -287.1659
  35   2.0000     -10.553147      -287.1657
  36   2.0000     -10.552590      -287.1506
  37   2.0000     -10.552587      -287.1505
  38   2.0000     -10.552584      -287.1504
  39   2.0000     -10.552582      -287.1504
  40   2.0000     -10.550974      -287.1066
  41   2.0000     -10.550968      -287.1064
  42   2.0000     -10.550963      -287.1063
  43   2.0000     -10.550955      -287.1061
  44   2.0000     -10.548173      -287.0304
  45   2.0000     -10.548172      -287.0304
  46   2.0000     -10.548170      -287.0303
  47   2.0000     -10.548163      -287.0301
  48   2.0000     -10.545826      -286.9665
  49   2.0000     -10.545820      -286.9664
  50   2.0000     -10.545807      -286.9660
  51   2.0000     -10.545802      -286.9659
  52   2.0000     -10.529022      -286.5093
  53   2.0000     -10.529017      -286.5091
  54   2.0000     -10.529012      -286.5090
  55   2.0000     -10.529006      -286.5088
  56   2.0000     -10.528537      -286.4960
  57   2.0000     -10.528533      -286.4959
  58   2.0000     -10.528530      -286.4959
  59   2.0000     -10.528530      -286.4959
  60   2.0000     -10.527414      -286.4655
  61   2.0000     -10.527398      -286.4651
  62   2.0000     -10.527388      -286.4648
  63   2.0000     -10.527384      -286.4647
  64   2.0000     -10.525746      -286.4201
  65   2.0000     -10.525737      -286.4199
  66   2.0000     -10.525733      -286.4198
  67   2.0000     -10.525733      -286.4198
  68   2.0000     -10.521058      -286.2925
  69   2.0000     -10.521052      -286.2924
  70   2.0000     -10.521039      -286.2920
  71   2.0000     -10.521035      -286.2919
  72   2.0000     -10.518605      -286.2258
  73   2.0000     -10.518596      -286.2255
  74   2.0000     -10.518586      -286.2253
  75   2.0000     -10.518582      -286.2252
  76   2.0000     -10.510830      -286.0142
  77   2.0000     -10.510809      -286.0137
  78   2.0000     -10.510803      -286.0135
  79   2.0000     -10.510801      -286.0134
  80   2.0000     -10.507346      -285.9194
  81   2.0000     -10.507341      -285.9193
  82   2.0000     -10.507341      -285.9193
  83   2.0000     -10.507331      -285.9190
  84   2.0000     -10.506199      -285.8882
  85   2.0000     -10.506180      -285.8877
  86   2.0000     -10.506175      -285.8875
  87   2.0000     -10.506174      -285.8875
  88   2.0000     -10.504190      -285.8335
  89   2.0000     -10.504187      -285.8334
  90   2.0000     -10.504184      -285.8334
  91   2.0000     -10.504178      -285.8332
  92   2.0000     -10.497090      -285.6403
  93   2.0000     -10.497077      -285.6400
  94   2.0000     -10.497073      -285.6399
  95   2.0000     -10.497068      -285.6397
  96   2.0000      -3.860697      -105.0549
  97   2.0000      -3.860696      -105.0549
  98   2.0000      -2.538094       -69.0651
  99   2.0000      -2.538093       -69.0650
 100   2.0000      -2.537942       -69.0609
 101   2.0000      -2.537941       -69.0609
 102   2.0000      -2.501541       -68.0704
 103   2.0000      -2.501541       -68.0704
 104   2.0000      -1.314540       -35.7704
 105   2.0000      -1.314539       -35.7704
 106   2.0000      -1.306441       -35.5501
 107   2.0000      -1.306436       -35.5499
 108   2.0000      -1.306405       -35.5491
 109   2.0000      -1.306397       -35.5489
 110   2.0000      -1.305381       -35.5212
 111   2.0000      -1.305375       -35.5211
 112   2.0000      -1.187139       -32.3037
 113   2.0000      -1.187093       -32.3025
 114   2.0000      -1.186380       -32.2830
 115   2.0000      -1.186373       -32.2828
 116   2.0000      -1.170637       -31.8546
 117   2.0000      -1.170517       -31.8514
 118   2.0000      -1.170336       -31.8465
 119   2.0000      -1.170313       -31.8458
 120   2.0000      -1.136090       -30.9146
 121   2.0000      -1.135911       -30.9097
 122   2.0000      -1.135140       -30.8887
 123   2.0000      -1.135087       -30.8873
 124   2.0000      -1.121940       -30.5295
 125   2.0000      -1.121840       -30.5268
 126   2.0000      -1.120514       -30.4907
 127   2.0000      -1.120410       -30.4879
 128   2.0000      -1.107728       -30.1428
 129   2.0000      -1.107569       -30.1385
 130   2.0000      -1.106725       -30.1155
 131   2.0000      -1.106420       -30.1072
 132   2.0000      -1.098787       -29.8995
 133   2.0000      -1.098692       -29.8969
 134   2.0000      -1.097665       -29.8690
 135   2.0000      -1.097528       -29.8653
 136   2.0000      -1.078501       -29.3475
 137   2.0000      -1.078170       -29.3385
 138   2.0000      -1.077277       -29.3142
 139   2.0000      -1.076449       -29.2917
 140   2.0000      -1.062283       -28.9062
 141   2.0000      -1.061694       -28.8901
 142   2.0000      -1.061506       -28.8850
 143   2.0000      -1.060815       -28.8662
 144   2.0000      -1.040155       -28.3040
 145   2.0000      -1.040125       -28.3032
 146   2.0000      -1.039591       -28.2887
 147   2.0000      -1.039558       -28.2878
 148   2.0000      -1.011558       -27.5259
 149   2.0000      -1.011312       -27.5192
 150   2.0000      -1.011183       -27.5157
 151   2.0000      -1.010891       -27.5077
 152   2.0000      -0.981330       -26.7033
 153   2.0000      -0.981229       -26.7006
 154   2.0000      -0.978532       -26.6272
 155   2.0000      -0.977743       -26.6057
 156   2.0000      -0.969684       -26.3864
 157   2.0000      -0.969680       -26.3863
 158   2.0000      -0.967794       -26.3350
 159   2.0000      -0.967226       -26.3195
 160   2.0000      -0.960978       -26.1495
 161   2.0000      -0.959908       -26.1204
 162   2.0000      -0.959297       -26.1038
 163   2.0000      -0.958846       -26.0915
 164   2.0000      -0.954687       -25.9784
 165   2.0000      -0.953657       -25.9503
 166   2.0000      -0.953070       -25.9344
 167   2.0000      -0.952547       -25.9201
 168   2.0000      -0.936862       -25.4933
 169   2.0000      -0.936361       -25.4797
 170   2.0000      -0.935957       -25.4687
 171   2.0000      -0.935644       -25.4602
 172   2.0000      -0.904867       -24.6227
 173   2.0000      -0.903655       -24.5897
 174   2.0000      -0.903582       -24.5877
 175   2.0000      -0.902940       -24.5702
 176   2.0000      -0.897553       -24.4236
 177   2.0000      -0.896736       -24.4014
 178   2.0000      -0.895902       -24.3787
 179   2.0000      -0.895482       -24.3673
 180   2.0000      -0.877372       -23.8745
 181   2.0000      -0.869882       -23.6707
 182   2.0000      -0.869826       -23.6692
 183   2.0000      -0.865812       -23.5600
 184   2.0000      -0.864566       -23.5260
 185   2.0000      -0.861200       -23.4344
 186   2.0000      -0.857911       -23.3450
 187   2.0000      -0.857896       -23.3445
 188   2.0000      -0.850708       -23.1489
 189   2.0000      -0.850230       -23.1359
 190   2.0000      -0.847617       -23.0648
 191   2.0000      -0.847586       -23.0640
 192   2.0000      -0.831353       -22.6223
 193   2.0000      -0.830997       -22.6126
 194   2.0000      -0.829717       -22.5777
 195   2.0000      -0.828710       -22.5504
 196   2.0000      -0.822712       -22.3871
 197   2.0000      -0.822405       -22.3788
 198   2.0000      -0.821803       -22.3624
 199   2.0000      -0.821677       -22.3590
 200   2.0000      -0.821173       -22.3453
 201   2.0000      -0.820755       -22.3339
 202   2.0000      -0.819942       -22.3118
 203   2.0000      -0.818738       -22.2790
 204   2.0000      -0.793909       -21.6034
 205   2.0000      -0.793888       -21.6028
 206   2.0000      -0.791655       -21.5420
 207   2.0000      -0.791109       -21.5272
 208   2.0000      -0.790260       -21.5041
 209   2.0000      -0.790169       -21.5016
 210   2.0000      -0.783409       -21.3176
 211   2.0000      -0.782314       -21.2879
 212   2.0000      -0.781459       -21.2646
 213   2.0000      -0.781435       -21.2639
 214   2.0000      -0.776208       -21.1217
 215   2.0000      -0.775577       -21.1045
 216   2.0000      -0.774668       -21.0798
 217   2.0000      -0.773212       -21.0402
 218   2.0000      -0.765205       -20.8223
 219   2.0000      -0.764876       -20.8133
 220   2.0000      -0.763934       -20.7877
 221   2.0000      -0.763431       -20.7740
 222   2.0000      -0.760639       -20.6980
 223   2.0000      -0.760302       -20.6889
 224   2.0000      -0.759830       -20.6760
 225   2.0000      -0.759787       -20.6748
 226   2.0000      -0.757754       -20.6195
 227   2.0000      -0.756212       -20.5776
 228   2.0000      -0.755328       -20.5535
 229   2.0000      -0.755206       -20.5502
 230   2.0000      -0.753260       -20.4972
 231   2.0000      -0.751901       -20.4603
 232   2.0000      -0.751856       -20.4590
 233   2.0000      -0.751117       -20.4389
 234   2.0000      -0.750123       -20.4119
 235   2.0000      -0.749415       -20.3926
 236   2.0000      -0.749052       -20.3827
 237   2.0000      -0.748391       -20.3647
 238   2.0000      -0.744201       -20.2507
 239   2.0000      -0.742250       -20.1976
 240   2.0000      -0.740263       -20.1436
 241   2.0000      -0.739867       -20.1328
 242   2.0000      -0.738843       -20.1049
 243   2.0000      -0.738496       -20.0955
 244   2.0000      -0.738244       -20.0886
 245   2.0000      -0.737520       -20.0690
 246   2.0000      -0.735416       -20.0117
 247   2.0000      -0.733965       -19.9722
 248   2.0000      -0.716722       -19.5030
 249   2.0000      -0.716471       -19.4962
 250   2.0000      -0.713148       -19.4058
 251   2.0000      -0.712668       -19.3927
 252   2.0000      -0.710807       -19.3420
 253   2.0000      -0.710401       -19.3310
 254   2.0000      -0.710351       -19.3296
 255   2.0000      -0.710246       -19.3268
 256   2.0000      -0.699680       -19.0393
 257   2.0000      -0.699598       -19.0370
 258   2.0000      -0.698391       -19.0042
 259   2.0000      -0.698387       -19.0041
 260   2.0000      -0.695393       -18.9226
 261   2.0000      -0.693964       -18.8837
 262   2.0000      -0.690055       -18.7774
 263   2.0000      -0.689760       -18.7693
 264   2.0000      -0.688651       -18.7391
 265   2.0000      -0.688323       -18.7302
 266   2.0000      -0.683999       -18.6126
 267   2.0000      -0.682283       -18.5659
 268   2.0000      -0.676128       -18.3984
 269   2.0000      -0.673570       -18.3288
 270   2.0000      -0.671298       -18.2669
 271   2.0000      -0.669829       -18.2270
 272   2.0000      -0.667297       -18.1581
 273   2.0000      -0.666153       -18.1269
 274   2.0000      -0.663879       -18.0651
 275   2.0000      -0.663688       -18.0599
 276   2.0000      -0.656853       -17.8739
 277   2.0000      -0.655936       -17.8489
 278   2.0000      -0.655637       -17.8408
 279   2.0000      -0.655224       -17.8295
 280   2.0000      -0.655207       -17.8291
 281   2.0000      -0.651920       -17.7396
 282   2.0000      -0.643194       -17.5022
 283   2.0000      -0.641630       -17.4596
 284   2.0000      -0.641431       -17.4542
 285   2.0000      -0.640715       -17.4347
 286   2.0000      -0.640345       -17.4247
 287   2.0000      -0.639799       -17.4098
 288   2.0000      -0.639354       -17.3977
 289   2.0000      -0.638788       -17.3823
 290   2.0000      -0.634506       -17.2658
 291   2.0000      -0.634257       -17.2590
 292   2.0000      -0.631753       -17.1909
 293   2.0000      -0.631363       -17.1803
 294   2.0000      -0.629461       -17.1285
 295   2.0000      -0.628741       -17.1089
 296   2.0000      -0.628563       -17.1041
 297   2.0000      -0.627178       -17.0664
 298   2.0000      -0.626887       -17.0585
 299   2.0000      -0.624035       -16.9809
 300   2.0000      -0.623897       -16.9771
 301   2.0000      -0.623479       -16.9657
 302   2.0000      -0.613887       -16.7047
 303   2.0000      -0.612959       -16.6795
 304   2.0000      -0.612327       -16.6623
 305   2.0000      -0.605694       -16.4818
 306   2.0000      -0.602460       -16.3938
 307   2.0000      -0.600854       -16.3501
 308   2.0000      -0.599889       -16.3238
 309   2.0000      -0.594597       -16.1798
 310   2.0000      -0.587958       -15.9992
 311   2.0000      -0.587117       -15.9763
 312   2.0000      -0.586305       -15.9542
 313   2.0000      -0.585933       -15.9440
 314   2.0000      -0.581205       -15.8154
 315   2.0000      -0.581021       -15.8104
 316   2.0000      -0.572456       -15.5773
 317   2.0000      -0.570793       -15.5321
 318   2.0000      -0.570598       -15.5268
 319   2.0000      -0.570334       -15.5196
 320   2.0000      -0.559983       -15.2379
 321   2.0000      -0.559810       -15.2332
 322   2.0000      -0.559631       -15.2283
 323   2.0000      -0.559629       -15.2283
 324   2.0000      -0.550596       -14.9825
 325   2.0000      -0.550000       -14.9663
 326   2.0000      -0.547975       -14.9111
 327   2.0000      -0.546959       -14.8835
 328   2.0000      -0.531960       -14.4754
 329   2.0000      -0.531717       -14.4688
 330   2.0000      -0.531397       -14.4600
 331   2.0000      -0.530829       -14.4446
 332   2.0000      -0.498517       -13.5653
 333   2.0000      -0.498114       -13.5544
 334   2.0000      -0.497538       -13.5387
 335   2.0000      -0.496870       -13.5205
 336   0.0000      -0.365701        -9.9512
 337   0.0000      -0.365541        -9.9469
 338   0.0000      -0.360030        -9.7969
 339   0.0000      -0.359508        -9.7827
 340   0.0000      -0.347591        -9.4584

MULLIKEN ATOMIC CHARGES
-----------------------
   0 Pd:    0.382901
   1 Pd:    0.382875
   2 C :    0.018916
   3 C :   -0.062297
   4 C :   -0.012587
   5 C :    0.042206
   6 C :    0.021566
   7 C :    0.016971
   8 C :   -0.049420
   9 C :    0.159941
  10 N :   -0.313918
  11 C :    0.138808
  12 C :    0.005009
  13 C :    0.065827
  14 H :    0.063645
  15 H :    0.078376
  16 H :    0.044386
  17 H :    0.060052
  18 H :    0.041079
  19 H :    0.028616
  20 C :   -0.049371
  21 C :    0.046531
  22 C :    0.011367
  23 C :   -0.012922
  24 C :    0.042791
  25 C :   -0.018119
  26 H :    0.053156
  27 H :    0.068558
  28 H :    0.043354
  29 H :   -0.012225
  30 C :   -0.025386
  31 C :    0.067086
  32 C :   -0.015161
  33 C :    0.128475
  34 N :   -0.296369
  35 C :    0.134743
  36 H :    0.078651
  37 H :    0.084072
  38 H :    0.081201
  39 H :    0.050831
  40 C :    0.018968
  41 C :   -0.062215
  42 C :   -0.012671
  43 C :    0.042208
  44 C :    0.021589
  45 C :    0.016949
  46 C :   -0.049359
  47 C :    0.159756
  48 N :   -0.314052
  49 C :    0.139269
  50 C :    0.005220
  51 C :    0.065773
  52 H :    0.063700
  53 H :    0.078409
  54 H :    0.044454
  55 H :    0.060068
  56 H :    0.040817
  57 H :    0.028391
  58 C :   -0.049480
  59 C :    0.046449
  60 C :    0.011368
  61 C :   -0.013000
  62 C :    0.042570
  63 C :   -0.018204
  64 H :    0.053116
  65 H :    0.068519
  66 H :    0.043364
  67 H :   -0.011714
  68 C :   -0.025494
  69 C :    0.067086
  70 C :   -0.015085
  71 C :    0.128123
  72 N :   -0.296300
  73 C :    0.134904
  74 H :    0.078763
  75 H :    0.084068
  76 H :    0.081455
  77 H :    0.050842
  78 C :    0.018922
  79 C :   -0.062161
  80 C :   -0.012662
  81 C :    0.042255
  82 C :    0.021606
  83 C :    0.016935
  84 C :   -0.049374
  85 C :    0.159852
  86 N :   -0.314004
  87 C :    0.139282
  88 C :    0.005152
  89 C :    0.065777
  90 H :    0.063676
  91 H :    0.078376
  92 H :    0.044437
  93 H :    0.059981
  94 H :    0.040790
  95 H :    0.028451
  96 C :   -0.049493
  97 C :    0.046532
  98 C :    0.011384
  99 C :   -0.012973
 100 C :    0.042459
 101 C :   -0.018205
 102 H :    0.053093
 103 H :    0.068521
 104 H :    0.043384
 105 H :   -0.011735
 106 C :   -0.025513
 107 C :    0.067166
 108 C :   -0.015118
 109 C :    0.128134
 110 N :   -0.296252
 111 C :    0.134986
 112 H :    0.078695
 113 H :    0.084090
 114 H :    0.081415
 115 H :    0.050794
 116 C :    0.018918
 117 C :   -0.062324
 118 C :   -0.012519
 119 C :    0.042164
 120 C :    0.021614
 121 C :    0.016868
 122 C :   -0.049375
 123 C :    0.159967
 124 N :   -0.313945
 125 C :    0.138827
 126 C :    0.005006
 127 C :    0.065814
 128 H :    0.063633
 129 H :    0.078324
 130 H :    0.044427
 131 H :    0.060034
 132 H :    0.041069
 133 H :    0.028656
 134 C :   -0.049345
 135 C :    0.046533
 136 C :    0.011362
 137 C :   -0.012947
 138 C :    0.042792
 139 C :   -0.018068
 140 H :    0.053137
 141 H :    0.068583
 142 H :    0.043386
 143 H :   -0.012273
 144 C :   -0.025411
 145 C :    0.067065
 146 C :   -0.015201
 147 C :    0.128487
 148 N :   -0.296314
 149 C :    0.134642
 150 H :    0.078667
 151 H :    0.084127
 152 H :    0.081179
 153 H :    0.050944
Sum of atomic charges:    4.0000000

LOEWDIN ATOMIC CHARGES
----------------------
   0 Pd:   -0.357182
   1 Pd:   -0.357164
   2 C :    0.003900
   3 C :   -0.037264
   4 C :   -0.030431
   5 C :    0.053749
   6 C :    0.022558
   7 C :    0.009746
   8 C :   -0.028376
   9 C :    0.096917
  10 N :    0.060012
  11 C :    0.031448
  12 C :    0.006284
  13 C :    0.018562
  14 H :    0.061970
  15 H :    0.062410
  16 H :    0.049970
  17 H :    0.054828
  18 H :    0.043240
  19 H :    0.049056
  20 C :   -0.045062
  21 C :    0.034463
  22 C :    0.010617
  23 C :    0.008100
  24 C :   -0.037637
  25 C :   -0.004269
  26 H :    0.055130
  27 H :    0.058081
  28 H :    0.045416
  29 H :    0.025777
  30 C :   -0.003967
  31 C :    0.059117
  32 C :    0.007280
  33 C :    0.064412
  34 N :    0.073241
  35 C :    0.067340
  36 H :    0.061841
  37 H :    0.067200
  38 H :    0.055999
  39 H :    0.046898
  40 C :    0.003883
  41 C :   -0.037238
  42 C :   -0.030401
  43 C :    0.053727
  44 C :    0.022587
  45 C :    0.009752
  46 C :   -0.028411
  47 C :    0.096923
  48 N :    0.059950
  49 C :    0.031455
  50 C :    0.006307
  51 C :    0.018583
  52 H :    0.061996
  53 H :    0.062426
  54 H :    0.049995
  55 H :    0.054819
  56 H :    0.043197
  57 H :    0.049001
  58 C :   -0.045061
  59 C :    0.034410
  60 C :    0.010569
  61 C :    0.008017
  62 C :   -0.037671
  63 C :   -0.004276
  64 H :    0.055111
  65 H :    0.058065
  66 H :    0.045425
  67 H :    0.025924
  68 C :   -0.003956
  69 C :    0.059102
  70 C :    0.007287
  71 C :    0.064338
  72 N :    0.073281
  73 C :    0.067402
  74 H :    0.061898
  75 H :    0.067206
  76 H :    0.056063
  77 H :    0.046886
  78 C :    0.003876
  79 C :   -0.037222
  80 C :   -0.030407
  81 C :    0.053750
  82 C :    0.022613
  83 C :    0.009754
  84 C :   -0.028402
  85 C :    0.096930
  86 N :    0.059988
  87 C :    0.031433
  88 C :    0.006296
  89 C :    0.018575
  90 H :    0.061984
  91 H :    0.062406
  92 H :    0.049989
  93 H :    0.054798
  94 H :    0.043191
  95 H :    0.049033
  96 C :   -0.045065
  97 C :    0.034444
  98 C :    0.010539
  99 C :    0.008045
 100 C :   -0.037688
 101 C :   -0.004265
 102 H :    0.055103
 103 H :    0.058073
 104 H :    0.045426
 105 H :    0.025916
 106 C :   -0.003935
 107 C :    0.059105
 108 C :    0.007286
 109 C :    0.064331
 110 N :    0.073303
 111 C :    0.067406
 112 H :    0.061866
 113 H :    0.067212
 114 H :    0.056043
 115 H :    0.046878
 116 C :    0.003886
 117 C :   -0.037264
 118 C :   -0.030401
 119 C :    0.053728
 120 C :    0.022598
 121 C :    0.009714
 122 C :   -0.028381
 123 C :    0.096948
 124 N :    0.060023
 125 C :    0.031431
 126 C :    0.006290
 127 C :    0.018556
 128 H :    0.061965
 129 H :    0.062382
 130 H :    0.049987
 131 H :    0.054816
 132 H :    0.043241
 133 H :    0.049069
 134 C :   -0.045049
 135 C :    0.034479
 136 C :    0.010601
 137 C :    0.008083
 138 C :   -0.037646
 139 C :   -0.004252
 140 H :    0.055124
 141 H :    0.058098
 142 H :    0.045431
 143 H :    0.025759
 144 C :   -0.003965
 145 C :    0.059096
 146 C :    0.007264
 147 C :    0.064406
 148 N :    0.073264
 149 C :    0.067323
 150 H :    0.061849
 151 H :    0.067232
 152 H :    0.055996
 153 H :    0.046925

  Mayer bond orders larger than 0.100000
B(  0-Pd, 34-N ) :   0.5531 B(  0-Pd, 72-N ) :   0.5532 B(  0-Pd, 86-N ) :   0.5475
B(  0-Pd,124-N ) :   0.5475 B(  1-Pd, 10-N ) :   0.5474 B(  1-Pd, 48-N ) :   0.5475
B(  1-Pd,110-N ) :   0.5532 B(  1-Pd,148-N ) :   0.5532 B(  2-C ,  3-C ) :   2.6003
B(  2-C , 20-C ) :   1.0026 B(  3-C ,  4-C ) :   1.0024 B(  4-C ,  5-C ) :   1.4331
B(  4-C , 13-C ) :   1.2347 B(  5-C ,  6-C ) :   1.2713 B(  5-C , 14-H ) :   0.9915
B(  6-C ,  7-C ) :   1.4696 B(  6-C , 15-H ) :   0.9807 B(  7-C ,  8-C ) :   1.2377
B(  7-C , 16-H ) :   0.9962 B(  8-C ,  9-C ) :   1.2943 B(  8-C , 13-C ) :   1.2195
B(  9-C , 10-N ) :   1.4186 B(  9-C , 17-H ) :   0.9554 B( 10-N , 11-C ) :   1.1998
B( 11-C , 12-C ) :   1.5292 B( 11-C , 18-H ) :   0.9514 B( 12-C , 13-C ) :   1.2938
B( 12-C , 19-H ) :   0.9564 B( 20-C , 21-C ) :   1.3317 B( 20-C , 25-C ) :   1.3454
B( 21-C , 22-C ) :   1.3870 B( 21-C , 26-H ) :   0.9957 B( 22-C , 23-C ) :   1.3940
B( 22-C , 27-H ) :   0.9826 B( 23-C , 24-C ) :   1.3579 B( 23-C , 28-H ) :   0.9889
B( 24-C , 25-C ) :   1.3627 B( 24-C , 30-C ) :   1.0076 B( 25-C , 29-H ) :   0.9854
B( 30-C , 31-C ) :   1.3754 B( 30-C , 35-C ) :   1.4011 B( 31-C , 32-C ) :   1.4045
B( 31-C , 36-H ) :   0.9795 B( 32-C , 33-C ) :   1.4252 B( 32-C , 37-H ) :   0.9720
B( 33-C , 34-N ) :   1.3144 B( 33-C , 38-H ) :   0.9535 B( 34-N , 35-C ) :   1.3249
B( 35-C , 39-H ) :   0.9567 B( 40-C , 41-C ) :   2.6006 B( 40-C , 58-C ) :   1.0026
B( 41-C , 42-C ) :   1.0024 B( 42-C , 43-C ) :   1.4333 B( 42-C , 51-C ) :   1.2346
B( 43-C , 44-C ) :   1.2712 B( 43-C , 52-H ) :   0.9915 B( 44-C , 45-C ) :   1.4697
B( 44-C , 53-H ) :   0.9807 B( 45-C , 46-C ) :   1.2375 B( 45-C , 54-H ) :   0.9962
B( 46-C , 47-C ) :   1.2943 B( 46-C , 51-C ) :   1.2196 B( 47-C , 48-N ) :   1.4185
B( 47-C , 55-H ) :   0.9554 B( 48-N , 49-C ) :   1.2000 B( 49-C , 50-C ) :   1.5292
B( 49-C , 56-H ) :   0.9512 B( 50-C , 51-C ) :   1.2939 B( 50-C , 57-H ) :   0.9564
B( 58-C , 59-C ) :   1.3319 B( 58-C , 63-C ) :   1.3454 B( 59-C , 60-C ) :   1.3869
B( 59-C , 64-H ) :   0.9956 B( 60-C , 61-C ) :   1.3940 B( 60-C , 65-H ) :   0.9826
B( 61-C , 62-C ) :   1.3581 B( 61-C , 66-H ) :   0.9889 B( 62-C , 63-C ) :   1.3626
B( 62-C , 68-C ) :   1.0075 B( 63-C , 67-H ) :   0.9854 B( 68-C , 69-C ) :   1.3756
B( 68-C , 73-C ) :   1.4010 B( 69-C , 70-C ) :   1.4044 B( 69-C , 74-H ) :   0.9795
B( 70-C , 71-C ) :   1.4253 B( 70-C , 75-H ) :   0.9720 B( 71-C , 72-N ) :   1.3142
B( 71-C , 76-H ) :   0.9535 B( 72-N , 73-C ) :   1.3250 B( 73-C , 77-H ) :   0.9567
B( 78-C , 79-C ) :   2.6005 B( 78-C , 96-C ) :   1.0026 B( 79-C , 80-C ) :   1.0024
B( 80-C , 81-C ) :   1.4331 B( 80-C , 89-C ) :   1.2347 B( 81-C , 82-C ) :   1.2713
B( 81-C , 90-H ) :   0.9915 B( 82-C , 83-C ) :   1.4696 B( 82-C , 91-H ) :   0.9807
B( 83-C , 84-C ) :   1.2377 B( 83-C , 92-H ) :   0.9962 B( 84-C , 85-C ) :   1.2942
B( 84-C , 89-C ) :   1.2195 B( 85-C , 86-N ) :   1.4186 B( 85-C , 93-H ) :   0.9554
B( 86-N , 87-C ) :   1.1999 B( 87-C , 88-C ) :   1.5293 B( 87-C , 94-H ) :   0.9512
B( 88-C , 89-C ) :   1.2939 B( 88-C , 95-H ) :   0.9563 B( 96-C , 97-C ) :   1.3319
B( 96-C ,101-C ) :   1.3454 B( 97-C , 98-C ) :   1.3869 B( 97-C ,102-H ) :   0.9956
B( 98-C , 99-C ) :   1.3940 B( 98-C ,103-H ) :   0.9826 B( 99-C ,100-C ) :   1.3579
B( 99-C ,104-H ) :   0.9889 B(100-C ,101-C ) :   1.3627 B(100-C ,106-C ) :   1.0076
B(101-C ,105-H ) :   0.9854 B(106-C ,107-C ) :   1.3756 B(106-C ,111-C ) :   1.4009
B(107-C ,108-C ) :   1.4045 B(107-C ,112-H ) :   0.9795 B(108-C ,109-C ) :   1.4252
B(108-C ,113-H ) :   0.9720 B(109-C ,110-N ) :   1.3142 B(109-C ,114-H ) :   0.9535
B(110-N ,111-C ) :   1.3251 B(111-C ,115-H ) :   0.9567 B(116-C ,117-C ) :   2.6006
B(116-C ,134-C ) :   1.0025 B(117-C ,118-C ) :   1.0023 B(118-C ,119-C ) :   1.4332
B(118-C ,127-C ) :   1.2346 B(119-C ,120-C ) :   1.2712 B(119-C ,128-H ) :   0.9915
B(120-C ,121-C ) :   1.4696 B(120-C ,129-H ) :   0.9807 B(121-C ,122-C ) :   1.2376
B(121-C ,130-H ) :   0.9962 B(122-C ,123-C ) :   1.2943 B(122-C ,127-C ) :   1.2196
B(123-C ,124-N ) :   1.4186 B(123-C ,131-H ) :   0.9554 B(124-N ,125-C ) :   1.1999
B(125-C ,126-C ) :   1.5291 B(125-C ,132-H ) :   0.9514 B(126-C ,127-C ) :   1.2938
B(126-C ,133-H ) :   0.9564 B(134-C ,135-C ) :   1.3318 B(134-C ,139-C ) :   1.3453
B(135-C ,136-C ) :   1.3868 B(135-C ,140-H ) :   0.9957 B(136-C ,137-C ) :   1.3942
B(136-C ,141-H ) :   0.9826 B(137-C ,138-C ) :   1.3578 B(137-C ,142-H ) :   0.9889
B(138-C ,139-C ) :   1.3628 B(138-C ,144-C ) :   1.0076 B(139-C ,143-H ) :   0.9854
B(144-C ,145-C ) :   1.3755 B(144-C ,149-C ) :   1.4010 B(145-C ,146-C ) :   1.4045
B(145-C ,150-H ) :   0.9795 B(146-C ,147-C ) :   1.4252 B(146-C ,151-H ) :   0.9720
B(147-C ,148-N ) :   1.3143 B(147-C ,152-H ) :   0.9535 B(148-N ,149-C ) :   1.3250
B(149-C ,153-H ) :   0.9567

Dispersion correction           -0.249366542
FINAL SINGLE POINT ENERGY     -4072.788508049404

DIPOLE MOMENT
-------------
                                X             Y             Z
Electronic contribution:      0.09959      -0.01904      -0.18287
Nuclear contribution   :     -0.09925       0.01924       0.18231
                        -----------------------------------------
Total Dipole Moment    :      0.00034       0.00020      -0.00056
                        -----------------------------------------
Magnitude (a.u.)       :      0.00069
Magnitude (Debye)      :      0.00174

Rotational constants in cm-1:     0.000552     0.000433     0.000394
Rotational constants in MHz :    16.547852    12.969529    11.796969

                             ****ORCA TERMINATED NORMALLY****
TOTAL RUN TIME: 0 days 0 hours 14 minutes 38 seconds 382 msec
