                         Program Version 4.2.1 -  RELEASE  -
|  1> ! DFT SP RKS PBE0 def2-SVP D3BJ Grid6 NOFINALGRID SlowConv TightSCF printbasis
|  2>
|  3> %base "_s_5d3_d_PBE0"
|  4> %maxcore 3000
|  5> %scf
|  6>    MaxIter 2000
|  7> end
|  8> %pal
|  9>    nprocs 32
| 10> end
| 11>
| 12> * xyzfile 4 1 s_5d3_d.xyz
| 13>
| 14>                          ****END OF INPUT****

CARTESIAN COORDINATES (ANGSTROEM)
---------------------------------
  Pd    -0.481200    5.245300    0.060600
  Pd    -0.575600   -5.553200   -0.342500
  C      6.423600   -2.255900   -0.150100
  C      6.039200   -3.401100   -0.200400
  C      5.544900   -4.718600   -0.258400
  C      6.399600   -5.806000   -0.297400
  C      5.900600   -7.112700   -0.355000
  C      4.550800   -7.354100   -0.374600
  C      3.645900   -6.272100   -0.336200
  C      2.248800   -6.452500   -0.353900
  N      1.404300   -5.446300   -0.318600
  C      1.864900   -4.169000   -0.262300
  C      3.200100   -3.886400   -0.240800
  C      4.138800   -4.938000   -0.277500
  H      7.466600   -5.642800   -0.283100
  H      6.597700   -7.936000   -0.384200
  H      4.173200   -8.363200   -0.419000
  H      1.830800   -7.453700   -0.398500
  H      1.104100   -3.386000   -0.235400
  H      3.556600   -2.870000   -0.196100
  C      6.860800   -0.915600   -0.091400
  C      8.227100   -0.618200   -0.063800
  C      8.645900    0.699400   -0.005800
  C      7.723500    1.730200    0.025500
  C      6.355000    1.440900   -0.001800
  C      5.924900    0.117000   -0.060300
  H      8.949900   -1.419900   -0.088000
  H      9.701900    0.924400    0.015400
  H      8.055300    2.756400    0.070800
  H      4.869800   -0.105800   -0.081500
  C      5.416100    2.493000    0.030000
  C      4.605600    3.389400    0.056700
  C      3.725500    4.487900    0.090900
  C      4.225600    5.796000    0.151800
  C      3.337200    6.856000    0.183700
  C      1.976700    6.596700    0.154500
  N      1.502400    5.346500    0.096300
  C      2.338100    4.313000    0.065000
  H      5.291100    5.963200    0.173100
  H      3.694800    7.871900    0.230600
  H      1.241700    7.402700    0.177800
  H      1.896900    3.322100    0.018100
  C     -0.616300    1.624900    6.900200
  C     -0.604100    2.787400    6.568400
  C     -0.589000    4.127500    6.135400
  C     -0.597600    5.175200    7.039100
  C     -0.582200    6.504600    6.600900
  C     -0.558100    6.808300    5.263900
  C     -0.548500    5.768400    4.310100
  C     -0.523700    6.013400    2.923100
  N     -0.514800    5.046400    2.033200
  C     -0.529600    3.748100    2.434400
  C     -0.553800    3.403900    3.755000
  C     -0.564000    4.411800    4.741000
  H     -0.616400    4.962600    8.097300
  H     -0.589700    7.295500    7.335200
  H     -0.546400    7.834700    4.933200
  H     -0.511300    7.033600    2.551700
  H     -0.520900    3.000400    1.638500
  H     -0.565200    2.371200    4.064200
  C     -0.629900    0.264700    7.275200
  C     -0.648800   -0.096100    8.626300
  C     -0.661600   -1.432800    8.983900
  C     -0.655900   -2.420500    8.015100
  C     -0.637100   -2.067800    6.661300
  C     -0.624200   -0.724200    6.292700
  H     -0.653200    0.671800    9.385200
  H     -0.676100   -1.706700   10.028400
  H     -0.665900   -3.461800    8.299200
  H     -0.609800   -0.452500    5.249100
  C     -0.631100   -3.076000    5.675100
  C     -0.625700   -3.934800    4.824400
  C     -0.620500   -4.992100    3.894600
  C     -0.633500   -6.323200    4.333800
  C     -0.628200   -7.341600    3.397500
  C     -0.610200   -7.019100    2.050400
  N     -0.597700   -5.747000    1.634300
  C     -0.602400   -4.752700    2.516700
  H     -0.647600   -6.540000    5.390500
  H     -0.638000   -8.373900    3.707900
  H     -0.605400   -7.790600    1.279100
  H     -0.591800   -3.741400    2.121800
  C     -7.516100   -2.128800   -0.274100
  C     -7.151600   -3.280900   -0.311000
  C     -6.680400   -4.607500   -0.353400
  C     -7.554000   -5.679600   -0.394600
  C     -7.078000   -6.995500   -0.436600
  C     -5.732600   -7.261100   -0.438000
  C     -4.808900   -6.195300   -0.396700
  C     -3.415200   -6.400900   -0.395400
  N     -2.553100   -5.409800   -0.356800
  C     -2.991300   -4.124100   -0.316100
  C     -4.321300   -3.817400   -0.313600
  C     -5.278300   -4.852200   -0.353900
  H     -8.618000   -5.497200   -0.394300
  H     -7.789500   -7.806400   -0.468100
  H     -5.372800   -8.277200   -0.470400
  H     -3.014900   -7.409800   -0.427000
  H     -2.216800   -3.354600   -0.286000
  H     -4.659900   -2.794400   -0.281100
  C     -7.929800   -0.780500   -0.230900
  C     -9.290800   -0.458200   -0.230600
  C     -9.686400    0.867200   -0.188300
  C     -8.746200    1.881300   -0.146100
  C     -7.382800    1.567000   -0.146000
  C     -6.975900    0.235200   -0.188400
  H    -10.027400   -1.246700   -0.263500
  H    -10.738400    1.111400   -0.188300
  H     -9.059900    2.913500   -0.113200
  H     -5.924900   -0.006800   -0.188400
  C     -6.425700    2.602100   -0.102600
  C     -5.599600    3.483900   -0.065300
  C     -4.700300    4.566300   -0.019900
  C     -5.177300    5.883800    0.017500
  C     -4.270500    6.927500    0.062700
  C     -2.914700    6.643000    0.069900
  N     -2.462500    5.383800    0.034000
  C     -3.316200    4.365600   -0.009900
  H     -6.239800    6.070700    0.011000
  H     -4.610200    7.950200    0.092000
  H     -2.165700    7.435500    0.105200
  H     -2.892600    3.366400   -0.037800
  C     -0.368000    2.143400   -7.029400
  C     -0.364500    3.278100   -6.611900
  C     -0.361200    4.582300   -6.080200
  C     -0.328600    5.694100   -6.903000
  C     -0.325200    6.987200   -6.366900
  C     -0.353900    7.190700   -5.011100
  C     -0.387500    6.082900   -4.137700
  C     -0.417100    6.224100   -2.736400
  N     -0.448000    5.193800   -1.921200
  C     -0.452900    3.929000   -2.418300
  C     -0.425800    3.683800   -3.760800
  C     -0.391600    4.762200   -4.668600
  H     -0.305500    5.560800   -7.974000
  H     -0.299400    7.830400   -7.040000
  H     -0.351000    8.189600   -4.604700
  H     -0.414700    7.213900   -2.289900
  H     -0.480000    3.124300   -1.680400
  H     -0.429700    2.677000   -4.146200
  C     -0.372800    0.814900   -7.504500
  C     -0.344800    0.555300   -8.878500
  C     -0.349900   -0.751200   -9.334600
  C     -0.382800   -1.808000   -8.442200
  C     -0.410700   -1.556600   -7.066200
  C     -0.405600   -0.244100   -6.598600
  H     -0.319200    1.377300   -9.578000
  H     -0.328200   -0.946900  -10.396500
  H     -0.386700   -2.825200   -8.803100
  H     -0.427200   -0.050600   -5.537800
  C     -0.444200   -2.635100   -6.158000
  C     -0.472900   -3.554700   -5.373800
  C     -0.505100   -4.678100   -4.525600
  C     -0.516900   -5.972600   -5.063200
  C     -0.547800   -7.057800   -4.205700
  C     -0.565700   -6.836500   -2.838300
  N     -0.554500   -5.599100   -2.328300
  C     -0.525400   -4.541900   -3.133800
  H     -0.501900   -6.110000   -6.133100
  H     -0.557500   -8.064000   -4.592400
  H     -0.589700   -7.663300   -2.126900
  H     -0.517700   -3.563000   -2.664400

 Total Charge           Charge          ....    4
 Multiplicity           Mult            ....    1
 Number of Electrons    NEL             ....  720
 Basis Dimension        Dim             .... 1798

ORBITAL ENERGIES
----------------

  NO   OCC          E(Eh)            E(eV)
   0   2.0000     -14.749050      -401.3421
   1   2.0000     -14.749045      -401.3419
   2   2.0000     -14.749014      -401.3411
   3   2.0000     -14.749011      -401.3410
   4   2.0000     -14.741970      -401.1494
   5   2.0000     -14.741969      -401.1494
   6   2.0000     -14.741939      -401.1486
   7   2.0000     -14.741937      -401.1485
   8   2.0000     -10.580237      -287.9029
   9   2.0000     -10.580222      -287.9025
  10   2.0000     -10.580198      -287.9018
  11   2.0000     -10.580182      -287.9014
  12   2.0000     -10.579453      -287.8816
  13   2.0000     -10.579437      -287.8811
  14   2.0000     -10.579426      -287.8808
  15   2.0000     -10.579424      -287.8808
  16   2.0000     -10.576068      -287.7894
  17   2.0000     -10.576043      -287.7888
  18   2.0000     -10.576022      -287.7882
  19   2.0000     -10.576012      -287.7879
  20   2.0000     -10.567969      -287.5691
  21   2.0000     -10.567963      -287.5689
  22   2.0000     -10.567944      -287.5684
  23   2.0000     -10.567924      -287.5678
  24   2.0000     -10.559050      -287.3264
  25   2.0000     -10.559028      -287.3258
  26   2.0000     -10.559011      -287.3253
  27   2.0000     -10.558983      -287.3245
  28   2.0000     -10.541431      -286.8469
  29   2.0000     -10.541401      -286.8461
  30   2.0000     -10.541393      -286.8459
  31   2.0000     -10.541356      -286.8449
  32   2.0000     -10.537130      -286.7299
  33   2.0000     -10.537122      -286.7297
  34   2.0000     -10.537106      -286.7292
  35   2.0000     -10.537087      -286.7287
  36   2.0000     -10.534980      -286.6714
  37   2.0000     -10.534950      -286.6706
  38   2.0000     -10.534943      -286.6704
  39   2.0000     -10.534919      -286.6697
  40   2.0000     -10.534072      -286.6467
  41   2.0000     -10.534060      -286.6463
  42   2.0000     -10.534044      -286.6459
  43   2.0000     -10.534027      -286.6455
  44   2.0000     -10.531994      -286.5901
  45   2.0000     -10.531973      -286.5895
  46   2.0000     -10.531969      -286.5895
  47   2.0000     -10.531946      -286.5888
  48   2.0000     -10.528484      -286.4946
  49   2.0000     -10.528474      -286.4943
  50   2.0000     -10.528453      -286.4938
  51   2.0000     -10.528438      -286.4934
  52   2.0000     -10.509939      -285.9900
  53   2.0000     -10.509929      -285.9897
  54   2.0000     -10.509911      -285.9892
  55   2.0000     -10.509894      -285.9888
  56   2.0000     -10.508902      -285.9618
  57   2.0000     -10.508881      -285.9612
  58   2.0000     -10.508867      -285.9608
  59   2.0000     -10.508848      -285.9603
  60   2.0000     -10.507999      -285.9372
  61   2.0000     -10.507977      -285.9366
  62   2.0000     -10.507949      -285.9358
  63   2.0000     -10.507946      -285.9357
  64   2.0000     -10.507256      -285.9170
  65   2.0000     -10.507238      -285.9165
  66   2.0000     -10.507236      -285.9164
  67   2.0000     -10.507214      -285.9158
  68   2.0000     -10.506366      -285.8927
  69   2.0000     -10.506346      -285.8922
  70   2.0000     -10.506325      -285.8916
  71   2.0000     -10.506313      -285.8913
  72   2.0000     -10.502503      -285.7876
  73   2.0000     -10.502482      -285.7871
  74   2.0000     -10.502473      -285.7868
  75   2.0000     -10.502463      -285.7865
  76   2.0000     -10.497571      -285.6534
  77   2.0000     -10.497559      -285.6531
  78   2.0000     -10.497557      -285.6531
  79   2.0000     -10.497525      -285.6522
  80   2.0000     -10.497223      -285.6440
  81   2.0000     -10.497205      -285.6435
  82   2.0000     -10.497195      -285.6432
  83   2.0000     -10.497164      -285.6424
  84   2.0000     -10.489960      -285.4463
  85   2.0000     -10.489930      -285.4455
  86   2.0000     -10.489926      -285.4454
  87   2.0000     -10.489881      -285.4442
  88   2.0000     -10.486682      -285.3571
  89   2.0000     -10.486659      -285.3565
  90   2.0000     -10.486640      -285.3560
  91   2.0000     -10.486615      -285.3553
  92   2.0000     -10.484827      -285.3067
  93   2.0000     -10.484802      -285.3060
  94   2.0000     -10.484797      -285.3058
  95   2.0000     -10.484766      -285.3050
  96   2.0000     -10.484736      -285.3042
  97   2.0000     -10.484709      -285.3034
  98   2.0000     -10.484707      -285.3034
  99   2.0000     -10.484663      -285.3022
 100   2.0000     -10.475315      -285.0478
 101   2.0000     -10.475288      -285.0471
 102   2.0000     -10.475286      -285.0470
 103   2.0000     -10.475255      -285.0462
 104   2.0000      -3.845196      -104.6331
 105   2.0000      -3.845194      -104.6330
 106   2.0000      -2.522548       -68.6420
 107   2.0000      -2.522547       -68.6420
 108   2.0000      -2.522495       -68.6406
 109   2.0000      -2.522491       -68.6405
 110   2.0000      -2.486026       -67.6482
 111   2.0000      -2.486024       -67.6481
 112   2.0000      -1.299996       -35.3747
 113   2.0000      -1.299991       -35.3746
 114   2.0000      -1.294565       -35.2269
 115   2.0000      -1.294562       -35.2268
 116   2.0000      -1.289574       -35.0911
 117   2.0000      -1.289563       -35.0908
 118   2.0000      -1.287962       -35.0472
 119   2.0000      -1.287949       -35.0469
 120   2.0000      -1.167774       -31.7768
 121   2.0000      -1.167769       -31.7766
 122   2.0000      -1.167058       -31.7573
 123   2.0000      -1.167054       -31.7572
 124   2.0000      -1.143105       -31.1055
 125   2.0000      -1.143044       -31.1038
 126   2.0000      -1.142898       -31.0998
 127   2.0000      -1.142888       -31.0996
 128   2.0000      -1.136196       -30.9175
 129   2.0000      -1.136121       -30.9154
 130   2.0000      -1.134567       -30.8731
 131   2.0000      -1.134558       -30.8729
 132   2.0000      -1.101880       -29.9837
 133   2.0000      -1.101752       -29.9802
 134   2.0000      -1.101687       -29.9784
 135   2.0000      -1.101681       -29.9783
 136   2.0000      -1.097256       -29.8578
 137   2.0000      -1.097254       -29.8578
 138   2.0000      -1.097158       -29.8552
 139   2.0000      -1.096968       -29.8500
 140   2.0000      -1.080434       -29.4001
 141   2.0000      -1.080380       -29.3986
 142   2.0000      -1.078966       -29.3602
 143   2.0000      -1.078956       -29.3599
 144   2.0000      -1.067722       -29.0542
 145   2.0000      -1.067324       -29.0434
 146   2.0000      -1.067309       -29.0430
 147   2.0000      -1.067238       -29.0410
 148   2.0000      -1.053255       -28.6605
 149   2.0000      -1.052984       -28.6532
 150   2.0000      -1.052974       -28.6529
 151   2.0000      -1.052324       -28.6352
 152   2.0000      -1.034932       -28.1619
 153   2.0000      -1.034668       -28.1548
 154   2.0000      -1.034663       -28.1546
 155   2.0000      -1.034370       -28.1466
 156   2.0000      -1.010774       -27.5045
 157   2.0000      -1.010756       -27.5041
 158   2.0000      -1.010714       -27.5029
 159   2.0000      -1.010577       -27.4992
 160   2.0000      -0.989973       -26.9385
 161   2.0000      -0.989816       -26.9343
 162   2.0000      -0.989811       -26.9341
 163   2.0000      -0.989504       -26.9258
 164   2.0000      -0.963192       -26.2098
 165   2.0000      -0.961911       -26.1749
 166   2.0000      -0.961754       -26.1707
 167   2.0000      -0.961736       -26.1702
 168   2.0000      -0.960067       -26.1248
 169   2.0000      -0.960049       -26.1243
 170   2.0000      -0.959608       -26.1122
 171   2.0000      -0.958597       -26.0847
 172   2.0000      -0.948762       -25.8171
 173   2.0000      -0.948691       -25.8152
 174   2.0000      -0.945148       -25.7188
 175   2.0000      -0.945148       -25.7188
 176   2.0000      -0.935249       -25.4494
 177   2.0000      -0.935238       -25.4491
 178   2.0000      -0.933193       -25.3935
 179   2.0000      -0.933182       -25.3932
 180   2.0000      -0.917534       -24.9674
 181   2.0000      -0.917531       -24.9673
 182   2.0000      -0.917334       -24.9619
 183   2.0000      -0.917327       -24.9617
 184   2.0000      -0.894104       -24.3298
 185   2.0000      -0.893750       -24.3202
 186   2.0000      -0.892627       -24.2896
 187   2.0000      -0.892615       -24.2893
 188   2.0000      -0.884503       -24.0685
 189   2.0000      -0.883979       -24.0543
 190   2.0000      -0.883440       -24.0396
 191   2.0000      -0.883432       -24.0394
 192   2.0000      -0.869720       -23.6663
 193   2.0000      -0.869074       -23.6487
 194   2.0000      -0.858042       -23.3485
 195   2.0000      -0.858041       -23.3485
 196   2.0000      -0.850317       -23.1383
 197   2.0000      -0.848504       -23.0890
 198   2.0000      -0.843366       -22.9492
 199   2.0000      -0.843362       -22.9490
 200   2.0000      -0.832617       -22.6567
 201   2.0000      -0.832179       -22.6447
 202   2.0000      -0.830031       -22.5863
 203   2.0000      -0.830026       -22.5862
 204   2.0000      -0.824816       -22.4444
 205   2.0000      -0.823961       -22.4211
 206   2.0000      -0.823955       -22.4209
 207   2.0000      -0.823517       -22.4090
 208   2.0000      -0.815324       -22.1861
 209   2.0000      -0.815177       -22.1821
 210   2.0000      -0.815164       -22.1817
 211   2.0000      -0.815014       -22.1777
 212   2.0000      -0.813891       -22.1471
 213   2.0000      -0.813640       -22.1403
 214   2.0000      -0.805480       -21.9182
 215   2.0000      -0.805476       -21.9181
 216   2.0000      -0.798492       -21.7281
 217   2.0000      -0.798331       -21.7237
 218   2.0000      -0.797146       -21.6914
 219   2.0000      -0.797140       -21.6913
 220   2.0000      -0.776468       -21.1288
 221   2.0000      -0.776466       -21.1287
 222   2.0000      -0.772030       -21.0080
 223   2.0000      -0.771585       -20.9959
 224   2.0000      -0.765946       -20.8425
 225   2.0000      -0.765581       -20.8325
 226   2.0000      -0.763482       -20.7754
 227   2.0000      -0.763479       -20.7753
 228   2.0000      -0.762102       -20.7378
 229   2.0000      -0.762084       -20.7374
 230   2.0000      -0.759524       -20.6677
 231   2.0000      -0.759517       -20.6675
 232   2.0000      -0.751956       -20.4618
 233   2.0000      -0.751767       -20.4566
 234   2.0000      -0.751457       -20.4482
 235   2.0000      -0.751455       -20.4481
 236   2.0000      -0.743607       -20.2346
 237   2.0000      -0.743353       -20.2277
 238   2.0000      -0.743332       -20.2271
 239   2.0000      -0.742678       -20.2093
 240   2.0000      -0.741885       -20.1877
 241   2.0000      -0.741823       -20.1860
 242   2.0000      -0.740308       -20.1448
 243   2.0000      -0.740260       -20.1435
 244   2.0000      -0.739846       -20.1322
 245   2.0000      -0.738725       -20.1017
 246   2.0000      -0.737153       -20.0590
 247   2.0000      -0.737145       -20.0587
 248   2.0000      -0.735867       -20.0240
 249   2.0000      -0.735813       -20.0225
 250   2.0000      -0.734391       -19.9838
 251   2.0000      -0.734381       -19.9835
 252   2.0000      -0.730855       -19.8876
 253   2.0000      -0.730744       -19.8846
 254   2.0000      -0.726547       -19.7703
 255   2.0000      -0.726543       -19.7703
 256   2.0000      -0.723838       -19.6966
 257   2.0000      -0.723815       -19.6960
 258   2.0000      -0.719595       -19.5812
 259   2.0000      -0.719594       -19.5811
 260   2.0000      -0.716812       -19.5054
 261   2.0000      -0.716758       -19.5040
 262   2.0000      -0.716029       -19.4841
 263   2.0000      -0.716014       -19.4837
 264   2.0000      -0.707596       -19.2547
 265   2.0000      -0.707512       -19.2524
 266   2.0000      -0.692775       -18.8514
 267   2.0000      -0.692766       -18.8511
 268   2.0000      -0.691103       -18.8059
 269   2.0000      -0.690917       -18.8008
 270   2.0000      -0.688482       -18.7345
 271   2.0000      -0.688480       -18.7345
 272   2.0000      -0.687381       -18.7046
 273   2.0000      -0.687111       -18.6972
 274   2.0000      -0.686929       -18.6923
 275   2.0000      -0.686926       -18.6922
 276   2.0000      -0.684427       -18.6242
 277   2.0000      -0.684319       -18.6213
 278   2.0000      -0.678830       -18.4719
 279   2.0000      -0.677872       -18.4458
 280   2.0000      -0.673174       -18.3180
 281   2.0000      -0.673165       -18.3177
 282   2.0000      -0.668894       -18.2015
 283   2.0000      -0.668891       -18.2015
 284   2.0000      -0.661115       -17.9898
 285   2.0000      -0.661100       -17.9894
 286   2.0000      -0.661059       -17.9883
 287   2.0000      -0.657097       -17.8805
 288   2.0000      -0.657081       -17.8801
 289   2.0000      -0.656750       -17.8711
 290   2.0000      -0.645017       -17.5518
 291   2.0000      -0.640367       -17.4253
 292   2.0000      -0.640348       -17.4248
 293   2.0000      -0.638349       -17.3704
 294   2.0000      -0.636655       -17.3243
 295   2.0000      -0.636644       -17.3240
 296   2.0000      -0.635926       -17.3044
 297   2.0000      -0.635920       -17.3043
 298   2.0000      -0.634866       -17.2756
 299   2.0000      -0.634861       -17.2754
 300   2.0000      -0.628724       -17.1085
 301   2.0000      -0.628697       -17.1077
 302   2.0000      -0.622150       -16.9295
 303   2.0000      -0.622147       -16.9295
 304   2.0000      -0.622073       -16.9275
 305   2.0000      -0.622063       -16.9272
 306   2.0000      -0.619175       -16.8486
 307   2.0000      -0.617751       -16.8099
 308   2.0000      -0.617738       -16.8095
 309   2.0000      -0.616301       -16.7704
 310   2.0000      -0.616267       -16.7695
 311   2.0000      -0.615764       -16.7558
 312   2.0000      -0.615730       -16.7549
 313   2.0000      -0.613916       -16.7055
 314   2.0000      -0.613849       -16.7037
 315   2.0000      -0.612036       -16.6543
 316   2.0000      -0.610021       -16.5995
 317   2.0000      -0.609946       -16.5975
 318   2.0000      -0.605984       -16.4897
 319   2.0000      -0.604655       -16.4535
 320   2.0000      -0.604586       -16.4516
 321   2.0000      -0.603542       -16.4232
 322   2.0000      -0.593612       -16.1530
 323   2.0000      -0.593599       -16.1527
 324   2.0000      -0.589831       -16.0501
 325   2.0000      -0.586065       -15.9476
 326   2.0000      -0.583547       -15.8791
 327   2.0000      -0.583536       -15.8788
 328   2.0000      -0.580349       -15.7921
 329   2.0000      -0.578001       -15.7282
 330   2.0000      -0.565178       -15.3793
 331   2.0000      -0.565163       -15.3789
 332   2.0000      -0.562207       -15.2984
 333   2.0000      -0.562170       -15.2974
 334   2.0000      -0.558466       -15.1966
 335   2.0000      -0.556335       -15.1386
 336   2.0000      -0.552509       -15.0345
 337   2.0000      -0.552420       -15.0321
 338   2.0000      -0.551849       -15.0166
 339   2.0000      -0.551816       -15.0157
 340   2.0000      -0.549546       -14.9539
 341   2.0000      -0.548660       -14.9298
 342   2.0000      -0.548646       -14.9294
 343   2.0000      -0.546141       -14.8613
 344   2.0000      -0.538202       -14.6452
 345   2.0000      -0.538153       -14.6439
 346   2.0000      -0.538123       -14.6431
 347   2.0000      -0.538112       -14.6428
 348   2.0000      -0.528261       -14.3747
 349   2.0000      -0.527974       -14.3669
 350   2.0000      -0.527965       -14.3667
 351   2.0000      -0.527200       -14.3458
 352   2.0000      -0.497189       -13.5292
 353   2.0000      -0.496711       -13.5162
 354   2.0000      -0.496702       -13.5160
 355   2.0000      -0.495960       -13.4958
 356   2.0000      -0.476350       -12.9621
 357   2.0000      -0.475951       -12.9513
 358   2.0000      -0.475948       -12.9512
 359   2.0000      -0.475256       -12.9324
 360   0.0000      -0.343191        -9.3387
 361   0.0000      -0.343187        -9.3386
 362   0.0000      -0.342796        -9.3280
 363   0.0000      -0.342500        -9.3199
 364   0.0000      -0.337790        -9.1917

MULLIKEN ATOMIC CHARGES
-----------------------
   0 Pd:    0.399266
   1 Pd:    0.399253
   2 C :    0.030313
   3 C :   -0.067417
   4 C :   -0.009158
   5 C :    0.040471
   6 C :    0.020625
   7 C :    0.016749
   8 C :   -0.055687
   9 C :    0.162787
  10 N :   -0.312816
  11 C :    0.127233
  12 C :    0.012241
  13 C :    0.061273
  14 H :    0.061202
  15 H :    0.075004
  16 H :    0.042240
  17 H :    0.054386
  18 H :    0.054825
  19 H :    0.034191
  20 C :   -0.050908
  21 C :    0.047526
  22 C :    0.005832
  23 C :    0.040447
  24 C :   -0.058913
  25 C :    0.025562
  26 H :    0.051346
  27 H :    0.066306
  28 H :    0.044155
  29 H :   -0.004476
  30 C :    0.053075
  31 C :   -0.043160
  32 C :   -0.105667
  33 C :    0.108472
  34 C :   -0.018243
  35 C :    0.119675
  36 N :   -0.299960
  37 C :    0.175913
  38 H :    0.077239
  39 H :    0.082464
  40 H :    0.088667
  41 H :    0.046400
  42 C :    0.030290
  43 C :   -0.067412
  44 C :   -0.009123
  45 C :    0.040461
  46 C :    0.020620
  47 C :    0.016770
  48 C :   -0.055724
  49 C :    0.162867
  50 N :   -0.312839
  51 C :    0.127396
  52 C :    0.012117
  53 C :    0.061314
  54 H :    0.061195
  55 H :    0.075040
  56 H :    0.042273
  57 H :    0.054214
  58 H :    0.054784
  59 H :    0.034214
  60 C :   -0.050879
  61 C :    0.047550
  62 C :    0.005857
  63 C :    0.040530
  64 C :   -0.059011
  65 C :    0.025629
  66 H :    0.051311
  67 H :    0.066305
  68 H :    0.044126
  69 H :   -0.004533
  70 C :    0.053035
  71 C :   -0.043051
  72 C :   -0.105743
  73 C :    0.108447
  74 C :   -0.018252
  75 C :    0.119844
  76 N :   -0.299928
  77 C :    0.175905
  78 H :    0.077274
  79 H :    0.082454
  80 H :    0.088577
  81 H :    0.046377
  82 C :    0.030285
  83 C :   -0.067400
  84 C :   -0.009100
  85 C :    0.040401
  86 C :    0.020587
  87 C :    0.016668
  88 C :   -0.055678
  89 C :    0.162818
  90 N :   -0.312737
  91 C :    0.127341
  92 C :    0.012188
  93 C :    0.061325
  94 H :    0.061218
  95 H :    0.075046
  96 H :    0.042262
  97 H :    0.054182
  98 H :    0.054916
  99 H :    0.034228
 100 C :   -0.050961
 101 C :    0.047644
 102 C :    0.005820
 103 C :    0.040623
 104 C :   -0.058996
 105 C :    0.025650
 106 H :    0.051255
 107 H :    0.066340
 108 H :    0.044083
 109 H :   -0.004519
 110 C :    0.053092
 111 C :   -0.043170
 112 C :   -0.105744
 113 C :    0.108473
 114 C :   -0.018259
 115 C :    0.119812
 116 N :   -0.299874
 117 C :    0.175947
 118 H :    0.077293
 119 H :    0.082482
 120 H :    0.088655
 121 H :    0.046336
 122 C :    0.030293
 123 C :   -0.067375
 124 C :   -0.009055
 125 C :    0.040401
 126 C :    0.020652
 127 C :    0.016762
 128 C :   -0.055678
 129 C :    0.162776
 130 N :   -0.312805
 131 C :    0.127231
 132 C :    0.012212
 133 C :    0.061261
 134 H :    0.061194
 135 H :    0.075020
 136 H :    0.042257
 137 H :    0.054272
 138 H :    0.054942
 139 H :    0.034236
 140 C :   -0.050921
 141 C :    0.047541
 142 C :    0.005788
 143 C :    0.040544
 144 C :   -0.059002
 145 C :    0.025628
 146 H :    0.051326
 147 H :    0.066357
 148 H :    0.044087
 149 H :   -0.004508
 150 C :    0.053040
 151 C :   -0.043099
 152 C :   -0.105745
 153 C :    0.108472
 154 C :   -0.018234
 155 C :    0.119718
 156 N :   -0.299883
 157 C :    0.175951
 158 H :    0.077276
 159 H :    0.082451
 160 H :    0.088700
 161 H :    0.046372
Sum of atomic charges:    4.0000000

LOEWDIN ATOMIC CHARGES
----------------------
   0 Pd:   -0.355611
   1 Pd:   -0.355601
   2 C :    0.007248
   3 C :   -0.039052
   4 C :   -0.028695
   5 C :    0.050453
   6 C :    0.020887
   7 C :    0.007621
   8 C :   -0.028663
   9 C :    0.096145
  10 N :    0.060458
  11 C :    0.030033
  12 C :    0.011118
  13 C :    0.018257
  14 H :    0.060971
  15 H :    0.060866
  16 H :    0.049048
  17 H :    0.052792
  18 H :    0.048940
  19 H :    0.052045
  20 C :   -0.050121
  21 C :    0.037277
  22 C :    0.003740
  23 C :    0.030395
  24 C :   -0.059227
  25 C :    0.020700
  26 H :    0.054108
  27 H :    0.056487
  28 H :    0.050534
  29 H :    0.033005
  30 C :    0.040851
  31 C :   -0.065616
  32 C :   -0.029611
  33 C :    0.069620
  34 C :    0.003168
  35 C :    0.060106
  36 N :    0.073314
  37 C :    0.078144
  38 H :    0.065783
  39 H :    0.066289
  40 H :    0.058323
  41 H :    0.049924
  42 C :    0.007265
  43 C :   -0.039070
  44 C :   -0.028679
  45 C :    0.050450
  46 C :    0.020850
  47 C :    0.007614
  48 C :   -0.028656
  49 C :    0.096131
  50 N :    0.060458
  51 C :    0.030085
  52 C :    0.011097
  53 C :    0.018277
  54 H :    0.060974
  55 H :    0.060895
  56 H :    0.049062
  57 H :    0.052748
  58 H :    0.048935
  59 H :    0.052051
  60 C :   -0.050116
  61 C :    0.037300
  62 C :    0.003728
  63 C :    0.030429
  64 C :   -0.059233
  65 C :    0.020741
  66 H :    0.054091
  67 H :    0.056490
  68 H :    0.050520
  69 H :    0.032980
  70 C :    0.040842
  71 C :   -0.065598
  72 C :   -0.029606
  73 C :    0.069598
  74 C :    0.003185
  75 C :    0.060153
  76 N :    0.073342
  77 C :    0.078127
  78 H :    0.065800
  79 H :    0.066286
  80 H :    0.058289
  81 H :    0.049925
  82 C :    0.007248
  83 C :   -0.039061
  84 C :   -0.028677
  85 C :    0.050443
  86 C :    0.020895
  87 C :    0.007576
  88 C :   -0.028667
  89 C :    0.096120
  90 N :    0.060499
  91 C :    0.030084
  92 C :    0.011106
  93 C :    0.018276
  94 H :    0.060977
  95 H :    0.060887
  96 H :    0.049055
  97 H :    0.052748
  98 H :    0.048978
  99 H :    0.052064
 100 C :   -0.050097
 101 C :    0.037327
 102 C :    0.003731
 103 C :    0.030432
 104 C :   -0.059212
 105 C :    0.020717
 106 H :    0.054063
 107 H :    0.056501
 108 H :    0.050503
 109 H :    0.032988
 110 C :    0.040859
 111 C :   -0.065617
 112 C :   -0.029600
 113 C :    0.069587
 114 C :    0.003196
 115 C :    0.060162
 116 N :    0.073378
 117 C :    0.078130
 118 H :    0.065817
 119 H :    0.066299
 120 H :    0.058315
 121 H :    0.049909
 122 C :    0.007271
 123 C :   -0.039063
 124 C :   -0.028683
 125 C :    0.050434
 126 C :    0.020870
 127 C :    0.007617
 128 C :   -0.028672
 129 C :    0.096125
 130 N :    0.060479
 131 C :    0.030089
 132 C :    0.011103
 133 C :    0.018288
 134 H :    0.060977
 135 H :    0.060887
 136 H :    0.049054
 137 H :    0.052765
 138 H :    0.048966
 139 H :    0.052059
 140 C :   -0.050137
 141 C :    0.037305
 142 C :    0.003728
 143 C :    0.030428
 144 C :   -0.059234
 145 C :    0.020738
 146 H :    0.054094
 147 H :    0.056508
 148 H :    0.050505
 149 H :    0.032988
 150 C :    0.040841
 151 C :   -0.065611
 152 C :   -0.029609
 153 C :    0.069614
 154 C :    0.003197
 155 C :    0.060123
 156 N :    0.073361
 157 C :    0.078128
 158 H :    0.065800
 159 H :    0.066279
 160 H :    0.058319
 161 H :    0.049918

  Mayer bond orders larger than 0.100000
B(  0-Pd, 36-N ) :   0.5369 B(  0-Pd, 50-N ) :   0.5437 B(  0-Pd,116-N ) :   0.5372
B(  0-Pd,130-N ) :   0.5438 B(  1-Pd, 10-N ) :   0.5437 B(  1-Pd, 76-N ) :   0.5370
B(  1-Pd, 90-N ) :   0.5439 B(  1-Pd,156-N ) :   0.5371 B(  2-C ,  3-C ) :   2.5962
B(  2-C , 20-C ) :   0.9984 B(  3-C ,  4-C ) :   1.0026 B(  4-C ,  5-C ) :   1.4304
B(  4-C , 13-C ) :   1.2369 B(  5-C ,  6-C ) :   1.2713 B(  5-C , 14-H ) :   0.9919
B(  6-C ,  7-C ) :   1.4693 B(  6-C , 15-H ) :   0.9809 B(  7-C ,  8-C ) :   1.2400
B(  7-C , 16-H ) :   0.9959 B(  8-C ,  9-C ) :   1.2906 B(  8-C , 13-C ) :   1.2226
B(  9-C , 10-N ) :   1.4364 B(  9-C , 17-H ) :   0.9574 B( 10-N , 11-C ) :   1.1854
B( 11-C , 12-C ) :   1.5373 B( 11-C , 18-H ) :   0.9437 B( 12-C , 13-C ) :   1.2926
B( 12-C , 19-H ) :   0.9552 B( 20-C , 21-C ) :   1.3255 B( 20-C , 25-C ) :   1.3369
B( 21-C , 22-C ) :   1.3829 B( 21-C , 26-H ) :   0.9956 B( 22-C , 23-C ) :   1.3873
B( 22-C , 27-H ) :   0.9839 B( 23-C , 24-C ) :   1.3186 B( 23-C , 28-H ) :   0.9961
B( 24-C , 25-C ) :   1.3296 B( 24-C , 30-C ) :   1.0090 B( 25-C , 29-H ) :   0.9975
B( 30-C , 31-C ) :   2.5940 B( 31-C , 32-C ) :   1.0249 B( 32-C , 33-C ) :   1.3467
B( 32-C , 37-C ) :   1.3568 B( 33-C , 34-C ) :   1.4029 B( 33-C , 38-H ) :   0.9861
B( 34-C , 35-C ) :   1.4242 B( 34-C , 39-H ) :   0.9720 B( 35-C , 36-N ) :   1.3004
B( 35-C , 40-H ) :   0.9478 B( 36-N , 37-C ) :   1.3503 B( 37-C , 41-H ) :   0.9646
B( 42-C , 43-C ) :   2.5963 B( 42-C , 60-C ) :   0.9984 B( 43-C , 44-C ) :   1.0025
B( 44-C , 45-C ) :   1.4305 B( 44-C , 53-C ) :   1.2368 B( 45-C , 46-C ) :   1.2712
B( 45-C , 54-H ) :   0.9918 B( 46-C , 47-C ) :   1.4693 B( 46-C , 55-H ) :   0.9809
B( 47-C , 48-C ) :   1.2399 B( 47-C , 56-H ) :   0.9958 B( 48-C , 49-C ) :   1.2909
B( 48-C , 53-C ) :   1.2226 B( 49-C , 50-N ) :   1.4361 B( 49-C , 57-H ) :   0.9574
B( 50-N , 51-C ) :   1.1856 B( 51-C , 52-C ) :   1.5372 B( 51-C , 58-H ) :   0.9436
B( 52-C , 53-C ) :   1.2927 B( 52-C , 59-H ) :   0.9552 B( 60-C , 61-C ) :   1.3255
B( 60-C , 65-C ) :   1.3369 B( 61-C , 62-C ) :   1.3828 B( 61-C , 66-H ) :   0.9956
B( 62-C , 63-C ) :   1.3874 B( 62-C , 67-H ) :   0.9839 B( 63-C , 64-C ) :   1.3185
B( 63-C , 68-H ) :   0.9961 B( 64-C , 65-C ) :   1.3296 B( 64-C , 70-C ) :   1.0091
B( 65-C , 69-H ) :   0.9975 B( 70-C , 71-C ) :   2.5938 B( 71-C , 72-C ) :   1.0249
B( 72-C , 73-C ) :   1.3467 B( 72-C , 77-C ) :   1.3568 B( 73-C , 74-C ) :   1.4028
B( 73-C , 78-H ) :   0.9861 B( 74-C , 75-C ) :   1.4243 B( 74-C , 79-H ) :   0.9720
B( 75-C , 76-N ) :   1.3003 B( 75-C , 80-H ) :   0.9479 B( 76-N , 77-C ) :   1.3504
B( 77-C , 81-H ) :   0.9646 B( 82-C , 83-C ) :   2.5963 B( 82-C ,100-C ) :   0.9984
B( 83-C , 84-C ) :   1.0025 B( 84-C , 85-C ) :   1.4305 B( 84-C , 93-C ) :   1.2368
B( 85-C , 86-C ) :   1.2712 B( 85-C , 94-H ) :   0.9918 B( 86-C , 87-C ) :   1.4693
B( 86-C , 95-H ) :   0.9809 B( 87-C , 88-C ) :   1.2400 B( 87-C , 96-H ) :   0.9958
B( 88-C , 89-C ) :   1.2908 B( 88-C , 93-C ) :   1.2227 B( 89-C , 90-N ) :   1.4362
B( 89-C , 97-H ) :   0.9574 B( 90-N , 91-C ) :   1.1855 B( 91-C , 92-C ) :   1.5373
B( 91-C , 98-H ) :   0.9436 B( 92-C , 93-C ) :   1.2927 B( 92-C , 99-H ) :   0.9552
B(100-C ,101-C ) :   1.3256 B(100-C ,105-C ) :   1.3368 B(101-C ,102-C ) :   1.3827
B(101-C ,106-H ) :   0.9956 B(102-C ,103-C ) :   1.3875 B(102-C ,107-H ) :   0.9838
B(103-C ,104-C ) :   1.3184 B(103-C ,108-H ) :   0.9961 B(104-C ,105-C ) :   1.3297
B(104-C ,110-C ) :   1.0091 B(105-C ,109-H ) :   0.9975 B(110-C ,111-C ) :   2.5938
B(111-C ,112-C ) :   1.0250 B(112-C ,113-C ) :   1.3467 B(112-C ,117-C ) :   1.3568
B(113-C ,114-C ) :   1.4029 B(113-C ,118-H ) :   0.9861 B(114-C ,115-C ) :   1.4241
B(114-C ,119-H ) :   0.9720 B(115-C ,116-N ) :   1.3004 B(115-C ,120-H ) :   0.9478
B(116-N ,117-C ) :   1.3502 B(117-C ,121-H ) :   0.9646 B(122-C ,123-C ) :   2.5961
B(122-C ,140-C ) :   0.9985 B(123-C ,124-C ) :   1.0025 B(124-C ,125-C ) :   1.4306
B(124-C ,133-C ) :   1.2367 B(125-C ,126-C ) :   1.2712 B(125-C ,134-H ) :   0.9918
B(126-C ,127-C ) :   1.4693 B(126-C ,135-H ) :   0.9809 B(127-C ,128-C ) :   1.2399
B(127-C ,136-H ) :   0.9958 B(128-C ,129-C ) :   1.2908 B(128-C ,133-C ) :   1.2227
B(129-C ,130-N ) :   1.4362 B(129-C ,137-H ) :   0.9574 B(130-N ,131-C ) :   1.1855
B(131-C ,132-C ) :   1.5372 B(131-C ,138-H ) :   0.9436 B(132-C ,133-C ) :   1.2927
B(132-C ,139-H ) :   0.9552 B(140-C ,141-C ) :   1.3255 B(140-C ,145-C ) :   1.3369
B(141-C ,142-C ) :   1.3828 B(141-C ,146-H ) :   0.9956 B(142-C ,143-C ) :   1.3874
B(142-C ,147-H ) :   0.9838 B(143-C ,144-C ) :   1.3185 B(143-C ,148-H ) :   0.9961
B(144-C ,145-C ) :   1.3295 B(144-C ,150-C ) :   1.0092 B(145-C ,149-H ) :   0.9975
B(150-C ,151-C ) :   2.5937 B(151-C ,152-C ) :   1.0250 B(152-C ,153-C ) :   1.3467
B(152-C ,157-C ) :   1.3568 B(153-C ,154-C ) :   1.4029 B(153-C ,158-H ) :   0.9861
B(154-C ,155-C ) :   1.4242 B(154-C ,159-H ) :   0.9720 B(155-C ,156-N ) :   1.3003
B(155-C ,160-H ) :   0.9479 B(156-N ,157-C ) :   1.3503 B(157-C ,161-H ) :   0.9646

Dispersion correction           -0.248651196
FINAL SINGLE POINT ENERGY     -4376.838076460514

DIPOLE MOMENT
-------------
                                X             Y             Z
Electronic contribution:     -0.72042       0.01507      -0.20207
Nuclear contribution   :      0.72324      -0.01518       0.20319
                        -----------------------------------------
Total Dipole Moment    :      0.00282      -0.00012       0.00113
                        -----------------------------------------
Magnitude (a.u.)       :      0.00304
Magnitude (Debye)      :      0.00772

Rotational constants in cm-1:     0.000404     0.000303     0.000301
Rotational constants in MHz :    12.102181     9.075201     9.026791

                             ****ORCA TERMINATED NORMALLY****
TOTAL RUN TIME: 0 days 0 hours 13 minutes 57 seconds 937 msec
