                         Program Version 4.2.1 -  RELEASE  -
|  1> ! DFT SP RKS PBE0 def2-SVP D3BJ Grid6 NOFINALGRID SlowConv TightSCF printbasis
|  2>
|  3> %base "_s_5d3_c_PBE0"
|  4> %maxcore 3000
|  5> %scf
|  6>    MaxIter 2000
|  7> end
|  8> %pal
|  9>    nprocs 32
| 10> end
| 11>
| 12> * xyzfile 4 1 s_5d3_c.xyz
| 13>
| 14>                          ****END OF INPUT****

CARTESIAN COORDINATES (ANGSTROEM)
---------------------------------
  Pd    -0.072000    5.481600   -0.295400
  Pd     0.174200   -5.409300   -0.569200
  C      6.955300   -1.498900   -0.039000
  C      6.590300   -2.651400   -0.040800
  C      6.162700   -3.993200   -0.018500
  C      7.067400   -5.018200    0.196300
  C      6.648900   -6.353200    0.243300
  C      5.328000   -6.684000    0.084700
  C      4.374300   -5.668100   -0.140500
  C      3.003400   -5.942700   -0.300200
  N      2.111100   -4.999800   -0.517300
  C      2.497000   -3.702700   -0.605500
  C      3.801900   -3.328600   -0.452700
  C      4.786700   -4.306400   -0.204200
  H      8.111900   -4.782000    0.332700
  H      7.384300   -7.124800    0.411900
  H      5.009600   -7.713300    0.129100
  H      2.642500   -6.967500   -0.244700
  H      1.704400   -2.985000   -0.807400
  H      4.097700   -2.294000   -0.519900
  C      7.376300   -0.152100   -0.034600
  C      8.739700    0.156900    0.016200
  C      9.148800    1.478700    0.021800
  C      8.219900    2.503200   -0.023200
  C      6.854900    2.202100   -0.072400
  C      6.433900    0.873500   -0.077300
  H      9.467900   -0.639400    0.050000
  H     10.202600    1.712200    0.060900
  H      8.543600    3.532900   -0.019300
  H      5.381200    0.642000   -0.113400
  C      5.903500    3.241800   -0.124600
  C      5.076700    4.121900   -0.177000
  C      4.140600    5.170000   -0.262400
  C      4.555500    6.498600   -0.430400
  C      3.600100    7.493800   -0.531600
  C      2.258300    7.152200   -0.466400
  N      1.866500    5.886100   -0.298200
  C      2.768300    4.912600   -0.195500
  H      5.607800    6.730700   -0.482500
  H      3.890600    8.523500   -0.663200
  H      1.474300    7.902000   -0.550200
  H      2.391500    3.901500   -0.054900
  C      0.190900   -1.811700    6.402900
  C      0.259900   -2.944200    5.985500
  C      0.365100   -4.261600    5.498400
  C      0.583200   -5.318400    6.364800
  C      0.713000   -6.628300    5.888400
  C      0.634700   -6.901700    4.547400
  C      0.408800   -5.852200    3.631100
  C      0.329200   -6.067200    2.242700
  N      0.111800   -5.093000    1.384700
  C     -0.056100   -3.821300    1.824900
  C      0.015200   -3.504000    3.151700
  C      0.261200   -4.516000    4.101800
  H      0.657400   -5.127000    7.424700
  H      0.881500   -7.426200    6.595200
  H      0.742800   -7.911500    4.184700
  H      0.450400   -7.069900    1.838300
  H     -0.252800   -3.075900    1.056900
  H     -0.115000   -2.489000    3.490900
  C      0.113800   -0.488200    6.886100
  C      0.087300   -0.244500    8.263300
  C      0.013500    1.054600    8.733900
  C     -0.035200    2.120500    7.853000
  C     -0.007300    1.884900    6.474600
  C      0.067800    0.579600    5.991900
  H      0.123600   -1.073400    8.954100
  H     -0.006900    1.237600    9.798100
  H     -0.093100    3.132300    8.224500
  H      0.091000    0.398700    4.929000
  C     -0.063100    2.966700    5.571600
  C     -0.117600    3.883000    4.785300
  C     -0.208000    4.970400    3.895700
  C     -0.453200    6.269300    4.363000
  C     -0.557000    7.303800    3.450600
  C     -0.418200    7.029800    2.098800
  N     -0.176400    5.792300    1.657500
  C     -0.069600    4.782100    2.517500
  H     -0.561600    6.448400    5.421300
  H     -0.747100    8.311900    3.781600
  H     -0.501300    7.812000    1.347100
  H      0.132600    3.797100    2.101600
  C     -6.856800    1.569600   -0.770800
  C     -6.491800    2.722100   -0.773000
  C     -6.064600    4.064000   -0.799900
  C     -6.971600    5.088600   -1.006700
  C     -6.553800    6.423600   -1.058800
  C     -5.231500    6.754700   -0.913100
  C     -4.275500    5.739300   -0.696100
  C     -2.903300    6.014300   -0.549000
  N     -2.008800    5.071800   -0.339200
  C     -2.393600    3.774600   -0.246900
  C     -3.699800    3.400100   -0.387500
  C     -4.687000    4.377500   -0.627500
  H     -8.017300    4.852100   -1.133000
  H     -7.290800    7.195000   -1.221000
  H     -4.913600    7.784000   -0.961400
  H     -2.543100    7.039200   -0.608500
  H     -1.599000    3.057100   -0.052100
  H     -3.994700    2.365500   -0.316900
  C     -7.277600    0.222700   -0.771400
  C     -8.641500   -0.086500   -0.803800
  C     -9.050500   -1.408400   -0.806000
  C     -8.120800   -2.432800   -0.775900
  C     -6.755300   -2.131400   -0.745000
  C     -6.334600   -0.802800   -0.743400
  H     -9.370300    0.709700   -0.825900
  H    -10.104600   -1.642000   -0.830900
  H     -8.444400   -3.462500   -0.777200
  H     -5.281500   -0.571100   -0.721700
  C     -5.803200   -3.171100   -0.707100
  C     -4.975500   -4.050900   -0.666600
  C     -4.038600   -5.099200   -0.593100
  C     -4.452300   -6.429000   -0.431000
  C     -3.496100   -7.424300   -0.339400
  C     -2.154600   -7.081600   -0.407800
  N     -1.764000   -5.814500   -0.570800
  C     -2.666700   -4.840900   -0.664700
  H     -5.504200   -6.661800   -0.375600
  H     -3.785600   -8.454900   -0.212500
  H     -1.370100   -7.831600   -0.330700
  H     -2.290900   -3.829000   -0.801800
  C     -0.062600    1.887500   -7.270200
  C     -0.139000    3.019200   -6.852100
  C     -0.252300    4.335700   -6.364200
  C     -0.472200    5.392300   -7.230400
  C     -0.609100    6.701100   -6.753200
  C     -0.536100    6.973700   -5.411700
  C     -0.308600    5.924300   -4.495700
  C     -0.233300    6.138500   -3.106900
  N     -0.014100    5.164500   -2.249100
  C      0.159100    3.893700   -2.689800
  C      0.092500    3.577200   -4.017000
  C     -0.154300    4.589200   -4.967000
  H     -0.542000    5.201600   -8.290600
  H     -0.779000    7.499000   -7.459700
  H     -0.649600    7.982700   -5.048400
  H     -0.359200    7.140500   -2.702100
  H      0.356000    3.148300   -1.921800
  H      0.227200    2.562900   -4.356700
  C      0.023900    0.564300   -7.752600
  C      0.066200    0.320300   -9.129400
  C      0.149600   -0.978700   -9.598700
  C      0.192400   -2.044200   -8.717000
  C      0.148800   -1.808300   -7.339000
  C      0.063900   -0.503200   -6.857700
  H      0.034400    1.148900   -9.820800
  H      0.182200   -1.161800  -10.662500
  H      0.258000   -3.055800   -9.087600
  H      0.028400   -0.322100   -5.795100
  C      0.198300   -2.889800   -6.435300
  C      0.247200   -3.805900   -5.648500
  C      0.332300   -4.893800   -4.758900
  C      0.582000   -6.192000   -5.225900
  C      0.680500   -7.227400   -4.314000
  C      0.532400   -6.954900   -2.962900
  N      0.286200   -5.718100   -2.521900
  C      0.184000   -4.707100   -3.381600
  H      0.697900   -6.369800   -6.283700
  H      0.873900   -8.234900   -4.644800
  H      0.611500   -7.737900   -2.211500
  H     -0.022300   -3.722900   -2.966000

 Total Charge           Charge          ....    4
 Multiplicity           Mult            ....    1
 Number of Electrons    NEL             ....  720
 Basis Dimension        Dim             .... 1798

ORBITAL ENERGIES
----------------

  NO   OCC          E(Eh)            E(eV)
   0   2.0000     -14.748265      -401.3207
   1   2.0000     -14.748238      -401.3200
   2   2.0000     -14.748213      -401.3193
   3   2.0000     -14.748187      -401.3186
   4   2.0000     -14.743145      -401.1814
   5   2.0000     -14.743133      -401.1811
   6   2.0000     -14.743071      -401.1794
   7   2.0000     -14.743061      -401.1791
   8   2.0000     -10.581160      -287.9280
   9   2.0000     -10.581142      -287.9275
  10   2.0000     -10.581118      -287.9268
  11   2.0000     -10.581102      -287.9264
  12   2.0000     -10.579552      -287.8842
  13   2.0000     -10.579537      -287.8838
  14   2.0000     -10.579485      -287.8824
  15   2.0000     -10.579474      -287.8821
  16   2.0000     -10.574945      -287.7589
  17   2.0000     -10.574922      -287.7582
  18   2.0000     -10.574917      -287.7581
  19   2.0000     -10.574895      -287.7575
  20   2.0000     -10.568904      -287.5945
  21   2.0000     -10.568865      -287.5934
  22   2.0000     -10.568860      -287.5933
  23   2.0000     -10.568825      -287.5923
  24   2.0000     -10.558184      -287.3028
  25   2.0000     -10.558180      -287.3027
  26   2.0000     -10.558138      -287.3015
  27   2.0000     -10.558129      -287.3013
  28   2.0000     -10.540565      -286.8234
  29   2.0000     -10.540557      -286.8231
  30   2.0000     -10.540511      -286.8219
  31   2.0000     -10.540508      -286.8218
  32   2.0000     -10.539145      -286.7847
  33   2.0000     -10.539126      -286.7842
  34   2.0000     -10.539067      -286.7826
  35   2.0000     -10.539061      -286.7824
  36   2.0000     -10.535895      -286.6963
  37   2.0000     -10.535876      -286.6958
  38   2.0000     -10.535821      -286.6943
  39   2.0000     -10.535817      -286.6941
  40   2.0000     -10.533988      -286.6444
  41   2.0000     -10.533985      -286.6443
  42   2.0000     -10.533948      -286.6433
  43   2.0000     -10.533934      -286.6429
  44   2.0000     -10.533561      -286.6328
  45   2.0000     -10.533555      -286.6326
  46   2.0000     -10.533516      -286.6315
  47   2.0000     -10.533505      -286.6312
  48   2.0000     -10.530315      -286.5444
  49   2.0000     -10.530299      -286.5440
  50   2.0000     -10.530240      -286.5424
  51   2.0000     -10.530232      -286.5422
  52   2.0000     -10.511982      -286.0456
  53   2.0000     -10.511978      -286.0455
  54   2.0000     -10.511912      -286.0437
  55   2.0000     -10.511904      -286.0435
  56   2.0000     -10.509795      -285.9861
  57   2.0000     -10.509775      -285.9855
  58   2.0000     -10.509715      -285.9839
  59   2.0000     -10.509690      -285.9832
  60   2.0000     -10.508794      -285.9588
  61   2.0000     -10.508788      -285.9587
  62   2.0000     -10.508718      -285.9568
  63   2.0000     -10.508699      -285.9562
  64   2.0000     -10.506685      -285.9014
  65   2.0000     -10.506673      -285.9011
  66   2.0000     -10.506606      -285.8993
  67   2.0000     -10.506592      -285.8989
  68   2.0000     -10.506554      -285.8979
  69   2.0000     -10.506547      -285.8977
  70   2.0000     -10.506481      -285.8959
  71   2.0000     -10.506463      -285.8954
  72   2.0000     -10.504511      -285.8423
  73   2.0000     -10.504499      -285.8419
  74   2.0000     -10.504435      -285.8402
  75   2.0000     -10.504425      -285.8399
  76   2.0000     -10.497305      -285.6462
  77   2.0000     -10.497291      -285.6458
  78   2.0000     -10.497217      -285.6438
  79   2.0000     -10.497211      -285.6436
  80   2.0000     -10.496997      -285.6378
  81   2.0000     -10.496991      -285.6376
  82   2.0000     -10.496922      -285.6358
  83   2.0000     -10.496909      -285.6354
  84   2.0000     -10.491280      -285.4823
  85   2.0000     -10.491257      -285.4816
  86   2.0000     -10.491194      -285.4799
  87   2.0000     -10.491168      -285.4792
  88   2.0000     -10.486580      -285.3544
  89   2.0000     -10.486572      -285.3541
  90   2.0000     -10.486513      -285.3525
  91   2.0000     -10.486495      -285.3520
  92   2.0000     -10.485828      -285.3339
  93   2.0000     -10.485800      -285.3331
  94   2.0000     -10.485738      -285.3314
  95   2.0000     -10.485716      -285.3308
  96   2.0000     -10.485136      -285.3151
  97   2.0000     -10.485124      -285.3147
  98   2.0000     -10.485065      -285.3131
  99   2.0000     -10.485049      -285.3127
 100   2.0000     -10.475418      -285.0506
 101   2.0000     -10.475407      -285.0503
 102   2.0000     -10.475344      -285.0486
 103   2.0000     -10.475318      -285.0479
 104   2.0000      -3.845757      -104.6484
 105   2.0000      -3.845753      -104.6483
 106   2.0000      -2.523223       -68.6604
 107   2.0000      -2.523217       -68.6602
 108   2.0000      -2.522943       -68.6528
 109   2.0000      -2.522941       -68.6527
 110   2.0000      -2.486521       -67.6617
 111   2.0000      -2.486517       -67.6616
 112   2.0000      -1.300192       -35.3800
 113   2.0000      -1.300161       -35.3792
 114   2.0000      -1.294091       -35.2140
 115   2.0000      -1.294055       -35.2130
 116   2.0000      -1.291505       -35.1436
 117   2.0000      -1.291468       -35.1426
 118   2.0000      -1.288789       -35.0697
 119   2.0000      -1.288770       -35.0692
 120   2.0000      -1.169451       -31.8224
 121   2.0000      -1.169392       -31.8208
 122   2.0000      -1.168787       -31.8043
 123   2.0000      -1.168734       -31.8029
 124   2.0000      -1.143103       -31.1054
 125   2.0000      -1.143004       -31.1027
 126   2.0000      -1.142991       -31.1024
 127   2.0000      -1.142914       -31.1003
 128   2.0000      -1.135260       -30.8920
 129   2.0000      -1.135158       -30.8892
 130   2.0000      -1.134096       -30.8603
 131   2.0000      -1.134037       -30.8587
 132   2.0000      -1.103771       -30.0351
 133   2.0000      -1.103705       -30.0334
 134   2.0000      -1.102666       -30.0051
 135   2.0000      -1.102584       -30.0028
 136   2.0000      -1.097208       -29.8566
 137   2.0000      -1.097142       -29.8548
 138   2.0000      -1.096022       -29.8243
 139   2.0000      -1.095886       -29.8206
 140   2.0000      -1.081966       -29.4418
 141   2.0000      -1.081872       -29.4392
 142   2.0000      -1.081021       -29.4161
 143   2.0000      -1.080917       -29.4132
 144   2.0000      -1.068164       -29.0662
 145   2.0000      -1.068045       -29.0630
 146   2.0000      -1.067775       -29.0556
 147   2.0000      -1.067257       -29.0415
 148   2.0000      -1.054763       -28.7016
 149   2.0000      -1.054390       -28.6914
 150   2.0000      -1.053684       -28.6722
 151   2.0000      -1.053053       -28.6550
 152   2.0000      -1.035320       -28.1725
 153   2.0000      -1.035067       -28.1656
 154   2.0000      -1.035019       -28.1643
 155   2.0000      -1.034710       -28.1559
 156   2.0000      -1.010746       -27.5038
 157   2.0000      -1.010657       -27.5014
 158   2.0000      -1.009840       -27.4791
 159   2.0000      -1.009724       -27.4760
 160   2.0000      -0.991006       -26.9667
 161   2.0000      -0.990844       -26.9622
 162   2.0000      -0.990738       -26.9594
 163   2.0000      -0.990402       -26.9502
 164   2.0000      -0.963780       -26.2258
 165   2.0000      -0.963231       -26.2109
 166   2.0000      -0.962098       -26.1800
 167   2.0000      -0.961350       -26.1597
 168   2.0000      -0.960924       -26.1481
 169   2.0000      -0.960883       -26.1470
 170   2.0000      -0.958726       -26.0883
 171   2.0000      -0.957703       -26.0604
 172   2.0000      -0.947075       -25.7712
 173   2.0000      -0.946965       -25.7682
 174   2.0000      -0.945468       -25.7275
 175   2.0000      -0.945403       -25.7257
 176   2.0000      -0.936785       -25.4912
 177   2.0000      -0.936705       -25.4890
 178   2.0000      -0.935590       -25.4587
 179   2.0000      -0.935526       -25.4570
 180   2.0000      -0.919341       -25.0165
 181   2.0000      -0.919236       -25.0137
 182   2.0000      -0.918614       -24.9968
 183   2.0000      -0.918516       -24.9941
 184   2.0000      -0.893974       -24.3263
 185   2.0000      -0.893323       -24.3086
 186   2.0000      -0.893107       -24.3027
 187   2.0000      -0.892854       -24.2958
 188   2.0000      -0.885479       -24.0951
 189   2.0000      -0.884539       -24.0695
 190   2.0000      -0.884359       -24.0646
 191   2.0000      -0.884014       -24.0552
 192   2.0000      -0.868286       -23.6273
 193   2.0000      -0.867146       -23.5962
 194   2.0000      -0.862606       -23.4727
 195   2.0000      -0.861849       -23.4521
 196   2.0000      -0.848977       -23.1018
 197   2.0000      -0.846662       -23.0388
 198   2.0000      -0.846079       -23.0230
 199   2.0000      -0.845295       -23.0017
 200   2.0000      -0.833843       -22.6900
 201   2.0000      -0.833214       -22.6729
 202   2.0000      -0.830698       -22.6044
 203   2.0000      -0.830551       -22.6005
 204   2.0000      -0.824629       -22.4393
 205   2.0000      -0.823807       -22.4169
 206   2.0000      -0.823253       -22.4019
 207   2.0000      -0.822909       -22.3925
 208   2.0000      -0.814987       -22.1769
 209   2.0000      -0.814482       -22.1632
 210   2.0000      -0.814338       -22.1593
 211   2.0000      -0.813391       -22.1335
 212   2.0000      -0.812553       -22.1107
 213   2.0000      -0.812134       -22.0993
 214   2.0000      -0.810779       -22.0624
 215   2.0000      -0.810731       -22.0611
 216   2.0000      -0.799124       -21.7453
 217   2.0000      -0.798552       -21.7297
 218   2.0000      -0.795852       -21.6562
 219   2.0000      -0.795522       -21.6472
 220   2.0000      -0.778039       -21.1715
 221   2.0000      -0.778025       -21.1711
 222   2.0000      -0.773594       -21.0506
 223   2.0000      -0.772806       -21.0291
 224   2.0000      -0.772773       -21.0282
 225   2.0000      -0.772138       -21.0110
 226   2.0000      -0.764686       -20.8082
 227   2.0000      -0.764613       -20.8062
 228   2.0000      -0.763140       -20.7661
 229   2.0000      -0.762947       -20.7608
 230   2.0000      -0.753070       -20.4921
 231   2.0000      -0.752903       -20.4875
 232   2.0000      -0.751003       -20.4358
 233   2.0000      -0.750934       -20.4340
 234   2.0000      -0.748908       -20.3788
 235   2.0000      -0.748850       -20.3772
 236   2.0000      -0.747491       -20.3403
 237   2.0000      -0.747391       -20.3375
 238   2.0000      -0.744902       -20.2698
 239   2.0000      -0.744442       -20.2573
 240   2.0000      -0.743471       -20.2309
 241   2.0000      -0.742813       -20.2130
 242   2.0000      -0.741018       -20.1641
 243   2.0000      -0.740781       -20.1577
 244   2.0000      -0.739424       -20.1207
 245   2.0000      -0.738542       -20.0968
 246   2.0000      -0.737554       -20.0699
 247   2.0000      -0.737307       -20.0631
 248   2.0000      -0.736716       -20.0471
 249   2.0000      -0.736459       -20.0401
 250   2.0000      -0.734857       -19.9965
 251   2.0000      -0.734629       -19.9903
 252   2.0000      -0.734034       -19.9741
 253   2.0000      -0.733907       -19.9706
 254   2.0000      -0.726600       -19.7718
 255   2.0000      -0.726484       -19.7686
 256   2.0000      -0.725556       -19.7434
 257   2.0000      -0.725374       -19.7384
 258   2.0000      -0.723623       -19.6908
 259   2.0000      -0.723595       -19.6900
 260   2.0000      -0.716440       -19.4953
 261   2.0000      -0.716368       -19.4934
 262   2.0000      -0.716308       -19.4917
 263   2.0000      -0.716157       -19.4876
 264   2.0000      -0.699998       -19.0479
 265   2.0000      -0.699866       -19.0443
 266   2.0000      -0.696796       -18.9608
 267   2.0000      -0.696640       -18.9565
 268   2.0000      -0.690742       -18.7960
 269   2.0000      -0.690511       -18.7898
 270   2.0000      -0.687677       -18.7126
 271   2.0000      -0.687417       -18.7056
 272   2.0000      -0.687268       -18.7015
 273   2.0000      -0.687085       -18.6965
 274   2.0000      -0.685830       -18.6624
 275   2.0000      -0.685689       -18.6585
 276   2.0000      -0.683097       -18.5880
 277   2.0000      -0.683054       -18.5868
 278   2.0000      -0.682627       -18.5752
 279   2.0000      -0.682583       -18.5740
 280   2.0000      -0.680304       -18.5120
 281   2.0000      -0.679656       -18.4944
 282   2.0000      -0.667500       -18.1636
 283   2.0000      -0.666142       -18.1266
 284   2.0000      -0.662570       -18.0294
 285   2.0000      -0.658882       -17.9291
 286   2.0000      -0.658816       -17.9273
 287   2.0000      -0.656069       -17.8525
 288   2.0000      -0.652433       -17.7536
 289   2.0000      -0.651971       -17.7410
 290   2.0000      -0.649838       -17.6830
 291   2.0000      -0.649545       -17.6750
 292   2.0000      -0.648204       -17.6385
 293   2.0000      -0.643082       -17.4992
 294   2.0000      -0.638773       -17.3819
 295   2.0000      -0.638700       -17.3799
 296   2.0000      -0.638211       -17.3666
 297   2.0000      -0.638084       -17.3631
 298   2.0000      -0.632915       -17.2225
 299   2.0000      -0.630748       -17.1635
 300   2.0000      -0.623015       -16.9531
 301   2.0000      -0.622464       -16.9381
 302   2.0000      -0.622419       -16.9369
 303   2.0000      -0.622315       -16.9341
 304   2.0000      -0.622053       -16.9269
 305   2.0000      -0.621763       -16.9190
 306   2.0000      -0.621639       -16.9156
 307   2.0000      -0.621422       -16.9097
 308   2.0000      -0.619245       -16.8505
 309   2.0000      -0.616471       -16.7750
 310   2.0000      -0.616243       -16.7688
 311   2.0000      -0.616049       -16.7635
 312   2.0000      -0.615495       -16.7485
 313   2.0000      -0.615363       -16.7449
 314   2.0000      -0.615045       -16.7362
 315   2.0000      -0.613792       -16.7021
 316   2.0000      -0.613344       -16.6899
 317   2.0000      -0.612040       -16.6545
 318   2.0000      -0.607154       -16.5215
 319   2.0000      -0.606309       -16.4985
 320   2.0000      -0.605951       -16.4888
 321   2.0000      -0.605928       -16.4881
 322   2.0000      -0.592304       -16.1174
 323   2.0000      -0.592026       -16.1098
 324   2.0000      -0.591437       -16.0938
 325   2.0000      -0.587064       -15.9748
 326   2.0000      -0.582366       -15.8470
 327   2.0000      -0.581772       -15.8308
 328   2.0000      -0.580804       -15.8045
 329   2.0000      -0.578857       -15.7515
 330   2.0000      -0.567013       -15.4292
 331   2.0000      -0.566981       -15.4283
 332   2.0000      -0.562200       -15.2982
 333   2.0000      -0.561449       -15.2778
 334   2.0000      -0.561237       -15.2720
 335   2.0000      -0.558504       -15.1977
 336   2.0000      -0.552452       -15.0330
 337   2.0000      -0.552077       -15.0228
 338   2.0000      -0.551946       -15.0192
 339   2.0000      -0.551675       -15.0118
 340   2.0000      -0.550353       -14.9759
 341   2.0000      -0.548683       -14.9304
 342   2.0000      -0.548555       -14.9269
 343   2.0000      -0.547148       -14.8887
 344   2.0000      -0.539922       -14.6920
 345   2.0000      -0.539872       -14.6907
 346   2.0000      -0.539865       -14.6905
 347   2.0000      -0.539741       -14.6871
 348   2.0000      -0.528878       -14.3915
 349   2.0000      -0.528478       -14.3806
 350   2.0000      -0.527326       -14.3493
 351   2.0000      -0.526744       -14.3334
 352   2.0000      -0.497455       -13.5364
 353   2.0000      -0.496971       -13.5233
 354   2.0000      -0.496437       -13.5087
 355   2.0000      -0.495657       -13.4875
 356   2.0000      -0.477438       -12.9917
 357   2.0000      -0.476936       -12.9781
 358   2.0000      -0.476650       -12.9703
 359   2.0000      -0.476014       -12.9530
 360   0.0000      -0.347497        -9.4559
 361   0.0000      -0.347370        -9.4524
 362   0.0000      -0.342491        -9.3197
 363   0.0000      -0.342308        -9.3147
 364   0.0000      -0.336822        -9.1654

MULLIKEN ATOMIC CHARGES
-----------------------
   0 Pd:    0.388724
   1 Pd:    0.388566
   2 C :    0.033801
   3 C :   -0.072937
   4 C :   -0.010042
   5 C :    0.039305
   6 C :    0.020815
   7 C :    0.014078
   8 C :   -0.047747
   9 C :    0.157070
  10 N :   -0.309613
  11 C :    0.136301
  12 C :    0.006190
  13 C :    0.063410
  14 H :    0.060840
  15 H :    0.074472
  16 H :    0.040538
  17 H :    0.058398
  18 H :    0.046343
  19 H :    0.036805
  20 C :   -0.052457
  21 C :    0.046490
  22 C :    0.005744
  23 C :    0.042401
  24 C :   -0.060475
  25 C :    0.027501
  26 H :    0.050194
  27 H :    0.066567
  28 H :    0.045727
  29 H :   -0.005210
  30 C :    0.051668
  31 C :   -0.040295
  32 C :   -0.102300
  33 C :    0.110857
  34 C :   -0.020684
  35 C :    0.126199
  36 N :   -0.296710
  37 C :    0.167004
  38 H :    0.078053
  39 H :    0.083989
  40 H :    0.079414
  41 H :    0.053830
  42 C :    0.033791
  43 C :   -0.072975
  44 C :   -0.009983
  45 C :    0.039215
  46 C :    0.020819
  47 C :    0.014034
  48 C :   -0.047705
  49 C :    0.157025
  50 N :   -0.309641
  51 C :    0.136262
  52 C :    0.006218
  53 C :    0.063437
  54 H :    0.060876
  55 H :    0.074473
  56 H :    0.040579
  57 H :    0.058440
  58 H :    0.046402
  59 H :    0.036726
  60 C :   -0.052435
  61 C :    0.046402
  62 C :    0.005785
  63 C :    0.042383
  64 C :   -0.060460
  65 C :    0.027535
  66 H :    0.050195
  67 H :    0.066537
  68 H :    0.045752
  69 H :   -0.005226
  70 C :    0.051676
  71 C :   -0.040253
  72 C :   -0.102324
  73 C :    0.110930
  74 C :   -0.020702
  75 C :    0.126158
  76 N :   -0.296677
  77 C :    0.167029
  78 H :    0.078030
  79 H :    0.083978
  80 H :    0.079475
  81 H :    0.053738
  82 C :    0.033821
  83 C :   -0.072957
  84 C :   -0.010073
  85 C :    0.039355
  86 C :    0.020873
  87 C :    0.014072
  88 C :   -0.047711
  89 C :    0.156988
  90 N :   -0.309563
  91 C :    0.136179
  92 C :    0.006260
  93 C :    0.063441
  94 H :    0.060861
  95 H :    0.074462
  96 H :    0.040546
  97 H :    0.058437
  98 H :    0.046373
  99 H :    0.036808
 100 C :   -0.052467
 101 C :    0.046450
 102 C :    0.005787
 103 C :    0.042395
 104 C :   -0.060391
 105 C :    0.027483
 106 H :    0.050216
 107 H :    0.066508
 108 H :    0.045706
 109 H :   -0.005177
 110 C :    0.051813
 111 C :   -0.040463
 112 C :   -0.102326
 113 C :    0.110955
 114 C :   -0.020700
 115 C :    0.126127
 116 N :   -0.296623
 117 C :    0.167157
 118 H :    0.078005
 119 H :    0.083998
 120 H :    0.079375
 121 H :    0.053826
 122 C :    0.033783
 123 C :   -0.072908
 124 C :   -0.010013
 125 C :    0.039384
 126 C :    0.020825
 127 C :    0.014039
 128 C :   -0.047727
 129 C :    0.157005
 130 N :   -0.309528
 131 C :    0.136184
 132 C :    0.006291
 133 C :    0.063365
 134 H :    0.060827
 135 H :    0.074484
 136 H :    0.040562
 137 H :    0.058370
 138 H :    0.046423
 139 H :    0.036813
 140 C :   -0.052512
 141 C :    0.046472
 142 C :    0.005811
 143 C :    0.042416
 144 C :   -0.060390
 145 C :    0.027434
 146 H :    0.050232
 147 H :    0.066489
 148 H :    0.045685
 149 H :   -0.005167
 150 C :    0.051798
 151 C :   -0.040447
 152 C :   -0.102312
 153 C :    0.110871
 154 C :   -0.020657
 155 C :    0.126133
 156 N :   -0.296653
 157 C :    0.167230
 158 H :    0.078075
 159 H :    0.083952
 160 H :    0.079394
 161 H :    0.053803
Sum of atomic charges:    4.0000000

LOEWDIN ATOMIC CHARGES
----------------------
   0 Pd:   -0.352292
   1 Pd:   -0.352256
   2 C :    0.008880
   3 C :   -0.041884
   4 C :   -0.028560
   5 C :    0.050251
   6 C :    0.020195
   7 C :    0.006008
   8 C :   -0.028438
   9 C :    0.094636
  10 N :    0.061320
  11 C :    0.032777
  12 C :    0.010515
  13 C :    0.018207
  14 H :    0.060784
  15 H :    0.060650
  16 H :    0.048282
  17 H :    0.054172
  18 H :    0.045557
  19 H :    0.052420
  20 C :   -0.051049
  21 C :    0.036570
  22 C :    0.003819
  23 C :    0.031342
  24 C :   -0.058787
  25 C :    0.020933
  26 H :    0.053536
  27 H :    0.056595
  28 H :    0.051298
  29 H :    0.033125
  30 C :    0.040174
  31 C :   -0.064103
  32 C :   -0.029341
  33 C :    0.069954
  34 C :    0.004564
  35 C :    0.061428
  36 N :    0.072849
  37 C :    0.076977
  38 H :    0.066224
  39 H :    0.066770
  40 H :    0.055137
  41 H :    0.052214
  42 C :    0.008856
  43 C :   -0.041886
  44 C :   -0.028572
  45 C :    0.050234
  46 C :    0.020199
  47 C :    0.005991
  48 C :   -0.028429
  49 C :    0.094628
  50 N :    0.061302
  51 C :    0.032794
  52 C :    0.010496
  53 C :    0.018227
  54 H :    0.060801
  55 H :    0.060656
  56 H :    0.048306
  57 H :    0.054182
  58 H :    0.045569
  59 H :    0.052396
  60 C :   -0.051066
  61 C :    0.036558
  62 C :    0.003831
  63 C :    0.031351
  64 C :   -0.058785
  65 C :    0.020945
  66 H :    0.053536
  67 H :    0.056583
  68 H :    0.051307
  69 H :    0.033119
  70 C :    0.040173
  71 C :   -0.064077
  72 C :   -0.029327
  73 C :    0.069943
  74 C :    0.004572
  75 C :    0.061437
  76 N :    0.072852
  77 C :    0.076974
  78 H :    0.066212
  79 H :    0.066759
  80 H :    0.055144
  81 H :    0.052189
  82 C :    0.008883
  83 C :   -0.041885
  84 C :   -0.028544
  85 C :    0.050280
  86 C :    0.020230
  87 C :    0.006021
  88 C :   -0.028433
  89 C :    0.094633
  90 N :    0.061356
  91 C :    0.032762
  92 C :    0.010539
  93 C :    0.018193
  94 H :    0.060796
  95 H :    0.060649
  96 H :    0.048289
  97 H :    0.054188
  98 H :    0.045564
  99 H :    0.052422
 100 C :   -0.051057
 101 C :    0.036578
 102 C :    0.003843
 103 C :    0.031365
 104 C :   -0.058788
 105 C :    0.020935
 106 H :    0.053541
 107 H :    0.056562
 108 H :    0.051281
 109 H :    0.033149
 110 C :    0.040212
 111 C :   -0.064111
 112 C :   -0.029294
 113 C :    0.069973
 114 C :    0.004552
 115 C :    0.061404
 116 N :    0.072894
 117 C :    0.077006
 118 H :    0.066198
 119 H :    0.066770
 120 H :    0.055115
 121 H :    0.052203
 122 C :    0.008891
 123 C :   -0.041888
 124 C :   -0.028519
 125 C :    0.050259
 126 C :    0.020224
 127 C :    0.005981
 128 C :   -0.028428
 129 C :    0.094629
 130 N :    0.061371
 131 C :    0.032764
 132 C :    0.010533
 133 C :    0.018208
 134 H :    0.060787
 135 H :    0.060661
 136 H :    0.048300
 137 H :    0.054173
 138 H :    0.045575
 139 H :    0.052430
 140 C :   -0.051055
 141 C :    0.036581
 142 C :    0.003835
 143 C :    0.031369
 144 C :   -0.058804
 145 C :    0.020949
 146 H :    0.053550
 147 H :    0.056559
 148 H :    0.051274
 149 H :    0.033140
 150 C :    0.040206
 151 C :   -0.064108
 152 C :   -0.029308
 153 C :    0.069967
 154 C :    0.004556
 155 C :    0.061426
 156 N :    0.072883
 157 C :    0.077023
 158 H :    0.066230
 159 H :    0.066748
 160 H :    0.055120
 161 H :    0.052202

  Mayer bond orders larger than 0.100000
B(  0-Pd, 36-N ) :   0.5435 B(  0-Pd, 76-N ) :   0.5435 B(  0-Pd, 90-N ) :   0.5508
B(  0-Pd,130-N ) :   0.5508 B(  1-Pd, 10-N ) :   0.5507 B(  1-Pd, 50-N ) :   0.5507
B(  1-Pd,116-N ) :   0.5438 B(  1-Pd,156-N ) :   0.5438 B(  2-C ,  3-C ) :   2.5988
B(  2-C , 20-C ) :   0.9972 B(  3-C ,  4-C ) :   1.0002 B(  4-C ,  5-C ) :   1.4348
B(  4-C , 13-C ) :   1.2332 B(  5-C ,  6-C ) :   1.2704 B(  5-C , 14-H ) :   0.9915
B(  6-C ,  7-C ) :   1.4702 B(  6-C , 15-H ) :   0.9811 B(  7-C ,  8-C ) :   1.2378
B(  7-C , 16-H ) :   0.9961 B(  8-C ,  9-C ) :   1.2953 B(  8-C , 13-C ) :   1.2193
B(  9-C , 10-N ) :   1.4186 B(  9-C , 17-H ) :   0.9554 B( 10-N , 11-C ) :   1.1997
B( 11-C , 12-C ) :   1.5310 B( 11-C , 18-H ) :   0.9500 B( 12-C , 13-C ) :   1.2949
B( 12-C , 19-H ) :   0.9566 B( 20-C , 21-C ) :   1.3251 B( 20-C , 25-C ) :   1.3374
B( 21-C , 22-C ) :   1.3839 B( 21-C , 26-H ) :   0.9955 B( 22-C , 23-C ) :   1.3860
B( 22-C , 27-H ) :   0.9838 B( 23-C , 24-C ) :   1.3194 B( 23-C , 28-H ) :   0.9962
B( 24-C , 25-C ) :   1.3286 B( 24-C , 30-C ) :   1.0083 B( 25-C , 29-H ) :   0.9975
B( 30-C , 31-C ) :   2.5948 B( 31-C , 32-C ) :   1.0230 B( 32-C , 33-C ) :   1.3421
B( 32-C , 37-C ) :   1.3632 B( 33-C , 34-C ) :   1.4057 B( 33-C , 38-H ) :   0.9863
B( 34-C , 35-C ) :   1.4194 B( 34-C , 39-H ) :   0.9724 B( 35-C , 36-N ) :   1.3104
B( 35-C , 40-H ) :   0.9543 B( 36-N , 37-C ) :   1.3352 B( 37-C , 41-H ) :   0.9625
B( 42-C , 43-C ) :   2.5988 B( 42-C , 60-C ) :   0.9972 B( 43-C , 44-C ) :   1.0002
B( 44-C , 45-C ) :   1.4349 B( 44-C , 53-C ) :   1.2331 B( 45-C , 46-C ) :   1.2703
B( 45-C , 54-H ) :   0.9915 B( 46-C , 47-C ) :   1.4702 B( 46-C , 55-H ) :   0.9811
B( 47-C , 48-C ) :   1.2379 B( 47-C , 56-H ) :   0.9961 B( 48-C , 49-C ) :   1.2954
B( 48-C , 53-C ) :   1.2191 B( 49-C , 50-N ) :   1.4185 B( 49-C , 57-H ) :   0.9553
B( 50-N , 51-C ) :   1.1997 B( 51-C , 52-C ) :   1.5309 B( 51-C , 58-H ) :   0.9500
B( 52-C , 53-C ) :   1.2951 B( 52-C , 59-H ) :   0.9566 B( 60-C , 61-C ) :   1.3252
B( 60-C , 65-C ) :   1.3373 B( 61-C , 62-C ) :   1.3839 B( 61-C , 66-H ) :   0.9955
B( 62-C , 63-C ) :   1.3860 B( 62-C , 67-H ) :   0.9838 B( 63-C , 64-C ) :   1.3194
B( 63-C , 68-H ) :   0.9962 B( 64-C , 65-C ) :   1.3286 B( 64-C , 70-C ) :   1.0083
B( 65-C , 69-H ) :   0.9975 B( 70-C , 71-C ) :   2.5948 B( 71-C , 72-C ) :   1.0230
B( 72-C , 73-C ) :   1.3420 B( 72-C , 77-C ) :   1.3633 B( 73-C , 74-C ) :   1.4058
B( 73-C , 78-H ) :   0.9863 B( 74-C , 75-C ) :   1.4193 B( 74-C , 79-H ) :   0.9724
B( 75-C , 76-N ) :   1.3105 B( 75-C , 80-H ) :   0.9543 B( 76-N , 77-C ) :   1.3351
B( 77-C , 81-H ) :   0.9625 B( 82-C , 83-C ) :   2.5989 B( 82-C ,100-C ) :   0.9972
B( 83-C , 84-C ) :   1.0002 B( 84-C , 85-C ) :   1.4348 B( 84-C , 93-C ) :   1.2333
B( 85-C , 86-C ) :   1.2704 B( 85-C , 94-H ) :   0.9915 B( 86-C , 87-C ) :   1.4701
B( 86-C , 95-H ) :   0.9811 B( 87-C , 88-C ) :   1.2380 B( 87-C , 96-H ) :   0.9961
B( 88-C , 89-C ) :   1.2953 B( 88-C , 93-C ) :   1.2191 B( 89-C , 90-N ) :   1.4186
B( 89-C , 97-H ) :   0.9554 B( 90-N , 91-C ) :   1.1996 B( 91-C , 92-C ) :   1.5310
B( 91-C , 98-H ) :   0.9500 B( 92-C , 93-C ) :   1.2950 B( 92-C , 99-H ) :   0.9566
B(100-C ,101-C ) :   1.3251 B(100-C ,105-C ) :   1.3374 B(101-C ,102-C ) :   1.3839
B(101-C ,106-H ) :   0.9955 B(102-C ,103-C ) :   1.3860 B(102-C ,107-H ) :   0.9838
B(103-C ,104-C ) :   1.3193 B(103-C ,108-H ) :   0.9962 B(104-C ,105-C ) :   1.3287
B(104-C ,110-C ) :   1.0083 B(105-C ,109-H ) :   0.9975 B(110-C ,111-C ) :   2.5949
B(111-C ,112-C ) :   1.0231 B(112-C ,113-C ) :   1.3419 B(112-C ,117-C ) :   1.3632
B(113-C ,114-C ) :   1.4059 B(113-C ,118-H ) :   0.9863 B(114-C ,115-C ) :   1.4193
B(114-C ,119-H ) :   0.9724 B(115-C ,116-N ) :   1.3104 B(115-C ,120-H ) :   0.9543
B(116-N ,117-C ) :   1.3351 B(117-C ,121-H ) :   0.9625 B(122-C ,123-C ) :   2.5989
B(122-C ,140-C ) :   0.9972 B(123-C ,124-C ) :   1.0001 B(124-C ,125-C ) :   1.4349
B(124-C ,133-C ) :   1.2331 B(125-C ,126-C ) :   1.2703 B(125-C ,134-H ) :   0.9916
B(126-C ,127-C ) :   1.4702 B(126-C ,135-H ) :   0.9811 B(127-C ,128-C ) :   1.2380
B(127-C ,136-H ) :   0.9960 B(128-C ,129-C ) :   1.2953 B(128-C ,133-C ) :   1.2192
B(129-C ,130-N ) :   1.4185 B(129-C ,137-H ) :   0.9554 B(130-N ,131-C ) :   1.1997
B(131-C ,132-C ) :   1.5310 B(131-C ,138-H ) :   0.9499 B(132-C ,133-C ) :   1.2950
B(132-C ,139-H ) :   0.9566 B(140-C ,141-C ) :   1.3252 B(140-C ,145-C ) :   1.3373
B(141-C ,142-C ) :   1.3838 B(141-C ,146-H ) :   0.9955 B(142-C ,143-C ) :   1.3861
B(142-C ,147-H ) :   0.9838 B(143-C ,144-C ) :   1.3193 B(143-C ,148-H ) :   0.9962
B(144-C ,145-C ) :   1.3288 B(144-C ,150-C ) :   1.0083 B(145-C ,149-H ) :   0.9974
B(150-C ,151-C ) :   2.5949 B(151-C ,152-C ) :   1.0231 B(152-C ,153-C ) :   1.3420
B(152-C ,157-C ) :   1.3633 B(153-C ,154-C ) :   1.4059 B(153-C ,158-H ) :   0.9862
B(154-C ,155-C ) :   1.4193 B(154-C ,159-H ) :   0.9724 B(155-C ,156-N ) :   1.3104
B(155-C ,160-H ) :   0.9543 B(156-N ,157-C ) :   1.3351 B(157-C ,161-H ) :   0.9625

Dispersion correction           -0.249130455
FINAL SINGLE POINT ENERGY     -4376.845880457196

DIPOLE MOMENT
-------------
                                X             Y             Z
Electronic contribution:     -0.52711      -0.02194      -0.98227
Nuclear contribution   :      0.53012       0.02342       0.98385
                        -----------------------------------------
Total Dipole Moment    :      0.00301       0.00148       0.00158
                        -----------------------------------------
Magnitude (a.u.)       :      0.00370
Magnitude (Debye)      :      0.00941

Rotational constants in cm-1:     0.000415     0.000307     0.000297
Rotational constants in MHz :    12.430026     9.209581     8.911988

                             ****ORCA TERMINATED NORMALLY****
TOTAL RUN TIME: 0 days 0 hours 14 minutes 32 seconds 648 msec
