                         Program Version 4.2.1 -  RELEASE  -
|  1> ! DFT SP RKS PBE0 def2-SVP D3BJ Grid6 NOFINALGRID SlowConv TightSCF printbasis
|  2>
|  3> %base "_s_5d1_a_PBE0"
|  4> %maxcore 3000
|  5> %scf
|  6>    MaxIter 2000
|  7> end
|  8> %pal
|  9>    nprocs 32
| 10> end
| 11>
| 12> * xyzfile 4 1 s_5d1_a.xyz
| 13>
| 14>                          ****END OF INPUT****

CARTESIAN COORDINATES (ANGSTROEM)
---------------------------------
  Pd    -0.757000    4.828600   -0.420600
  Pd    -0.245100   -3.939100   -0.113000
  C      5.787100    1.303500   -0.664500
  C      5.668200    2.505600   -0.603900
  C      5.296500    3.862900   -0.513000
  C      6.188800    4.883900   -0.250000
  C      5.740900    6.204500   -0.109100
  C      4.409200    6.521100   -0.202900
  C      3.465800    5.507600   -0.476900
  C      2.076600    5.746800   -0.538900
  N      1.205300    4.794700   -0.793300
  C      1.639500    3.531900   -1.055100
  C      2.957800    3.192800   -0.997500
  C      3.915100    4.171400   -0.665000
  H      7.239900    4.663000   -0.142300
  H      6.464700    6.979300    0.092800
  H      4.075200    7.537400   -0.067100
  H      1.683200    6.741900   -0.360000
  H      0.881000    2.796700   -1.322700
  H      3.283300    2.185100   -1.199200
  C      5.919300   -0.099200   -0.762100
  C      7.050400   -0.662800   -1.355400
  C      7.146600   -2.036800   -1.474600
  C      6.139800   -2.853700   -0.991300
  C      5.007800   -2.302700   -0.384800
  C      4.895200   -0.921400   -0.283500
  H      7.839100   -0.023100   -1.721000
  H      8.015200   -2.475100   -1.941800
  H      6.226400   -3.923300   -1.104300
  H      4.043200   -0.474800    0.205100
  C      3.984700   -3.216200    0.155600
  C      4.391300   -4.352800    0.861200
  C      3.444500   -5.255400    1.312700
  C      2.110300   -5.012900    1.043700
  N      1.710400   -3.912200    0.393400
  C      2.615400   -3.026600   -0.034000
  H      5.439100   -4.518600    1.056900
  H      3.737500   -6.139500    1.855300
  H      1.342900   -5.717900    1.355900
  H      2.226200   -2.161200   -0.560600
  C     -0.203900    1.190600    6.042800
  C     -0.376900    2.384200    5.950400
  C     -0.593800    3.734800    5.608000
  C     -0.959400    4.705700    6.519900
  C     -1.222800    6.016600    6.099600
  C     -1.150900    6.370500    4.776000
  C     -0.774600    5.409400    3.813300
  C     -0.727900    5.684000    2.430100
  N     -0.378000    4.780200    1.540500
  C      0.003400    3.540000    1.949800
  C     -0.029300    3.167700    3.259900
  C     -0.461900    4.087700    4.235200
  H     -1.052900    4.451800    7.564900
  H     -1.502800    6.752000    6.838400
  H     -1.381300    7.376500    4.463100
  H     -0.999800    6.665800    2.056800
  H      0.346800    2.851900    1.178400
  H      0.267500    2.177400    3.565300
  C      0.025500   -0.199200    6.144000
  C      0.664600   -0.729900    7.266100
  C      0.913500   -2.088200    7.331900
  C      0.514700   -2.923800    6.303600
  C     -0.136600   -2.406900    5.180500
  C     -0.368400   -1.039200    5.098600
  H      0.964200   -0.076800    8.071400
  H      1.416500   -2.500100    8.193500
  H      0.729100   -3.979400    6.366700
  H     -0.893600   -0.621400    4.253800
  C     -0.583000   -3.343700    4.133400
  C     -1.176400   -4.552600    4.509500
  C     -1.534900   -5.472300    3.539600
  C     -1.287200   -5.173000    2.212900
  N     -0.746500   -4.004700    1.842400
  C     -0.408900   -3.103900    2.769900
  H     -1.358600   -4.761400    5.552000
  H     -1.989400   -6.411800    3.809200
  H     -1.526600   -5.886700    1.427100
  H      0.032800   -2.183000    2.403500
  C     -6.849300    0.595700    0.176800
  C     -6.873900    1.796800    0.036100
  C     -6.663200    3.178700   -0.149500
  C     -7.672000    4.073200   -0.449600
  C     -7.381600    5.424400   -0.683000
  C     -6.093500    5.895400   -0.644300
  C     -5.034600    5.015100   -0.334800
  C     -3.681300    5.414700   -0.321800
  N     -2.701600    4.585900   -0.032700
  C     -2.982500    3.300000    0.312700
  C     -4.253600    2.810000    0.309000
  C     -5.323600    3.651000   -0.054800
  H     -8.692800    3.728300   -0.514800
  H     -8.193500    6.097600   -0.912100
  H     -5.881600    6.932600   -0.850200
  H     -3.408900    6.435200   -0.569200
  H     -2.139700    2.672900    0.602500
  H     -4.456900    1.786100    0.577800
  C     -6.812600   -0.803200    0.366900
  C     -7.862700   -1.456700    1.014500
  C     -7.793100   -2.821700    1.222600
  C     -6.700800   -3.543600    0.774900
  C     -5.648400   -2.903100    0.115300
  C     -5.702200   -1.527900   -0.075700
  H     -8.718500   -0.892400    1.352000
  H     -8.598800   -3.328300    1.731700
  H     -6.658300   -4.606300    0.956800
  H     -4.914100   -1.016700   -0.606400
  C     -4.529100   -3.722800   -0.383500
  C     -4.805200   -4.940700   -1.012400
  C     -3.762700   -5.753300   -1.421800
  C     -2.464000   -5.341500   -1.186400
  N     -2.190600   -4.163800   -0.609800
  C     -3.190000   -3.364100   -0.225100
  H     -5.827900   -5.239000   -1.182200
  H     -3.954200   -6.697400   -1.905600
  H     -1.622000   -5.971000   -1.465900
  H     -2.901300   -2.427900    0.241500
  C     -0.789400    0.727900   -6.612000
  C     -0.752800    1.936900   -6.603500
  C     -0.695900    3.323800   -6.354800
  C     -0.419800    4.264700   -7.327500
  C     -0.313800    5.622800   -6.997000
  C     -0.454800    6.056200   -5.703000
  C     -0.743600    5.127100   -4.680400
  C     -0.849800    5.488500   -3.320500
  N     -1.116100    4.614100   -2.374300
  C     -1.350200    3.314200   -2.701200
  C     -1.248500    2.859300   -3.981500
  C     -0.898200    3.753000   -5.012600
  H     -0.274400    3.952000   -8.350300
  H     -0.100600    6.332600   -7.781600
  H     -0.344900    7.100800   -5.458500
  H     -0.696000    6.517800   -3.013700
  H     -1.633000    2.646000   -1.888900
  H     -1.427800    1.823600   -4.220700
  C     -0.862200   -0.682600   -6.617500
  C     -1.425200   -1.355800   -7.703300
  C     -1.523300   -2.734500   -7.676000
  C     -1.048400   -3.448800   -6.590300
  C     -0.471300   -2.787900   -5.502500
  C     -0.391800   -1.400600   -5.514400
  H     -1.784300   -0.796200   -8.553400
  H     -1.967400   -3.257200   -8.509400
  H     -1.145300   -4.523400   -6.581000
  H      0.073600   -0.870600   -4.697900
  C      0.062500   -3.597000   -4.391800
  C      0.789300   -4.755500   -4.682900
  C      1.234700   -5.563700   -3.651700
  C      0.940400   -5.205700   -2.349300
  N      0.271200   -4.081600   -2.060700
  C     -0.152500   -3.287400   -3.048300
  H      1.005800   -5.011700   -5.708100
  H      1.792200   -6.463500   -3.855300
  H      1.247100   -5.835200   -1.516400
  H     -0.696900   -2.398500   -2.746800

 Total Charge           Charge          ....    4
 Multiplicity           Mult            ....    1
 Number of Electrons    NEL             ....  672
 Basis Dimension        Dim             .... 1686

ORBITAL ENERGIES
----------------

  NO   OCC          E(Eh)            E(eV)
   0   2.0000     -14.772348      -401.9760
   1   2.0000     -14.772281      -401.9742
   2   2.0000     -14.772239      -401.9730
   3   2.0000     -14.772125      -401.9699
   4   2.0000     -14.751931      -401.4204
   5   2.0000     -14.751816      -401.4173
   6   2.0000     -14.751693      -401.4140
   7   2.0000     -14.751326      -401.4040
   8   2.0000     -10.601334      -288.4770
   9   2.0000     -10.601243      -288.4745
  10   2.0000     -10.601231      -288.4742
  11   2.0000     -10.601146      -288.4719
  12   2.0000     -10.598051      -288.3876
  13   2.0000     -10.597936      -288.3845
  14   2.0000     -10.597907      -288.3837
  15   2.0000     -10.597816      -288.3812
  16   2.0000     -10.590729      -288.1884
  17   2.0000     -10.590673      -288.1869
  18   2.0000     -10.590613      -288.1852
  19   2.0000     -10.590401      -288.1795
  20   2.0000     -10.578819      -287.8643
  21   2.0000     -10.578787      -287.8634
  22   2.0000     -10.578633      -287.8593
  23   2.0000     -10.578329      -287.8510
  24   2.0000     -10.568022      -287.5705
  25   2.0000     -10.567917      -287.5676
  26   2.0000     -10.567896      -287.5671
  27   2.0000     -10.567825      -287.5651
  28   2.0000     -10.561099      -287.3821
  29   2.0000     -10.561004      -287.3795
  30   2.0000     -10.560943      -287.3779
  31   2.0000     -10.560917      -287.3772
  32   2.0000     -10.556276      -287.2509
  33   2.0000     -10.556142      -287.2472
  34   2.0000     -10.556136      -287.2471
  35   2.0000     -10.556036      -287.2443
  36   2.0000     -10.549696      -287.0718
  37   2.0000     -10.549642      -287.0704
  38   2.0000     -10.549512      -287.0668
  39   2.0000     -10.549378      -287.0632
  40   2.0000     -10.546295      -286.9793
  41   2.0000     -10.546240      -286.9778
  42   2.0000     -10.546130      -286.9748
  43   2.0000     -10.545987      -286.9709
  44   2.0000     -10.543185      -286.8946
  45   2.0000     -10.543079      -286.8918
  46   2.0000     -10.543039      -286.8907
  47   2.0000     -10.542743      -286.8826
  48   2.0000     -10.541949      -286.8610
  49   2.0000     -10.541907      -286.8599
  50   2.0000     -10.541751      -286.8556
  51   2.0000     -10.541667      -286.8534
  52   2.0000     -10.531269      -286.5704
  53   2.0000     -10.531260      -286.5701
  54   2.0000     -10.531162      -286.5675
  55   2.0000     -10.531079      -286.5652
  56   2.0000     -10.531054      -286.5646
  57   2.0000     -10.531035      -286.5640
  58   2.0000     -10.530936      -286.5613
  59   2.0000     -10.530892      -286.5601
  60   2.0000     -10.522802      -286.3400
  61   2.0000     -10.522793      -286.3398
  62   2.0000     -10.522580      -286.3340
  63   2.0000     -10.522554      -286.3332
  64   2.0000     -10.522283      -286.3259
  65   2.0000     -10.522270      -286.3255
  66   2.0000     -10.522136      -286.3219
  67   2.0000     -10.522124      -286.3216
  68   2.0000     -10.522068      -286.3200
  69   2.0000     -10.522060      -286.3198
  70   2.0000     -10.522000      -286.3182
  71   2.0000     -10.521970      -286.3174
  72   2.0000     -10.514764      -286.1213
  73   2.0000     -10.514751      -286.1209
  74   2.0000     -10.514548      -286.1154
  75   2.0000     -10.514512      -286.1144
  76   2.0000     -10.511774      -286.0399
  77   2.0000     -10.511773      -286.0399
  78   2.0000     -10.511691      -286.0377
  79   2.0000     -10.511584      -286.0348
  80   2.0000     -10.507616      -285.9268
  81   2.0000     -10.507612      -285.9267
  82   2.0000     -10.507448      -285.9222
  83   2.0000     -10.507398      -285.9208
  84   2.0000     -10.506496      -285.8963
  85   2.0000     -10.506490      -285.8961
  86   2.0000     -10.506377      -285.8931
  87   2.0000     -10.506291      -285.8907
  88   2.0000     -10.504309      -285.8368
  89   2.0000     -10.504307      -285.8367
  90   2.0000     -10.504147      -285.8324
  91   2.0000     -10.504096      -285.8310
  92   2.0000     -10.501187      -285.7518
  93   2.0000     -10.501177      -285.7516
  94   2.0000     -10.501117      -285.7499
  95   2.0000     -10.500972      -285.7460
  96   2.0000      -3.870080      -105.3102
  97   2.0000      -3.851722      -104.8107
  98   2.0000      -2.547167       -69.3119
  99   2.0000      -2.547034       -69.3083
 100   2.0000      -2.529183       -68.8226
 101   2.0000      -2.528965       -68.8166
 102   2.0000      -2.510083       -68.3028
 103   2.0000      -2.492272       -67.8182
 104   2.0000      -1.322866       -35.9970
 105   2.0000      -1.315263       -35.7901
 106   2.0000      -1.315075       -35.7850
 107   2.0000      -1.313383       -35.7390
 108   2.0000      -1.305988       -35.5378
 109   2.0000      -1.298185       -35.3254
 110   2.0000      -1.297876       -35.3170
 111   2.0000      -1.296652       -35.2837
 112   2.0000      -1.181641       -32.1541
 113   2.0000      -1.180551       -32.1244
 114   2.0000      -1.180433       -32.1212
 115   2.0000      -1.180325       -32.1183
 116   2.0000      -1.176549       -32.0155
 117   2.0000      -1.175666       -31.9915
 118   2.0000      -1.175594       -31.9895
 119   2.0000      -1.175523       -31.9876
 120   2.0000      -1.144722       -31.1495
 121   2.0000      -1.142801       -31.0972
 122   2.0000      -1.142607       -31.0919
 123   2.0000      -1.142572       -31.0910
 124   2.0000      -1.116574       -30.3835
 125   2.0000      -1.116072       -30.3699
 126   2.0000      -1.116010       -30.3682
 127   2.0000      -1.115594       -30.3569
 128   2.0000      -1.114526       -30.3278
 129   2.0000      -1.113708       -30.3055
 130   2.0000      -1.113594       -30.3024
 131   2.0000      -1.112784       -30.2804
 132   2.0000      -1.093185       -29.7471
 133   2.0000      -1.091300       -29.6958
 134   2.0000      -1.090844       -29.6834
 135   2.0000      -1.090748       -29.6808
 136   2.0000      -1.076230       -29.2857
 137   2.0000      -1.075140       -29.2561
 138   2.0000      -1.075060       -29.2539
 139   2.0000      -1.074271       -29.2324
 140   2.0000      -1.060765       -28.8649
 141   2.0000      -1.059830       -28.8394
 142   2.0000      -1.059752       -28.8373
 143   2.0000      -1.058707       -28.8089
 144   2.0000      -1.045250       -28.4427
 145   2.0000      -1.044860       -28.4321
 146   2.0000      -1.044844       -28.4317
 147   2.0000      -1.044562       -28.4240
 148   2.0000      -1.010098       -27.4862
 149   2.0000      -1.009748       -27.4766
 150   2.0000      -1.009690       -27.4751
 151   2.0000      -1.009408       -27.4674
 152   2.0000      -0.977580       -26.6013
 153   2.0000      -0.976967       -26.5846
 154   2.0000      -0.976862       -26.5818
 155   2.0000      -0.976356       -26.5680
 156   2.0000      -0.974411       -26.5151
 157   2.0000      -0.971846       -26.4453
 158   2.0000      -0.971631       -26.4394
 159   2.0000      -0.970465       -26.4077
 160   2.0000      -0.969540       -26.3825
 161   2.0000      -0.967879       -26.3373
 162   2.0000      -0.965796       -26.2806
 163   2.0000      -0.965729       -26.2788
 164   2.0000      -0.948831       -25.8190
 165   2.0000      -0.945499       -25.7283
 166   2.0000      -0.945250       -25.7216
 167   2.0000      -0.945126       -25.7182
 168   2.0000      -0.932868       -25.3846
 169   2.0000      -0.932419       -25.3724
 170   2.0000      -0.932339       -25.3702
 171   2.0000      -0.932147       -25.3650
 172   2.0000      -0.905107       -24.6292
 173   2.0000      -0.904719       -24.6186
 174   2.0000      -0.904026       -24.5998
 175   2.0000      -0.903962       -24.5981
 176   2.0000      -0.903804       -24.5938
 177   2.0000      -0.901573       -24.5330
 178   2.0000      -0.899606       -24.4795
 179   2.0000      -0.899567       -24.4785
 180   2.0000      -0.880519       -23.9601
 181   2.0000      -0.871737       -23.7212
 182   2.0000      -0.869250       -23.6535
 183   2.0000      -0.869183       -23.6517
 184   2.0000      -0.863980       -23.5101
 185   2.0000      -0.856055       -23.2944
 186   2.0000      -0.854704       -23.2577
 187   2.0000      -0.854613       -23.2552
 188   2.0000      -0.845711       -23.0130
 189   2.0000      -0.841517       -22.8989
 190   2.0000      -0.841320       -22.8935
 191   2.0000      -0.841038       -22.8858
 192   2.0000      -0.832921       -22.6649
 193   2.0000      -0.832828       -22.6624
 194   2.0000      -0.832767       -22.6607
 195   2.0000      -0.831800       -22.6344
 196   2.0000      -0.829121       -22.5615
 197   2.0000      -0.826025       -22.4773
 198   2.0000      -0.825976       -22.4760
 199   2.0000      -0.825720       -22.4690
 200   2.0000      -0.825624       -22.4664
 201   2.0000      -0.823197       -22.4003
 202   2.0000      -0.817317       -22.2403
 203   2.0000      -0.817176       -22.2365
 204   2.0000      -0.797148       -21.6915
 205   2.0000      -0.789018       -21.4703
 206   2.0000      -0.788564       -21.4579
 207   2.0000      -0.785870       -21.3846
 208   2.0000      -0.784989       -21.3606
 209   2.0000      -0.780485       -21.2381
 210   2.0000      -0.780057       -21.2264
 211   2.0000      -0.779957       -21.2237
 212   2.0000      -0.777752       -21.1637
 213   2.0000      -0.777657       -21.1611
 214   2.0000      -0.775872       -21.1125
 215   2.0000      -0.775048       -21.0901
 216   2.0000      -0.773870       -21.0581
 217   2.0000      -0.772337       -21.0164
 218   2.0000      -0.772027       -21.0079
 219   2.0000      -0.771909       -21.0047
 220   2.0000      -0.769018       -20.9261
 221   2.0000      -0.768565       -20.9137
 222   2.0000      -0.764320       -20.7982
 223   2.0000      -0.763966       -20.7886
 224   2.0000      -0.763913       -20.7871
 225   2.0000      -0.761990       -20.7348
 226   2.0000      -0.759021       -20.6540
 227   2.0000      -0.756500       -20.5854
 228   2.0000      -0.755373       -20.5547
 229   2.0000      -0.755318       -20.5532
 230   2.0000      -0.755195       -20.5499
 231   2.0000      -0.750319       -20.4172
 232   2.0000      -0.750098       -20.4112
 233   2.0000      -0.749656       -20.3992
 234   2.0000      -0.748404       -20.3651
 235   2.0000      -0.748219       -20.3601
 236   2.0000      -0.747508       -20.3407
 237   2.0000      -0.744849       -20.2684
 238   2.0000      -0.744825       -20.2677
 239   2.0000      -0.742007       -20.1911
 240   2.0000      -0.741956       -20.1896
 241   2.0000      -0.740665       -20.1545
 242   2.0000      -0.737472       -20.0676
 243   2.0000      -0.737464       -20.0674
 244   2.0000      -0.736429       -20.0393
 245   2.0000      -0.736401       -20.0385
 246   2.0000      -0.735810       -20.0224
 247   2.0000      -0.733832       -19.9686
 248   2.0000      -0.719369       -19.5750
 249   2.0000      -0.714734       -19.4489
 250   2.0000      -0.714282       -19.4366
 251   2.0000      -0.714225       -19.4350
 252   2.0000      -0.713668       -19.4199
 253   2.0000      -0.712679       -19.3930
 254   2.0000      -0.704310       -19.1652
 255   2.0000      -0.704102       -19.1596
 256   2.0000      -0.697613       -18.9830
 257   2.0000      -0.697420       -18.9778
 258   2.0000      -0.697378       -18.9766
 259   2.0000      -0.696974       -18.9656
 260   2.0000      -0.695761       -18.9326
 261   2.0000      -0.695195       -18.9172
 262   2.0000      -0.694663       -18.9027
 263   2.0000      -0.692150       -18.8344
 264   2.0000      -0.690469       -18.7886
 265   2.0000      -0.683603       -18.6018
 266   2.0000      -0.683344       -18.5947
 267   2.0000      -0.679317       -18.4852
 268   2.0000      -0.677819       -18.4444
 269   2.0000      -0.675287       -18.3755
 270   2.0000      -0.675223       -18.3738
 271   2.0000      -0.668851       -18.2003
 272   2.0000      -0.668807       -18.1992
 273   2.0000      -0.668696       -18.1962
 274   2.0000      -0.667355       -18.1596
 275   2.0000      -0.654075       -17.7983
 276   2.0000      -0.654039       -17.7973
 277   2.0000      -0.653105       -17.7719
 278   2.0000      -0.652067       -17.7436
 279   2.0000      -0.649001       -17.6602
 280   2.0000      -0.648921       -17.6580
 281   2.0000      -0.648341       -17.6422
 282   2.0000      -0.648094       -17.6355
 283   2.0000      -0.647853       -17.6290
 284   2.0000      -0.647676       -17.6242
 285   2.0000      -0.643949       -17.5227
 286   2.0000      -0.643879       -17.5208
 287   2.0000      -0.642944       -17.4954
 288   2.0000      -0.642853       -17.4929
 289   2.0000      -0.638709       -17.3802
 290   2.0000      -0.637190       -17.3388
 291   2.0000      -0.634014       -17.2524
 292   2.0000      -0.633923       -17.2499
 293   2.0000      -0.632491       -17.2110
 294   2.0000      -0.628377       -17.0990
 295   2.0000      -0.628188       -17.0939
 296   2.0000      -0.625378       -17.0174
 297   2.0000      -0.622328       -16.9344
 298   2.0000      -0.622047       -16.9268
 299   2.0000      -0.620818       -16.8933
 300   2.0000      -0.616507       -16.7760
 301   2.0000      -0.616234       -16.7686
 302   2.0000      -0.615928       -16.7603
 303   2.0000      -0.613885       -16.7047
 304   2.0000      -0.613789       -16.7021
 305   2.0000      -0.610129       -16.6024
 306   2.0000      -0.606227       -16.4963
 307   2.0000      -0.605514       -16.4769
 308   2.0000      -0.605383       -16.4733
 309   2.0000      -0.603799       -16.4302
 310   2.0000      -0.592805       -16.1310
 311   2.0000      -0.589871       -16.0512
 312   2.0000      -0.589716       -16.0470
 313   2.0000      -0.588662       -16.0183
 314   2.0000      -0.586221       -15.9519
 315   2.0000      -0.573628       -15.6092
 316   2.0000      -0.572556       -15.5800
 317   2.0000      -0.572488       -15.5782
 318   2.0000      -0.570847       -15.5335
 319   2.0000      -0.567394       -15.4396
 320   2.0000      -0.560505       -15.2521
 321   2.0000      -0.559559       -15.2264
 322   2.0000      -0.559408       -15.2223
 323   2.0000      -0.558865       -15.2075
 324   2.0000      -0.538749       -14.6601
 325   2.0000      -0.538580       -14.6555
 326   2.0000      -0.538526       -14.6540
 327   2.0000      -0.538328       -14.6487
 328   2.0000      -0.535901       -14.5826
 329   2.0000      -0.535775       -14.5792
 330   2.0000      -0.535497       -14.5716
 331   2.0000      -0.535034       -14.5590
 332   2.0000      -0.499815       -13.6007
 333   2.0000      -0.499361       -13.5883
 334   2.0000      -0.499255       -13.5854
 335   2.0000      -0.498611       -13.5679
 336   0.0000      -0.375565       -10.2196
 337   0.0000      -0.360273        -9.8035
 338   0.0000      -0.357274        -9.7219
 339   0.0000      -0.357039        -9.7155
 340   0.0000      -0.355478        -9.6731

MULLIKEN ATOMIC CHARGES
-----------------------
   0 Pd:    0.408634
   1 Pd:    0.362336
   2 C :    0.008127
   3 C :   -0.035892
   4 C :   -0.014067
   5 C :    0.047682
   6 C :    0.018036
   7 C :    0.023160
   8 C :   -0.056814
   9 C :    0.166577
  10 N :   -0.315056
  11 C :    0.116971
  12 C :    0.007080
  13 C :    0.057072
  14 H :    0.064464
  15 H :    0.078788
  16 H :    0.048168
  17 H :    0.072152
  18 H :    0.051784
  19 H :    0.027943
  20 C :   -0.062620
  21 C :    0.050873
  22 C :    0.011072
  23 C :   -0.017226
  24 C :    0.025025
  25 C :   -0.004945
  26 H :    0.058031
  27 H :    0.068021
  28 H :    0.039138
  29 H :   -0.007249
  30 C :   -0.047304
  31 C :    0.074158
  32 C :   -0.014599
  33 C :    0.106559
  34 N :   -0.315366
  35 C :    0.149346
  36 H :    0.083677
  37 H :    0.084043
  38 H :    0.100407
  39 H :    0.059991
  40 C :    0.008087
  41 C :   -0.035819
  42 C :   -0.014168
  43 C :    0.047703
  44 C :    0.017942
  45 C :    0.022979
  46 C :   -0.056381
  47 C :    0.166491
  48 N :   -0.313913
  49 C :    0.117383
  50 C :    0.006815
  51 C :    0.056960
  52 H :    0.064434
  53 H :    0.078739
  54 H :    0.048106
  55 H :    0.072118
  56 H :    0.050330
  57 H :    0.028222
  58 C :   -0.062733
  59 C :    0.051009
  60 C :    0.011039
  61 C :   -0.017327
  62 C :    0.025434
  63 C :   -0.004974
  64 H :    0.058055
  65 H :    0.068112
  66 H :    0.039197
  67 H :   -0.007345
  68 C :   -0.047025
  69 C :    0.073932
  70 C :   -0.014365
  71 C :    0.105931
  72 N :   -0.316145
  73 C :    0.149004
  74 H :    0.083648
  75 H :    0.083984
  76 H :    0.101663
  77 H :    0.060188
  78 C :    0.008407
  79 C :   -0.035892
  80 C :   -0.013651
  81 C :    0.047549
  82 C :    0.018101
  83 C :    0.023162
  84 C :   -0.057181
  85 C :    0.167070
  86 N :   -0.315417
  87 C :    0.118593
  88 C :    0.006723
  89 C :    0.057007
  90 H :    0.064516
  91 H :    0.078799
  92 H :    0.048282
  93 H :    0.072166
  94 H :    0.050008
  95 H :    0.027316
  96 C :   -0.062363
  97 C :    0.050941
  98 C :    0.011004
  99 C :   -0.017176
 100 C :    0.024635
 101 C :   -0.004954
 102 H :    0.057989
 103 H :    0.067990
 104 H :    0.038933
 105 H :   -0.007031
 106 C :   -0.048081
 107 C :    0.074442
 108 C :   -0.014576
 109 C :    0.106578
 110 N :   -0.315272
 111 C :    0.149797
 112 H :    0.083750
 113 H :    0.084121
 114 H :    0.100493
 115 H :    0.059860
 116 C :    0.007690
 117 C :   -0.035531
 118 C :   -0.014321
 119 C :    0.047816
 120 C :    0.017926
 121 C :    0.023111
 122 C :   -0.056758
 123 C :    0.167494
 124 N :   -0.313467
 125 C :    0.117131
 126 C :    0.006517
 127 C :    0.057088
 128 H :    0.064362
 129 H :    0.078669
 130 H :    0.048161
 131 H :    0.072205
 132 H :    0.049900
 133 H :    0.028631
 134 C :   -0.062973
 135 C :    0.051055
 136 C :    0.011091
 137 C :   -0.017388
 138 C :    0.025332
 139 C :   -0.004532
 140 H :    0.058084
 141 H :    0.068109
 142 H :    0.039272
 143 H :   -0.007476
 144 C :   -0.047196
 145 C :    0.073807
 146 C :   -0.014347
 147 C :    0.106140
 148 N :   -0.316164
 149 C :    0.149186
 150 H :    0.083707
 151 H :    0.083966
 152 H :    0.101351
 153 H :    0.060227
Sum of atomic charges:    4.0000000

LOEWDIN ATOMIC CHARGES
----------------------
   0 Pd:   -0.344524
   1 Pd:   -0.339481
   2 C :   -0.006405
   3 C :   -0.024096
   4 C :   -0.032809
   5 C :    0.054171
   6 C :    0.021923
   7 C :    0.015100
   8 C :   -0.029941
   9 C :    0.104992
  10 N :    0.057826
  11 C :    0.027164
  12 C :    0.004006
  13 C :    0.020412
  14 H :    0.062457
  15 H :    0.062351
  16 H :    0.051861
  17 H :    0.058338
  18 H :    0.045630
  19 H :    0.050668
  20 C :   -0.042659
  21 C :    0.034923
  22 C :    0.009807
  23 C :   -0.000796
  24 C :   -0.041803
  25 C :   -0.006752
  26 H :    0.057338
  27 H :    0.057697
  28 H :    0.042869
  29 H :    0.028392
  30 C :   -0.004905
  31 C :    0.061627
  32 C :    0.003919
  33 C :    0.056977
  34 N :    0.063995
  35 C :    0.069212
  36 H :    0.063836
  37 H :    0.067228
  38 H :    0.057370
  39 H :    0.048996
  40 C :   -0.006401
  41 C :   -0.024077
  42 C :   -0.032844
  43 C :    0.054145
  44 C :    0.021822
  45 C :    0.014994
  46 C :   -0.029951
  47 C :    0.104923
  48 N :    0.057896
  49 C :    0.027404
  50 C :    0.004030
  51 C :    0.020522
  52 H :    0.062439
  53 H :    0.062329
  54 H :    0.051827
  55 H :    0.058312
  56 H :    0.045180
  57 H :    0.050723
  58 C :   -0.042667
  59 C :    0.035029
  60 C :    0.009842
  61 C :   -0.000727
  62 C :   -0.041820
  63 C :   -0.006734
  64 H :    0.057351
  65 H :    0.057741
  66 H :    0.042887
  67 H :    0.028370
  68 C :   -0.004816
  69 C :    0.061562
  70 C :    0.003900
  71 C :    0.056783
  72 N :    0.063980
  73 C :    0.069210
  74 H :    0.063812
  75 H :    0.067228
  76 H :    0.057744
  77 H :    0.049064
  78 C :   -0.006408
  79 C :   -0.023905
  80 C :   -0.032766
  81 C :    0.054206
  82 C :    0.022033
  83 C :    0.015129
  84 C :   -0.029927
  85 C :    0.105202
  86 N :    0.058134
  87 C :    0.026828
  88 C :    0.004067
  89 C :    0.020423
  90 H :    0.062475
  91 H :    0.062364
  92 H :    0.051921
  93 H :    0.058411
  94 H :    0.045385
  95 H :    0.050516
  96 C :   -0.042532
  97 C :    0.034876
  98 C :    0.009757
  99 C :   -0.000986
 100 C :   -0.041821
 101 C :   -0.006802
 102 H :    0.057323
 103 H :    0.057672
 104 H :    0.042786
 105 H :    0.028422
 106 C :   -0.004985
 107 C :    0.061668
 108 C :    0.003850
 109 C :    0.057117
 110 N :    0.063779
 111 C :    0.069212
 112 H :    0.063885
 113 H :    0.067259
 114 H :    0.057327
 115 H :    0.048929
 116 C :   -0.006542
 117 C :   -0.024044
 118 C :   -0.032879
 119 C :    0.054200
 120 C :    0.021811
 121 C :    0.015100
 122 C :   -0.029923
 123 C :    0.105282
 124 N :    0.057630
 125 C :    0.027412
 126 C :    0.003955
 127 C :    0.020541
 128 H :    0.062401
 129 H :    0.062291
 130 H :    0.051851
 131 H :    0.058324
 132 H :    0.045259
 133 H :    0.050850
 134 C :   -0.042690
 135 C :    0.035087
 136 C :    0.009834
 137 C :   -0.000700
 138 C :   -0.041843
 139 C :   -0.006745
 140 H :    0.057362
 141 H :    0.057746
 142 H :    0.042892
 143 H :    0.028378
 144 C :   -0.004798
 145 C :    0.061565
 146 C :    0.003908
 147 C :    0.056689
 148 N :    0.063967
 149 C :    0.069256
 150 H :    0.063812
 151 H :    0.067223
 152 H :    0.057673
 153 H :    0.049115

  Mayer bond orders larger than 0.100000
B(  0-Pd, 10-N ) :   0.5443 B(  0-Pd, 48-N ) :   0.5451 B(  0-Pd, 86-N ) :   0.5437
B(  0-Pd,124-N ) :   0.5462 B(  1-Pd, 34-N ) :   0.5445 B(  1-Pd, 72-N ) :   0.5441
B(  1-Pd,110-N ) :   0.5447 B(  1-Pd,148-N ) :   0.5439 B(  2-C ,  3-C ) :   2.5919
B(  2-C , 20-C ) :   0.9994 B(  3-C ,  4-C ) :   1.0162 B(  4-C ,  5-C ) :   1.4259
B(  4-C , 13-C ) :   1.2442 B(  5-C ,  6-C ) :   1.2666 B(  5-C , 14-H ) :   0.9923
B(  6-C ,  7-C ) :   1.4756 B(  6-C , 15-H ) :   0.9798 B(  7-C ,  8-C ) :   1.2371
B(  7-C , 16-H ) :   0.9955 B(  8-C ,  9-C ) :   1.2811 B(  8-C , 13-C ) :   1.2311
B(  9-C , 10-N ) :   1.4416 B(  9-C , 17-H ) :   0.9601 B( 10-N , 11-C ) :   1.1814
B( 11-C , 12-C ) :   1.5455 B( 11-C , 18-H ) :   0.9323 B( 12-C , 13-C ) :   1.2824
B( 12-C , 19-H ) :   0.9564 B( 20-C , 21-C ) :   1.3389 B( 20-C , 25-C ) :   1.3454
B( 21-C , 22-C ) :   1.3808 B( 21-C , 26-H ) :   0.9957 B( 22-C , 23-C ) :   1.3953
B( 22-C , 27-H ) :   0.9835 B( 23-C , 24-C ) :   1.3542 B( 23-C , 28-H ) :   0.9903
B( 24-C , 25-C ) :   1.3698 B( 24-C , 30-C ) :   0.9974 B( 25-C , 29-H ) :   0.9885
B( 30-C , 31-C ) :   1.3771 B( 30-C , 35-C ) :   1.3999 B( 31-C , 32-C ) :   1.3970
B( 31-C , 36-H ) :   0.9811 B( 32-C , 33-C ) :   1.4350 B( 32-C , 37-H ) :   0.9719
B( 33-C , 34-N ) :   1.3003 B( 33-C , 38-H ) :   0.9408 B( 34-N , 35-C ) :   1.3363
B( 35-C , 39-H ) :   0.9585 B( 40-C , 41-C ) :   2.5916 B( 40-C , 58-C ) :   0.9994
B( 41-C , 42-C ) :   1.0164 B( 42-C , 43-C ) :   1.4260 B( 42-C , 51-C ) :   1.2441
B( 43-C , 44-C ) :   1.2665 B( 43-C , 52-H ) :   0.9923 B( 44-C , 45-C ) :   1.4758
B( 44-C , 53-H ) :   0.9798 B( 45-C , 46-C ) :   1.2370 B( 45-C , 54-H ) :   0.9955
B( 46-C , 47-C ) :   1.2814 B( 46-C , 51-C ) :   1.2310 B( 47-C , 48-N ) :   1.4406
B( 47-C , 55-H ) :   0.9600 B( 48-N , 49-C ) :   1.1825 B( 49-C , 50-C ) :   1.5455
B( 49-C , 56-H ) :   0.9329 B( 50-C , 51-C ) :   1.2825 B( 50-C , 57-H ) :   0.9564
B( 58-C , 59-C ) :   1.3387 B( 58-C , 63-C ) :   1.3456 B( 59-C , 60-C ) :   1.3809
B( 59-C , 64-H ) :   0.9958 B( 60-C , 61-C ) :   1.3952 B( 60-C , 65-H ) :   0.9835
B( 61-C , 62-C ) :   1.3542 B( 61-C , 66-H ) :   0.9903 B( 62-C , 63-C ) :   1.3695
B( 62-C , 68-C ) :   0.9976 B( 63-C , 67-H ) :   0.9885 B( 68-C , 69-C ) :   1.3772
B( 68-C , 73-C ) :   1.3991 B( 69-C , 70-C ) :   1.3967 B( 69-C , 74-H ) :   0.9811
B( 70-C , 71-C ) :   1.4351 B( 70-C , 75-H ) :   0.9719 B( 71-C , 72-N ) :   1.2995
B( 71-C , 76-H ) :   0.9403 B( 72-N , 73-C ) :   1.3369 B( 73-C , 77-H ) :   0.9586
B( 78-C , 79-C ) :   2.5913 B( 78-C , 96-C ) :   0.9998 B( 79-C , 80-C ) :   1.0172
B( 80-C , 81-C ) :   1.4254 B( 80-C , 89-C ) :   1.2442 B( 81-C , 82-C ) :   1.2667
B( 81-C , 90-H ) :   0.9923 B( 82-C , 83-C ) :   1.4755 B( 82-C , 91-H ) :   0.9798
B( 83-C , 84-C ) :   1.2373 B( 83-C , 92-H ) :   0.9955 B( 84-C , 85-C ) :   1.2809
B( 84-C , 89-C ) :   1.2312 B( 85-C , 86-N ) :   1.4421 B( 85-C , 93-H ) :   0.9602
B( 86-N , 87-C ) :   1.1813 B( 87-C , 88-C ) :   1.5462 B( 87-C , 94-H ) :   0.9320
B( 88-C , 89-C ) :   1.2829 B( 88-C , 95-H ) :   0.9561 B( 96-C , 97-C ) :   1.3388
B( 96-C ,101-C ) :   1.3451 B( 97-C , 98-C ) :   1.3808 B( 97-C ,102-H ) :   0.9958
B( 98-C , 99-C ) :   1.3952 B( 98-C ,103-H ) :   0.9835 B( 99-C ,100-C ) :   1.3542
B( 99-C ,104-H ) :   0.9904 B(100-C ,101-C ) :   1.3703 B(100-C ,106-C ) :   0.9970
B(101-C ,105-H ) :   0.9885 B(106-C ,107-C ) :   1.3771 B(106-C ,111-C ) :   1.4004
B(107-C ,108-C ) :   1.3970 B(107-C ,112-H ) :   0.9811 B(108-C ,109-C ) :   1.4348
B(108-C ,113-H ) :   0.9718 B(109-C ,110-N ) :   1.3005 B(109-C ,114-H ) :   0.9407
B(110-N ,111-C ) :   1.3359 B(111-C ,115-H ) :   0.9585 B(116-C ,117-C ) :   2.5920
B(116-C ,134-C ) :   0.9991 B(117-C ,118-C ) :   1.0164 B(118-C ,119-C ) :   1.4261
B(118-C ,127-C ) :   1.2442 B(119-C ,120-C ) :   1.2662 B(119-C ,128-H ) :   0.9923
B(120-C ,121-C ) :   1.4760 B(120-C ,129-H ) :   0.9798 B(121-C ,122-C ) :   1.2369
B(121-C ,130-H ) :   0.9955 B(122-C ,123-C ) :   1.2814 B(122-C ,127-C ) :   1.2312
B(123-C ,124-N ) :   1.4403 B(123-C ,131-H ) :   0.9600 B(124-N ,125-C ) :   1.1821
B(125-C ,126-C ) :   1.5455 B(125-C ,132-H ) :   0.9332 B(126-C ,127-C ) :   1.2821
B(126-C ,133-H ) :   0.9566 B(134-C ,135-C ) :   1.3390 B(134-C ,139-C ) :   1.3456
B(135-C ,136-C ) :   1.3807 B(135-C ,140-H ) :   0.9957 B(136-C ,137-C ) :   1.3954
B(136-C ,141-H ) :   0.9835 B(137-C ,138-C ) :   1.3540 B(137-C ,142-H ) :   0.9902
B(138-C ,139-C ) :   1.3695 B(138-C ,144-C ) :   0.9977 B(139-C ,143-H ) :   0.9885
B(144-C ,145-C ) :   1.3772 B(144-C ,149-C ) :   1.3989 B(145-C ,146-C ) :   1.3968
B(145-C ,150-H ) :   0.9810 B(146-C ,147-C ) :   1.4353 B(146-C ,151-H ) :   0.9719
B(147-C ,148-N ) :   1.2993 B(147-C ,152-H ) :   0.9401 B(148-N ,149-C ) :   1.3373
B(149-C ,153-H ) :   0.9587

Dispersion correction           -0.250743183
FINAL SINGLE POINT ENERGY     -4072.765815969070

DIPOLE MOMENT
-------------
                                X             Y             Z
Electronic contribution:     -2.00638      12.92018      -2.02245
Nuclear contribution   :      2.14503     -15.21100       2.11863
                        -----------------------------------------
Total Dipole Moment    :      0.13866      -2.29083       0.09618
                        -----------------------------------------
Magnitude (a.u.)       :      2.29703
Magnitude (Debye)      :      5.83859

Rotational constants in cm-1:     0.000521     0.000431     0.000425
Rotational constants in MHz :    15.629405    12.912738    12.745904

                             ****ORCA TERMINATED NORMALLY****
TOTAL RUN TIME: 0 days 0 hours 15 minutes 10 seconds 544 msec
