                         Program Version 4.2.1 -  RELEASE  -
|  1> ! DFT SP RKS PBE0 def2-SVP D3BJ Grid6 NOFINALGRID SlowConv TightSCF printbasis
|  2>
|  3> %base "_s_5d3_b_PBE0"
|  4> %maxcore 3000
|  5> %scf
|  6>    MaxIter 2000
|  7> end
|  8> %pal
|  9>    nprocs 32
| 10> end
| 11>
| 12> * xyzfile 4 1 s_5d3_b.xyz
| 13>
| 14>                          ****END OF INPUT****

CARTESIAN COORDINATES (ANGSTROEM)
---------------------------------
  Pd     0.577700    5.593400    0.083800
  Pd     0.348800   -5.239400   -0.160600
  C      7.283400   -1.481500   -0.094000
  C      6.857200   -2.612600   -0.122300
  C      6.396900   -3.943400   -0.155400
  C      7.301500   -4.990800   -0.188300
  C      6.868000   -6.321100   -0.221200
  C      5.531500   -6.625700   -0.221600
  C      4.577300   -5.586400   -0.188600
  C      3.192800   -5.837600   -0.187500
  N      2.296100   -4.875400   -0.157300
  C      2.689100   -3.577000   -0.125300
  C      4.009900   -3.225900   -0.123200
  C      5.002300   -4.227300   -0.155100
  H      8.359200   -4.775100   -0.188500
  H      7.604100   -7.109800   -0.246300
  H      5.201000   -7.651900   -0.247000
  H      2.828300   -6.861700   -0.212600
  H      1.886500   -2.840700   -0.101400
  H      4.312600   -2.191400   -0.097600
  C      7.780900   -0.161500   -0.060500
  C      9.161700    0.064400   -0.058600
  C      9.650600    1.358300   -0.025400
  C      8.785000    2.437500    0.006200
  C      7.403800    2.219700    0.004300
  C      6.902500    0.919300   -0.029000
  H      9.841100   -0.774300   -0.083200
  H     10.717300    1.527000   -0.024000
  H      9.170600    3.445400    0.032100
  H      5.837000    0.752900   -0.030400
  C      6.508800    3.309000    0.035400
  C      5.721300    4.225300    0.061100
  C      4.793900    5.284000    0.089200
  C      5.201700    6.624200    0.125100
  C      4.239100    7.618200    0.150000
  C      2.898300    7.265200    0.138500
  N      2.514400    5.985600    0.104500
  C      3.422200    5.014400    0.080600
  H      6.252700    6.867600    0.132800
  H      4.524400    8.657400    0.177600
  H      2.107700    8.013600    0.156600
  H      3.055700    3.990800    0.053600
  C     -0.049900    2.163300    6.953200
  C     -0.060500    3.322300    6.609300
  C     -0.093400    4.648800    6.136700
  C     -0.373100    5.710900    6.977500
  C     -0.436700    7.020300    6.485900
  C     -0.235100    7.287700    5.156100
  C      0.057900    6.232300    4.266300
  C      0.256700    6.436000    2.886500
  N      0.537400    5.453600    2.058900
  C      0.663100    4.184000    2.524500
  C      0.472500    3.877600    3.840600
  C      0.146300    4.898900    4.756000
  H     -0.549100    5.525800    8.026400
  H     -0.656000    7.824200    7.171900
  H     -0.297300    8.297600    4.782800
  H      0.177900    7.434100    2.465100
  H      0.928600    3.426100    1.786500
  H      0.567600    2.865300    4.198900
  C     -0.038000    0.806000    7.339000
  C     -0.097900    0.452400    8.690600
  C     -0.084300   -0.882300    9.055900
  C     -0.010900   -1.874200    8.094300
  C      0.047100   -1.528500    6.739600
  C      0.032300   -0.187400    6.363200
  H     -0.152900    1.224000    9.443600
  H     -0.130400   -1.151100   10.100800
  H      0.000400   -2.913600    8.384900
  H      0.073900    0.079800    5.319000
  C      0.129400   -2.545500    5.765500
  C      0.207300   -3.416700    4.930900
  C      0.323100   -4.503900    4.043400
  C      0.519800   -5.798300    4.545400
  C      0.646200   -6.852900    3.659700
  C      0.574200   -6.601500    2.299500
  N      0.379400   -5.366700    1.822600
  C      0.255600   -4.337200    2.656500
  H      0.573400   -5.958100    5.610900
  H      0.800400   -7.857800    4.018200
  H      0.675000   -7.404000    1.568900
  H      0.098000   -3.359200    2.211100
  C     -6.429800    2.098100   -0.055700
  C     -6.023600    3.236400   -0.028100
  C     -5.519700    4.551100    0.004200
  C     -6.370100    5.642300    0.017400
  C     -5.866900    6.948500    0.049400
  C     -4.516700    7.185000    0.068700
  C     -3.615200    6.098800    0.056000
  C     -2.219000    6.274100    0.074100
  N     -1.376300    5.262100    0.062200
  C     -1.840200    3.989300    0.031800
  C     -3.177000    3.710700    0.012100
  C     -4.112300    4.764700    0.023600
  H     -7.437700    5.482500    0.002700
  H     -6.561400    7.774500    0.058900
  H     -4.135500    8.193400    0.093300
  H     -1.792400    7.275500    0.098800
  H     -1.085400    3.207600    0.024200
  H     -3.534900    2.694200   -0.012200
  C     -6.891400    0.765100   -0.087700
  C     -8.263100    0.492900   -0.109400
  C     -8.706700   -0.817500   -0.140500
  C     -7.804100   -1.866100   -0.150400
  C     -6.430500   -1.601800   -0.129000
  C     -5.975300   -0.285300   -0.097700
  H     -8.970700    1.308300   -0.101700
  H     -9.766900   -1.022900   -0.157200
  H     -8.155100   -2.886500   -0.174700
  H     -4.916200   -0.081800   -0.081000
  C     -5.509500   -2.669700   -0.139200
  C     -4.711200   -3.577400   -0.147600
  C     -3.835600   -4.679900   -0.159400
  C     -4.338100   -5.989100   -0.179300
  C     -3.451600   -7.050100   -0.191200
  C     -2.089800   -6.791900   -0.183500
  N     -1.613300   -5.544600   -0.164600
  C     -2.448500   -4.506800   -0.152400
  H     -5.404100   -6.154900   -0.185200
  H     -3.809300   -8.066800   -0.206500
  H     -1.361000   -7.598300   -0.192500
  H     -2.002000   -3.513900   -0.136800
  C      0.041300    2.472900   -6.940000
  C      0.031200    3.615700   -6.545400
  C     -0.002600    4.920100   -6.015100
  C     -0.263200    6.019900   -6.812600
  C     -0.328300    7.306700   -6.264500
  C     -0.147400    7.513900   -4.921100
  C      0.125600    6.418600   -4.074200
  C      0.302900    6.560000   -2.683700
  N      0.565300    5.540400   -1.896100
  C      0.692300    4.292000   -2.415300
  C      0.521600    4.045000   -3.746600
  C      0.215500    5.107600   -4.621000
  H     -0.422800    5.882300   -7.871300
  H     -0.532200    8.141300   -6.917700
  H     -0.210700    8.506600   -4.504500
  H      0.222200    7.538900   -2.219800
  H      0.941700    3.500700   -1.707400
  H      0.617500    3.049000   -4.147700
  C      0.051400    1.134100   -7.385900
  C      0.008600    0.841700   -8.752700
  C      0.019500   -0.475300   -9.177300
  C      0.073400   -1.509700   -8.260300
  C      0.114400   -1.225500   -6.890700
  C      0.102400    0.097600   -6.454700
  H     -0.031500    1.646700   -9.471100
  H     -0.013500   -0.696700  -10.233800
  H      0.082500   -2.535200   -8.597000
  H      0.130800    0.317500   -5.399200
  C      0.176900   -2.285700   -5.962400
  C      0.237900   -3.194300   -5.167300
  C      0.335100   -4.321300   -4.328500
  C      0.515500   -5.595000   -4.886500
  C      0.625100   -6.689100   -4.047900
  C      0.553000   -6.496800   -2.678000
  N      0.373300   -5.281800   -2.147700
  C      0.265500   -4.215000   -2.935700
  H      0.570100   -5.708500   -5.957900
  H      0.766700   -7.679300   -4.449900
  H      0.641200   -7.332000   -1.983300
  H      0.119600   -3.255500   -2.448100

 Total Charge           Charge          ....    4
 Multiplicity           Mult            ....    1
 Number of Electrons    NEL             ....  720
 Basis Dimension        Dim             .... 1798

ORBITAL ENERGIES
----------------

  NO   OCC          E(Eh)            E(eV)
   0   2.0000     -14.751814      -401.4173
   1   2.0000     -14.751778      -401.4163
   2   2.0000     -14.750575      -401.3836
   3   2.0000     -14.745575      -401.2475
   4   2.0000     -14.745383      -401.2423
   5   2.0000     -14.741275      -401.1305
   6   2.0000     -14.739937      -401.0941
   7   2.0000     -14.739873      -401.0923
   8   2.0000     -10.582632      -287.9681
   9   2.0000     -10.582590      -287.9669
  10   2.0000     -10.582547      -287.9657
  11   2.0000     -10.581655      -287.9415
  12   2.0000     -10.579848      -287.8923
  13   2.0000     -10.578423      -287.8535
  14   2.0000     -10.578392      -287.8527
  15   2.0000     -10.578128      -287.8455
  16   2.0000     -10.578057      -287.8436
  17   2.0000     -10.576966      -287.8139
  18   2.0000     -10.576852      -287.8108
  19   2.0000     -10.572159      -287.6831
  20   2.0000     -10.570638      -287.6417
  21   2.0000     -10.567205      -287.5483
  22   2.0000     -10.566356      -287.5252
  23   2.0000     -10.566269      -287.5228
  24   2.0000     -10.561232      -287.3857
  25   2.0000     -10.561169      -287.3840
  26   2.0000     -10.560112      -287.3553
  27   2.0000     -10.555626      -287.2332
  28   2.0000     -10.543418      -286.9010
  29   2.0000     -10.543374      -286.8998
  30   2.0000     -10.542319      -286.8711
  31   2.0000     -10.540235      -286.8144
  32   2.0000     -10.538133      -286.7572
  33   2.0000     -10.538105      -286.7564
  34   2.0000     -10.536983      -286.7259
  35   2.0000     -10.536944      -286.7248
  36   2.0000     -10.536921      -286.7242
  37   2.0000     -10.536201      -286.7046
  38   2.0000     -10.536105      -286.7020
  39   2.0000     -10.535643      -286.6894
  40   2.0000     -10.535346      -286.6813
  41   2.0000     -10.534975      -286.6713
  42   2.0000     -10.533156      -286.6217
  43   2.0000     -10.533063      -286.6192
  44   2.0000     -10.531944      -286.5888
  45   2.0000     -10.531554      -286.5782
  46   2.0000     -10.531077      -286.5652
  47   2.0000     -10.530474      -286.5488
  48   2.0000     -10.530380      -286.5462
  49   2.0000     -10.529592      -286.5248
  50   2.0000     -10.527836      -286.4770
  51   2.0000     -10.527744      -286.4745
  52   2.0000     -10.512596      -286.0623
  53   2.0000     -10.511400      -286.0297
  54   2.0000     -10.510315      -286.0002
  55   2.0000     -10.509827      -285.9869
  56   2.0000     -10.509720      -285.9840
  57   2.0000     -10.509704      -285.9836
  58   2.0000     -10.509415      -285.9757
  59   2.0000     -10.509336      -285.9736
  60   2.0000     -10.509231      -285.9707
  61   2.0000     -10.508910      -285.9620
  62   2.0000     -10.508848      -285.9603
  63   2.0000     -10.508151      -285.9413
  64   2.0000     -10.507572      -285.9256
  65   2.0000     -10.507520      -285.9242
  66   2.0000     -10.507413      -285.9212
  67   2.0000     -10.507258      -285.9170
  68   2.0000     -10.506903      -285.9074
  69   2.0000     -10.506784      -285.9041
  70   2.0000     -10.505906      -285.8802
  71   2.0000     -10.505075      -285.8576
  72   2.0000     -10.504438      -285.8403
  73   2.0000     -10.503974      -285.8277
  74   2.0000     -10.501996      -285.7738
  75   2.0000     -10.501909      -285.7715
  76   2.0000     -10.499023      -285.6929
  77   2.0000     -10.498947      -285.6909
  78   2.0000     -10.498421      -285.6766
  79   2.0000     -10.498072      -285.6671
  80   2.0000     -10.497916      -285.6628
  81   2.0000     -10.497800      -285.6597
  82   2.0000     -10.496328      -285.6196
  83   2.0000     -10.495116      -285.5866
  84   2.0000     -10.491528      -285.4890
  85   2.0000     -10.491007      -285.4748
  86   2.0000     -10.489721      -285.4398
  87   2.0000     -10.489601      -285.4366
  88   2.0000     -10.487483      -285.3789
  89   2.0000     -10.487476      -285.3787
  90   2.0000     -10.487366      -285.3757
  91   2.0000     -10.485802      -285.3332
  92   2.0000     -10.485797      -285.3330
  93   2.0000     -10.485722      -285.3310
  94   2.0000     -10.485413      -285.3226
  95   2.0000     -10.485349      -285.3209
  96   2.0000     -10.485228      -285.3176
  97   2.0000     -10.484709      -285.3034
  98   2.0000     -10.484592      -285.3003
  99   2.0000     -10.484336      -285.2933
 100   2.0000     -10.476165      -285.0709
 101   2.0000     -10.475969      -285.0656
 102   2.0000     -10.475864      -285.0628
 103   2.0000     -10.474415      -285.0233
 104   2.0000      -3.848973      -104.7359
 105   2.0000      -3.842340      -104.5554
 106   2.0000      -2.526324       -68.7448
 107   2.0000      -2.526200       -68.7414
 108   2.0000      -2.519820       -68.5678
 109   2.0000      -2.519549       -68.5604
 110   2.0000      -2.489711       -67.7485
 111   2.0000      -2.483161       -67.5702
 112   2.0000      -1.303421       -35.4679
 113   2.0000      -1.296907       -35.2906
 114   2.0000      -1.296598       -35.2822
 115   2.0000      -1.296019       -35.2665
 116   2.0000      -1.291867       -35.1535
 117   2.0000      -1.290343       -35.1120
 118   2.0000      -1.286443       -35.0059
 119   2.0000      -1.286379       -35.0041
 120   2.0000      -1.169961       -31.8363
 121   2.0000      -1.168498       -31.7964
 122   2.0000      -1.166877       -31.7523
 123   2.0000      -1.166297       -31.7366
 124   2.0000      -1.144099       -31.1325
 125   2.0000      -1.143835       -31.1253
 126   2.0000      -1.143715       -31.1221
 127   2.0000      -1.141951       -31.0741
 128   2.0000      -1.138300       -30.9747
 129   2.0000      -1.136473       -30.9250
 130   2.0000      -1.136039       -30.9132
 131   2.0000      -1.132361       -30.8131
 132   2.0000      -1.104369       -30.0514
 133   2.0000      -1.102523       -30.0012
 134   2.0000      -1.100665       -29.9506
 135   2.0000      -1.100379       -29.9428
 136   2.0000      -1.099803       -29.9271
 137   2.0000      -1.099344       -29.9147
 138   2.0000      -1.097792       -29.8724
 139   2.0000      -1.094175       -29.7740
 140   2.0000      -1.082387       -29.4533
 141   2.0000      -1.080994       -29.4153
 142   2.0000      -1.079364       -29.3710
 143   2.0000      -1.078264       -29.3411
 144   2.0000      -1.068539       -29.0764
 145   2.0000      -1.067765       -29.0554
 146   2.0000      -1.067677       -29.0530
 147   2.0000      -1.067154       -29.0387
 148   2.0000      -1.054314       -28.6894
 149   2.0000      -1.054098       -28.6835
 150   2.0000      -1.052656       -28.6442
 151   2.0000      -1.051953       -28.6251
 152   2.0000      -1.035717       -28.1833
 153   2.0000      -1.035130       -28.1673
 154   2.0000      -1.035005       -28.1639
 155   2.0000      -1.034278       -28.1441
 156   2.0000      -1.012559       -27.5531
 157   2.0000      -1.012149       -27.5420
 158   2.0000      -1.011055       -27.5122
 159   2.0000      -1.008522       -27.4433
 160   2.0000      -0.990846       -26.9623
 161   2.0000      -0.990694       -26.9582
 162   2.0000      -0.989805       -26.9340
 163   2.0000      -0.989620       -26.9289
 164   2.0000      -0.964403       -26.2427
 165   2.0000      -0.963329       -26.2135
 166   2.0000      -0.963244       -26.2112
 167   2.0000      -0.961936       -26.1756
 168   2.0000      -0.960206       -26.1285
 169   2.0000      -0.959403       -26.1067
 170   2.0000      -0.959047       -26.0970
 171   2.0000      -0.956859       -26.0375
 172   2.0000      -0.951178       -25.8829
 173   2.0000      -0.947695       -25.7881
 174   2.0000      -0.947278       -25.7767
 175   2.0000      -0.943941       -25.6859
 176   2.0000      -0.937219       -25.5030
 177   2.0000      -0.935851       -25.4658
 178   2.0000      -0.933728       -25.4080
 179   2.0000      -0.932254       -25.3679
 180   2.0000      -0.919465       -25.0199
 181   2.0000      -0.918650       -24.9977
 182   2.0000      -0.916926       -24.9508
 183   2.0000      -0.916824       -24.9481
 184   2.0000      -0.895406       -24.3652
 185   2.0000      -0.894164       -24.3314
 186   2.0000      -0.893642       -24.3172
 187   2.0000      -0.891953       -24.2713
 188   2.0000      -0.885294       -24.0901
 189   2.0000      -0.884153       -24.0590
 190   2.0000      -0.884012       -24.0552
 191   2.0000      -0.883604       -24.0441
 192   2.0000      -0.872685       -23.7470
 193   2.0000      -0.864865       -23.5342
 194   2.0000      -0.863333       -23.4925
 195   2.0000      -0.860066       -23.4036
 196   2.0000      -0.849839       -23.1253
 197   2.0000      -0.847277       -23.0556
 198   2.0000      -0.845251       -23.0005
 199   2.0000      -0.842850       -22.9351
 200   2.0000      -0.833618       -22.6839
 201   2.0000      -0.832719       -22.6594
 202   2.0000      -0.829119       -22.5615
 203   2.0000      -0.828782       -22.5523
 204   2.0000      -0.825993       -22.4764
 205   2.0000      -0.825256       -22.4564
 206   2.0000      -0.824022       -22.4228
 207   2.0000      -0.822313       -22.3763
 208   2.0000      -0.816633       -22.2217
 209   2.0000      -0.816282       -22.2122
 210   2.0000      -0.815166       -22.1818
 211   2.0000      -0.814208       -22.1557
 212   2.0000      -0.813431       -22.1346
 213   2.0000      -0.811566       -22.0838
 214   2.0000      -0.810161       -22.0456
 215   2.0000      -0.804775       -21.8990
 216   2.0000      -0.801867       -21.8199
 217   2.0000      -0.798841       -21.7376
 218   2.0000      -0.796967       -21.6866
 219   2.0000      -0.795145       -21.6370
 220   2.0000      -0.780369       -21.2349
 221   2.0000      -0.774817       -21.0838
 222   2.0000      -0.774055       -21.0631
 223   2.0000      -0.771781       -21.0012
 224   2.0000      -0.771156       -20.9842
 225   2.0000      -0.768178       -20.9032
 226   2.0000      -0.764922       -20.8146
 227   2.0000      -0.763445       -20.7744
 228   2.0000      -0.762691       -20.7539
 229   2.0000      -0.760789       -20.7021
 230   2.0000      -0.758352       -20.6358
 231   2.0000      -0.755837       -20.5674
 232   2.0000      -0.753667       -20.5083
 233   2.0000      -0.751620       -20.4526
 234   2.0000      -0.750287       -20.4163
 235   2.0000      -0.749056       -20.3828
 236   2.0000      -0.746754       -20.3202
 237   2.0000      -0.745771       -20.2935
 238   2.0000      -0.744570       -20.2608
 239   2.0000      -0.744348       -20.2547
 240   2.0000      -0.743420       -20.2295
 241   2.0000      -0.742927       -20.2161
 242   2.0000      -0.740751       -20.1568
 243   2.0000      -0.740410       -20.1476
 244   2.0000      -0.738934       -20.1074
 245   2.0000      -0.737866       -20.0783
 246   2.0000      -0.737022       -20.0554
 247   2.0000      -0.736842       -20.0505
 248   2.0000      -0.736720       -20.0472
 249   2.0000      -0.735523       -20.0146
 250   2.0000      -0.734257       -19.9801
 251   2.0000      -0.734197       -19.9785
 252   2.0000      -0.734105       -19.9760
 253   2.0000      -0.729925       -19.8623
 254   2.0000      -0.727508       -19.7965
 255   2.0000      -0.726333       -19.7645
 256   2.0000      -0.725308       -19.7366
 257   2.0000      -0.724438       -19.7130
 258   2.0000      -0.721661       -19.6374
 259   2.0000      -0.721467       -19.6321
 260   2.0000      -0.717209       -19.5162
 261   2.0000      -0.716943       -19.5090
 262   2.0000      -0.716535       -19.4979
 263   2.0000      -0.715533       -19.4707
 264   2.0000      -0.705839       -19.2069
 265   2.0000      -0.699982       -19.0475
 266   2.0000      -0.696546       -18.9540
 267   2.0000      -0.694288       -18.8925
 268   2.0000      -0.691870       -18.8267
 269   2.0000      -0.690499       -18.7894
 270   2.0000      -0.688578       -18.7372
 271   2.0000      -0.688024       -18.7221
 272   2.0000      -0.687680       -18.7127
 273   2.0000      -0.687409       -18.7053
 274   2.0000      -0.687055       -18.6957
 275   2.0000      -0.685817       -18.6620
 276   2.0000      -0.683774       -18.6064
 277   2.0000      -0.683477       -18.5984
 278   2.0000      -0.681080       -18.5331
 279   2.0000      -0.680940       -18.5293
 280   2.0000      -0.678006       -18.4495
 281   2.0000      -0.675621       -18.3846
 282   2.0000      -0.667960       -18.1761
 283   2.0000      -0.665722       -18.1152
 284   2.0000      -0.663127       -18.0446
 285   2.0000      -0.660169       -17.9641
 286   2.0000      -0.659392       -17.9430
 287   2.0000      -0.656280       -17.8583
 288   2.0000      -0.656007       -17.8509
 289   2.0000      -0.652231       -17.7481
 290   2.0000      -0.651765       -17.7354
 291   2.0000      -0.648801       -17.6548
 292   2.0000      -0.639468       -17.4008
 293   2.0000      -0.639411       -17.3993
 294   2.0000      -0.638003       -17.3609
 295   2.0000      -0.637786       -17.3550
 296   2.0000      -0.636719       -17.3260
 297   2.0000      -0.635841       -17.3021
 298   2.0000      -0.635102       -17.2820
 299   2.0000      -0.633901       -17.2493
 300   2.0000      -0.627674       -17.0799
 301   2.0000      -0.623766       -16.9735
 302   2.0000      -0.623053       -16.9541
 303   2.0000      -0.622782       -16.9468
 304   2.0000      -0.622665       -16.9436
 305   2.0000      -0.621240       -16.9048
 306   2.0000      -0.620850       -16.8942
 307   2.0000      -0.620202       -16.8766
 308   2.0000      -0.617464       -16.8021
 309   2.0000      -0.617065       -16.7912
 310   2.0000      -0.616923       -16.7873
 311   2.0000      -0.616743       -16.7824
 312   2.0000      -0.615800       -16.7568
 313   2.0000      -0.614709       -16.7271
 314   2.0000      -0.614272       -16.7152
 315   2.0000      -0.613967       -16.7069
 316   2.0000      -0.611620       -16.6430
 317   2.0000      -0.610053       -16.6004
 318   2.0000      -0.607024       -16.5180
 319   2.0000      -0.605639       -16.4803
 320   2.0000      -0.604610       -16.4523
 321   2.0000      -0.604049       -16.4370
 322   2.0000      -0.595013       -16.1911
 323   2.0000      -0.592556       -16.1243
 324   2.0000      -0.590912       -16.0795
 325   2.0000      -0.586342       -15.9552
 326   2.0000      -0.583783       -15.8856
 327   2.0000      -0.581648       -15.8274
 328   2.0000      -0.580844       -15.8056
 329   2.0000      -0.579059       -15.7570
 330   2.0000      -0.570192       -15.5157
 331   2.0000      -0.563081       -15.3222
 332   2.0000      -0.562749       -15.3132
 333   2.0000      -0.561380       -15.2759
 334   2.0000      -0.560440       -15.2504
 335   2.0000      -0.557430       -15.1684
 336   2.0000      -0.553739       -15.0680
 337   2.0000      -0.552891       -15.0449
 338   2.0000      -0.552388       -15.0312
 339   2.0000      -0.550765       -14.9871
 340   2.0000      -0.549941       -14.9646
 341   2.0000      -0.549161       -14.9434
 342   2.0000      -0.548429       -14.9235
 343   2.0000      -0.546430       -14.8691
 344   2.0000      -0.539324       -14.6757
 345   2.0000      -0.539206       -14.6725
 346   2.0000      -0.538888       -14.6639
 347   2.0000      -0.538805       -14.6616
 348   2.0000      -0.529020       -14.3954
 349   2.0000      -0.528579       -14.3834
 350   2.0000      -0.526729       -14.3330
 351   2.0000      -0.525899       -14.3105
 352   2.0000      -0.498581       -13.5671
 353   2.0000      -0.497802       -13.5459
 354   2.0000      -0.496805       -13.5188
 355   2.0000      -0.495156       -13.4739
 356   2.0000      -0.477193       -12.9851
 357   2.0000      -0.476478       -12.9656
 358   2.0000      -0.476232       -12.9589
 359   2.0000      -0.475584       -12.9413
 360   0.0000      -0.346426        -9.4267
 361   0.0000      -0.345792        -9.4095
 362   0.0000      -0.343252        -9.3404
 363   0.0000      -0.339808        -9.2466
 364   0.0000      -0.339710        -9.2440

MULLIKEN ATOMIC CHARGES
-----------------------
   0 Pd:    0.393540
   1 Pd:    0.394953
   2 C :    0.036785
   3 C :   -0.077565
   4 C :   -0.010321
   5 C :    0.039007
   6 C :    0.021937
   7 C :    0.014297
   8 C :   -0.050703
   9 C :    0.160976
  10 N :   -0.309367
  11 C :    0.128178
  12 C :    0.008175
  13 C :    0.066118
  14 H :    0.061015
  15 H :    0.075089
  16 H :    0.041462
  17 H :    0.053527
  18 H :    0.053109
  19 H :    0.037351
  20 C :   -0.052004
  21 C :    0.045516
  22 C :    0.005765
  23 C :    0.043783
  24 C :   -0.060442
  25 C :    0.027411
  26 H :    0.049304
  27 H :    0.066499
  28 H :    0.046895
  29 H :   -0.006088
  30 C :    0.049625
  31 C :   -0.035547
  32 C :   -0.105355
  33 C :    0.113381
  34 C :   -0.021537
  35 C :    0.125095
  36 N :   -0.293805
  37 C :    0.169342
  38 H :    0.077791
  39 H :    0.083335
  40 H :    0.086241
  41 H :    0.047070
  42 C :    0.029193
  43 C :   -0.065239
  44 C :   -0.009265
  45 C :    0.040633
  46 C :    0.019754
  47 C :    0.016535
  48 C :   -0.053291
  49 C :    0.160363
  50 N :   -0.310480
  51 C :    0.132042
  52 C :    0.009934
  53 C :    0.060047
  54 H :    0.060987
  55 H :    0.074458
  56 H :    0.041490
  57 H :    0.056970
  58 H :    0.050044
  59 H :    0.034908
  60 C :   -0.051713
  61 C :    0.048286
  62 C :    0.005954
  63 C :    0.039695
  64 C :   -0.059038
  65 C :    0.025992
  66 H :    0.051911
  67 H :    0.066413
  68 H :    0.043464
  69 H :   -0.004179
  70 C :    0.056824
  71 C :   -0.047787
  72 C :   -0.102730
  73 C :    0.107402
  74 C :   -0.017665
  75 C :    0.122116
  76 N :   -0.299976
  77 C :    0.171969
  78 H :    0.077816
  79 H :    0.083284
  80 H :    0.082138
  81 H :    0.050678
  82 C :    0.030925
  83 C :   -0.068487
  84 C :   -0.009018
  85 C :    0.038953
  86 C :    0.020004
  87 C :    0.013142
  88 C :   -0.045084
  89 C :    0.151616
  90 N :   -0.310100
  91 C :    0.146631
  92 C :    0.004483
  93 C :    0.061552
  94 H :    0.060658
  95 H :    0.073886
  96 H :    0.039604
  97 H :    0.062943
  98 H :    0.039262
  99 H :    0.033988
 100 C :   -0.051310
 101 C :    0.047199
 102 C :    0.005717
 103 C :    0.041364
 104 C :   -0.059443
 105 C :    0.025845
 106 H :    0.050855
 107 H :    0.066578
 108 H :    0.044898
 109 H :   -0.004398
 110 C :    0.053557
 111 C :   -0.044495
 112 C :   -0.099517
 113 C :    0.109626
 114 C :   -0.020963
 115 C :    0.129747
 116 N :   -0.298259
 117 C :    0.162802
 118 H :    0.078312
 119 H :    0.084801
 120 H :    0.073991
 121 H :    0.058891
 122 C :    0.029249
 123 C :   -0.065309
 124 C :   -0.009347
 125 C :    0.040704
 126 C :    0.019793
 127 C :    0.016554
 128 C :   -0.053170
 129 C :    0.160213
 130 N :   -0.310632
 131 C :    0.132157
 132 C :    0.009945
 133 C :    0.060008
 134 H :    0.060940
 135 H :    0.074433
 136 H :    0.041473
 137 H :    0.057103
 138 H :    0.049834
 139 H :    0.034805
 140 C :   -0.051746
 141 C :    0.048182
 142 C :    0.005938
 143 C :    0.039666
 144 C :   -0.059122
 145 C :    0.026112
 146 H :    0.051992
 147 H :    0.066439
 148 H :    0.043506
 149 H :   -0.004220
 150 C :    0.056671
 151 C :   -0.047606
 152 C :   -0.102648
 153 C :    0.107351
 154 C :   -0.017708
 155 C :    0.122155
 156 N :   -0.300055
 157 C :    0.171928
 158 H :    0.077793
 159 H :    0.083279
 160 H :    0.082181
 161 H :    0.050622
Sum of atomic charges:    4.0000000

LOEWDIN ATOMIC CHARGES
----------------------
   0 Pd:   -0.355451
   1 Pd:   -0.349437
   2 C :    0.010672
   3 C :   -0.044307
   4 C :   -0.028068
   5 C :    0.051022
   6 C :    0.021037
   7 C :    0.006252
   8 C :   -0.028017
   9 C :    0.094617
  10 N :    0.061047
  11 C :    0.030959
  12 C :    0.011063
  13 C :    0.017641
  14 H :    0.060869
  15 H :    0.061009
  16 H :    0.048582
  17 H :    0.052848
  18 H :    0.047483
  19 H :    0.052511
  20 C :   -0.051748
  21 C :    0.036039
  22 C :    0.003885
  23 C :    0.032092
  24 C :   -0.058133
  25 C :    0.021070
  26 H :    0.053097
  27 H :    0.056567
  28 H :    0.051894
  29 H :    0.032851
  30 C :    0.038817
  31 C :   -0.062051
  32 C :   -0.029495
  33 C :    0.069032
  34 C :    0.004362
  35 C :    0.062620
  36 N :    0.074907
  37 C :    0.077833
  38 H :    0.066182
  39 H :    0.066449
  40 H :    0.057211
  41 H :    0.050288
  42 C :    0.005994
  43 C :   -0.037570
  44 C :   -0.029004
  45 C :    0.049897
  46 C :    0.020084
  47 C :    0.007319
  48 C :   -0.028878
  49 C :    0.096315
  50 N :    0.061131
  51 C :    0.032081
  52 C :    0.010648
  53 C :    0.018728
  54 H :    0.060872
  55 H :    0.060579
  56 H :    0.048759
  57 H :    0.053670
  58 H :    0.047111
  59 H :    0.052195
  60 C :   -0.049637
  61 C :    0.037732
  62 C :    0.003838
  63 C :    0.029974
  64 C :   -0.059698
  65 C :    0.020520
  66 H :    0.054385
  67 H :    0.056536
  68 H :    0.050167
  69 H :    0.033162
  70 C :    0.042353
  71 C :   -0.067310
  72 C :   -0.029075
  73 C :    0.070714
  74 C :    0.003966
  75 C :    0.059753
  76 N :    0.072288
  77 C :    0.077075
  78 H :    0.066025
  79 H :    0.066761
  80 H :    0.056117
  81 H :    0.051275
  82 C :    0.007499
  83 C :   -0.039733
  84 C :   -0.028959
  85 C :    0.049391
  86 C :    0.019423
  87 C :    0.005336
  88 C :   -0.028937
  89 C :    0.093824
  90 N :    0.062165
  91 C :    0.034630
  92 C :    0.009574
  93 C :    0.018615
  94 H :    0.060700
  95 H :    0.060336
  96 H :    0.047922
  97 H :    0.055410
  98 H :    0.043553
  99 H :    0.051709
 100 C :   -0.050373
 101 C :    0.037039
 102 C :    0.003814
 103 C :    0.030891
 104 C :   -0.059242
 105 C :    0.020930
 106 H :    0.053878
 107 H :    0.056599
 108 H :    0.050882
 109 H :    0.033153
 110 C :    0.041315
 111 C :   -0.065685
 112 C :   -0.029237
 113 C :    0.070722
 114 C :    0.005035
 115 C :    0.061330
 116 N :    0.071315
 117 C :    0.075422
 118 H :    0.066325
 119 H :    0.067186
 120 H :    0.053413
 121 H :    0.053471
 122 C :    0.005964
 123 C :   -0.037561
 124 C :   -0.029038
 125 C :    0.049939
 126 C :    0.020094
 127 C :    0.007315
 128 C :   -0.028874
 129 C :    0.096293
 130 N :    0.061086
 131 C :    0.032054
 132 C :    0.010631
 133 C :    0.018719
 134 H :    0.060843
 135 H :    0.060561
 136 H :    0.048757
 137 H :    0.053700
 138 H :    0.047044
 139 H :    0.052158
 140 C :   -0.049646
 141 C :    0.037702
 142 C :    0.003794
 143 C :    0.029980
 144 C :   -0.059686
 145 C :    0.020546
 146 H :    0.054423
 147 H :    0.056556
 148 H :    0.050183
 149 H :    0.033137
 150 C :    0.042278
 151 C :   -0.067252
 152 C :   -0.029060
 153 C :    0.070642
 154 C :    0.003930
 155 C :    0.059763
 156 N :    0.072228
 157 C :    0.077036
 158 H :    0.066016
 159 H :    0.066761
 160 H :    0.056139
 161 H :    0.051247

  Mayer bond orders larger than 0.100000
B(  0-Pd, 36-N ) :   0.5457 B(  0-Pd, 50-N ) :   0.5469 B(  0-Pd, 90-N ) :   0.5457
B(  0-Pd,130-N ) :   0.5464 B(  1-Pd, 10-N ) :   0.5522 B(  1-Pd, 76-N ) :   0.5405
B(  1-Pd,116-N ) :   0.5418 B(  1-Pd,156-N ) :   0.5403 B(  2-C ,  3-C ) :   2.5998
B(  2-C , 20-C ) :   0.9972 B(  3-C ,  4-C ) :   1.0006 B(  4-C ,  5-C ) :   1.4352
B(  4-C , 13-C ) :   1.2325 B(  5-C ,  6-C ) :   1.2716 B(  5-C , 14-H ) :   0.9913
B(  6-C ,  7-C ) :   1.4685 B(  6-C , 15-H ) :   0.9813 B(  7-C ,  8-C ) :   1.2388
B(  7-C , 16-H ) :   0.9960 B(  8-C ,  9-C ) :   1.2983 B(  8-C , 13-C ) :   1.2173
B(  9-C , 10-N ) :   1.4195 B(  9-C , 17-H ) :   0.9545 B( 10-N , 11-C ) :   1.1972
B( 11-C , 12-C ) :   1.5306 B( 11-C , 18-H ) :   0.9495 B( 12-C , 13-C ) :   1.2948
B( 12-C , 19-H ) :   0.9564 B( 20-C , 21-C ) :   1.3245 B( 20-C , 25-C ) :   1.3373
B( 21-C , 22-C ) :   1.3851 B( 21-C , 26-H ) :   0.9954 B( 22-C , 23-C ) :   1.3846
B( 22-C , 27-H ) :   0.9838 B( 23-C , 24-C ) :   1.3198 B( 23-C , 28-H ) :   0.9964
B( 24-C , 25-C ) :   1.3289 B( 24-C , 30-C ) :   1.0076 B( 25-C , 29-H ) :   0.9974
B( 30-C , 31-C ) :   2.5941 B( 31-C , 32-C ) :   1.0227 B( 32-C , 33-C ) :   1.3408
B( 32-C , 37-C ) :   1.3671 B( 33-C , 34-C ) :   1.4034 B( 33-C , 38-H ) :   0.9865
B( 34-C , 35-C ) :   1.4199 B( 34-C , 39-H ) :   0.9722 B( 35-C , 36-N ) :   1.3095
B( 35-C , 40-H ) :   0.9529 B( 36-N , 37-C ) :   1.3379 B( 37-C , 41-H ) :   0.9625
B( 42-C , 43-C ) :   2.5962 B( 42-C , 60-C ) :   0.9982 B( 43-C , 44-C ) :   1.0033
B( 44-C , 45-C ) :   1.4311 B( 44-C , 53-C ) :   1.2367 B( 45-C , 46-C ) :   1.2702
B( 45-C , 54-H ) :   0.9919 B( 46-C , 47-C ) :   1.4708 B( 46-C , 55-H ) :   0.9808
B( 47-C , 48-C ) :   1.2393 B( 47-C , 56-H ) :   0.9957 B( 48-C , 49-C ) :   1.2883
B( 48-C , 53-C ) :   1.2240 B( 49-C , 50-N ) :   1.4328 B( 49-C , 57-H ) :   0.9592
B( 50-N , 51-C ) :   1.1884 B( 51-C , 52-C ) :   1.5370 B( 51-C , 58-H ) :   0.9451
B( 52-C , 53-C ) :   1.2924 B( 52-C , 59-H ) :   0.9556 B( 60-C , 61-C ) :   1.3260
B( 60-C , 65-C ) :   1.3374 B( 61-C , 62-C ) :   1.3819 B( 61-C , 66-H ) :   0.9957
B( 62-C , 63-C ) :   1.3884 B( 62-C , 67-H ) :   0.9839 B( 63-C , 64-C ) :   1.3183
B( 63-C , 68-H ) :   0.9960 B( 64-C , 65-C ) :   1.3290 B( 64-C , 70-C ) :   1.0099
B( 65-C , 69-H ) :   0.9974 B( 70-C , 71-C ) :   2.5935 B( 71-C , 72-C ) :   1.0272
B( 72-C , 73-C ) :   1.3465 B( 72-C , 77-C ) :   1.3546 B( 73-C , 74-C ) :   1.4049
B( 73-C , 78-H ) :   0.9859 B( 74-C , 75-C ) :   1.4240 B( 74-C , 79-H ) :   0.9721
B( 75-C , 76-N ) :   1.3012 B( 75-C , 80-H ) :   0.9491 B( 76-N , 77-C ) :   1.3452
B( 77-C , 81-H ) :   0.9660 B( 82-C , 83-C ) :   2.5966 B( 82-C ,100-C ) :   0.9980
B( 83-C , 84-C ) :   1.0012 B( 84-C , 85-C ) :   1.4341 B( 84-C , 93-C ) :   1.2330
B( 85-C , 86-C ) :   1.2692 B( 85-C , 94-H ) :   0.9918 B( 86-C , 87-C ) :   1.4718
B( 86-C , 95-H ) :   0.9810 B( 87-C , 88-C ) :   1.2368 B( 87-C , 96-H ) :   0.9962
B( 88-C , 89-C ) :   1.2936 B( 88-C , 93-C ) :   1.2209 B( 89-C , 90-N ) :   1.4175
B( 89-C , 97-H ) :   0.9557 B( 90-N , 91-C ) :   1.2050 B( 91-C , 92-C ) :   1.5313
B( 91-C , 98-H ) :   0.9480 B( 92-C , 93-C ) :   1.2960 B( 92-C , 99-H ) :   0.9565
B(100-C ,101-C ) :   1.3253 B(100-C ,105-C ) :   1.3373 B(101-C ,102-C ) :   1.3830
B(101-C ,106-H ) :   0.9956 B(102-C ,103-C ) :   1.3871 B(102-C ,107-H ) :   0.9838
B(103-C ,104-C ) :   1.3183 B(103-C ,108-H ) :   0.9962 B(104-C ,105-C ) :   1.3290
B(104-C ,110-C ) :   1.0093 B(105-C ,109-H ) :   0.9976 B(110-C ,111-C ) :   2.5940
B(111-C ,112-C ) :   1.0246 B(112-C ,113-C ) :   1.3418 B(112-C ,117-C ) :   1.3613
B(113-C ,114-C ) :   1.4078 B(113-C ,118-H ) :   0.9861 B(114-C ,115-C ) :   1.4195
B(114-C ,119-H ) :   0.9724 B(115-C ,116-N ) :   1.3131 B(115-C ,120-H ) :   0.9545
B(116-N ,117-C ) :   1.3318 B(117-C ,121-H ) :   0.9619 B(122-C ,123-C ) :   2.5961
B(122-C ,140-C ) :   0.9982 B(123-C ,124-C ) :   1.0034 B(124-C ,125-C ) :   1.4310
B(124-C ,133-C ) :   1.2367 B(125-C ,126-C ) :   1.2702 B(125-C ,134-H ) :   0.9919
B(126-C ,127-C ) :   1.4708 B(126-C ,135-H ) :   0.9808 B(127-C ,128-C ) :   1.2393
B(127-C ,136-H ) :   0.9957 B(128-C ,129-C ) :   1.2883 B(128-C ,133-C ) :   1.2239
B(129-C ,130-N ) :   1.4328 B(129-C ,137-H ) :   0.9592 B(130-N ,131-C ) :   1.1886
B(131-C ,132-C ) :   1.5369 B(131-C ,138-H ) :   0.9451 B(132-C ,133-C ) :   1.2925
B(132-C ,139-H ) :   0.9557 B(140-C ,141-C ) :   1.3260 B(140-C ,145-C ) :   1.3374
B(141-C ,142-C ) :   1.3820 B(141-C ,146-H ) :   0.9956 B(142-C ,143-C ) :   1.3884
B(142-C ,147-H ) :   0.9839 B(143-C ,144-C ) :   1.3183 B(143-C ,148-H ) :   0.9960
B(144-C ,145-C ) :   1.3288 B(144-C ,150-C ) :   1.0101 B(145-C ,149-H ) :   0.9974
B(150-C ,151-C ) :   2.5934 B(151-C ,152-C ) :   1.0272 B(152-C ,153-C ) :   1.3464
B(152-C ,157-C ) :   1.3547 B(153-C ,154-C ) :   1.4051 B(153-C ,158-H ) :   0.9859
B(154-C ,155-C ) :   1.4238 B(154-C ,159-H ) :   0.9721 B(155-C ,156-N ) :   1.3015
B(155-C ,160-H ) :   0.9491 B(156-N ,157-C ) :   1.3451 B(157-C ,161-H ) :   0.9660

Dispersion correction           -0.249172535
FINAL SINGLE POINT ENERGY     -4376.841760182503

DIPOLE MOMENT
-------------
                                X             Y             Z
Electronic contribution:     17.74486     -43.08995       0.52962
Nuclear contribution   :    -17.75861      41.66040      -0.56370
                        -----------------------------------------
Total Dipole Moment    :     -0.01376      -1.42955      -0.03408
                        -----------------------------------------
Magnitude (a.u.)       :      1.43003
Magnitude (Debye)      :      3.63484

Rotational constants in cm-1:     0.000410     0.000304     0.000303
Rotational constants in MHz :    12.298352     9.106254     9.074545

                             ****ORCA TERMINATED NORMALLY****
TOTAL RUN TIME: 0 days 0 hours 14 minutes 32 seconds 630 msec
