                         Program Version 4.2.1 -  RELEASE  -
|  1> ! DFT SP B97-3c TightSCF printbasis  Grid6 NOFINALGRID SlowConv
|  2>
|  3> %base "_s_5d1_d_B97-3c"
|  4> %maxcore 3000
|  5> %scf
|  6>    MaxIter 2000
|  7> end
|  8> %pal
|  9>    nprocs 32
| 10> end
| 11>
| 12> * xyzfile 4 1 s_5d1_d.xyz
| 13>
| 14>                          ****END OF INPUT****

CARTESIAN COORDINATES (ANGSTROEM)
---------------------------------
  Pd    -0.438900    3.615500   -0.634800
  Pd    -0.570600   -5.439400   -0.722900
  C      5.734300   -1.292000   -0.728900
  C      5.615800   -2.472900   -0.960100
  C      5.342900   -3.837600   -1.185400
  C      6.334300   -4.748300   -1.499800
  C      6.028100   -6.099800   -1.703400
  C      4.740800   -6.561400   -1.593500
  C      3.701100   -5.664200   -1.270500
  C      2.357200   -6.070800   -1.137900
  N      1.393700   -5.233000   -0.834300
  C      1.667300   -3.914400   -0.635000
  C      2.934900   -3.421300   -0.739200
  C      3.998400   -4.288200   -1.065200
  H      7.356700   -4.413900   -1.590400
  H      6.826700   -6.783000   -1.948800
  H      4.515800   -7.604400   -1.749900
  H      2.085100   -7.108900   -1.290400
  H      0.821500   -3.268800   -0.372900
  H      3.146400   -2.377200   -0.572300
  C      5.865900    0.073900   -0.395600
  C      7.016600    0.526500    0.254000
  C      7.109600    1.852400    0.633200
  C      6.076700    2.733500    0.364400
  C      4.927500    2.298600   -0.300500
  C      4.826100    0.962700   -0.675000
  H      7.821000   -0.161900    0.463100
  H      7.993300    2.203200    1.144500
  H      6.158200    3.757300    0.694900
  H      3.964600    0.609600   -1.219800
  C      3.854000    3.262400   -0.592300
  C      4.160400    4.579400   -0.946500
  C      3.139500    5.488700   -1.167800
  C      1.828000    5.065200   -1.048100
  N      1.532200    3.797200   -0.740400
  C      2.503900    2.917400   -0.512100
  H      5.189200    4.883900   -1.057500
  H      3.361000    6.510300   -1.431300
  H      0.993700    5.753500   -1.208400
  H      2.190300    1.917400   -0.234900
  C     -0.613400   -0.677200    5.570400
  C     -0.383300    0.507000    5.488100
  C     -0.153800    1.878300    5.254900
  C      0.110900    2.769000    6.278500
  C      0.319600    4.127800    6.010500
  C      0.263500    4.616600    4.729800
  C     -0.008200    3.740700    3.657800
  C     -0.088000    4.176300    2.318800
  N     -0.345100    3.358200    1.325400
  C     -0.544000    2.032200    1.561400
  C     -0.489500    1.511900    2.821100
  C     -0.217000    2.357400    3.916300
  H      0.158200    2.413000    7.296500
  H      0.525500    4.794800    6.833600
  H      0.422900    5.665100    4.534400
  H      0.067400    5.221200    2.076400
  H     -0.762000    1.402800    0.691100
  H     -0.656500    0.462100    3.002400
  C     -0.943300   -2.047400    5.658100
  C     -1.621800   -2.532600    6.778500
  C     -1.994500   -3.862700    6.828100
  C     -1.690900   -4.716200    5.781700
  C     -0.997600   -4.248500    4.662600
  C     -0.629700   -2.908300    4.604700
  H     -1.857700   -1.865800    7.593700
  H     -2.527600   -4.238500    7.688200
  H     -2.015800   -5.743900    5.828700
  H     -0.063800   -2.530800    3.767400
  C     -0.670500   -5.183300    3.573800
  C     -0.312000   -6.504400    3.856900
  C     -0.058200   -7.386800    2.820100
  C     -0.152500   -6.933200    1.516500
  N     -0.464900   -5.661300    1.243900
  C     -0.722300   -4.806700    2.230900
  H     -0.223000   -6.832700    4.880600
  H      0.209600   -8.411100    3.023100
  H      0.033200   -7.599600    0.670000
  H     -0.999900   -3.801300    1.935000
  C     -6.754900   -1.120900   -0.687700
  C     -6.674500   -2.308800   -0.477100
  C     -6.442300   -3.684600   -0.275000
  C     -7.461800   -4.573800    0.009800
  C     -7.194800   -5.936900    0.189900
  C     -5.919400   -6.431400    0.085300
  C     -4.851800   -5.557000   -0.207900
  C     -3.518100   -5.997700   -0.334700
  N     -2.528900   -5.180600   -0.610400
  C     -2.764000   -3.851100   -0.784600
  C     -4.018700   -3.325600   -0.684300
  C     -5.109200   -4.169500   -0.388500
  H     -8.475800   -4.213300    0.095100
  H     -8.014600   -6.602600    0.412500
  H     -5.724700   -7.483100    0.223200
  H     -3.276100   -7.045700   -0.201300
  H     -1.897600   -3.223500   -1.022700
  H     -4.199600   -2.272800   -0.831600
  C     -6.841400    0.254200   -0.997100
  C     -7.968800    0.752700   -1.653900
  C     -8.017200    2.087500   -2.009700
  C     -6.962600    2.932300   -1.710200
  C     -5.836400    2.451200   -1.037800
  C     -5.779700    1.106300   -0.687200
  H     -8.790200    0.092500   -1.886700
  H     -8.882600    2.473800   -2.526500
  H     -7.009000    3.964000   -2.022400
  H     -4.936700    0.717900   -0.137500
  C     -4.739600    3.377400   -0.713300
  C     -5.013200    4.695400   -0.336700
  C     -3.970100    5.571000   -0.085100
  C     -2.669600    5.113100   -0.198700
  N     -2.405700    3.843500   -0.528100
  C     -3.398900    2.995900   -0.784300
  H     -6.034400    5.026700   -0.232000
  H     -4.165900    6.593100    0.196300
  H     -1.818300    5.774300   -0.015500
  H     -3.109700    1.992800   -1.076400
  C     -0.498900   -0.557200   -6.921300
  C     -0.697200    0.630500   -6.811900
  C     -0.886600    2.002400   -6.547700
  C     -1.161600    2.917600   -7.546800
  C     -1.329900    4.275700   -7.248500
  C     -1.223500    4.739500   -5.961700
  C     -0.940100    3.837900   -4.914200
  C     -0.812600    4.246400   -3.570400
  N     -0.545600    3.404400   -2.599800
  C     -0.381400    2.079300   -2.865900
  C     -0.483800    1.583900   -4.132600
  C     -0.770900    2.455300   -5.203600
  H     -1.248500    2.581600   -8.568900
  H     -1.545100    4.962200   -8.052900
  H     -1.352600    5.787500   -5.742900
  H     -0.937900    5.289600   -3.304400
  H     -0.149500    1.429600   -2.014400
  H     -0.344700    0.534400   -4.337700
  C     -0.203800   -1.932800   -7.042800
  C      0.441600   -2.410200   -8.185800
  C      0.783200   -3.746900   -8.269000
  C      0.480700   -4.614400   -7.233800
  C     -0.180500   -4.154300   -6.092300
  C     -0.516900   -2.807600   -6.000700
  H      0.676800   -1.732400   -8.992100
  H      1.291000   -4.117100   -9.146700
  H      0.781900   -5.647700   -7.307400
  H     -1.058000   -2.434500   -5.145400
  C     -0.508100   -5.103800   -5.016400
  C     -0.898200   -6.411500   -5.319100
  C     -1.152400   -7.309300   -4.295700
  C     -1.028200   -6.883600   -2.985300
  N     -0.686000   -5.623700   -2.693300
  C     -0.426900   -4.755000   -3.667400
  H     -1.011300   -6.717400   -6.347200
  H     -1.444100   -8.323800   -4.514200
  H     -1.212900   -7.562900   -2.148700
  H     -0.123700   -3.761800   -3.356100

 Total Charge           Charge          ....    4
 Multiplicity           Mult            ....    1
 Number of Electrons    NEL             ....  672
 Basis Dimension        Dim             .... 2058

ORBITAL ENERGIES
----------------

  NO   OCC          E(Eh)            E(eV)
   0   2.0000     -14.349381      -390.4665
   1   2.0000     -14.349348      -390.4656
   2   2.0000     -14.349322      -390.4649
   3   2.0000     -14.349268      -390.4634
   4   2.0000     -14.345564      -390.3626
   5   2.0000     -14.345528      -390.3617
   6   2.0000     -14.345507      -390.3611
   7   2.0000     -14.345484      -390.3605
   8   2.0000     -10.245066      -278.7824
   9   2.0000     -10.245012      -278.7809
  10   2.0000     -10.244946      -278.7791
  11   2.0000     -10.244911      -278.7782
  12   2.0000     -10.242559      -278.7142
  13   2.0000     -10.242514      -278.7130
  14   2.0000     -10.242420      -278.7104
  15   2.0000     -10.242330      -278.7080
  16   2.0000     -10.240111      -278.6476
  17   2.0000     -10.239997      -278.6445
  18   2.0000     -10.239903      -278.6419
  19   2.0000     -10.239840      -278.6402
  20   2.0000     -10.237369      -278.5730
  21   2.0000     -10.237338      -278.5721
  22   2.0000     -10.237267      -278.5702
  23   2.0000     -10.237212      -278.5687
  24   2.0000     -10.214954      -277.9630
  25   2.0000     -10.214923      -277.9622
  26   2.0000     -10.214816      -277.9593
  27   2.0000     -10.214690      -277.9559
  28   2.0000     -10.208093      -277.7763
  29   2.0000     -10.208030      -277.7746
  30   2.0000     -10.207930      -277.7719
  31   2.0000     -10.207872      -277.7703
  32   2.0000     -10.206412      -277.7306
  33   2.0000     -10.206345      -277.7288
  34   2.0000     -10.206255      -277.7263
  35   2.0000     -10.206180      -277.7243
  36   2.0000     -10.204830      -277.6876
  37   2.0000     -10.204773      -277.6860
  38   2.0000     -10.204696      -277.6839
  39   2.0000     -10.204540      -277.6797
  40   2.0000     -10.202921      -277.6356
  41   2.0000     -10.202870      -277.6342
  42   2.0000     -10.202781      -277.6318
  43   2.0000     -10.202764      -277.6313
  44   2.0000     -10.201610      -277.5999
  45   2.0000     -10.201596      -277.5995
  46   2.0000     -10.201566      -277.5987
  47   2.0000     -10.201506      -277.5971
  48   2.0000     -10.201435      -277.5952
  49   2.0000     -10.201410      -277.5945
  50   2.0000     -10.201382      -277.5937
  51   2.0000     -10.201296      -277.5914
  52   2.0000     -10.185913      -277.1728
  53   2.0000     -10.185872      -277.1717
  54   2.0000     -10.185762      -277.1687
  55   2.0000     -10.185622      -277.1649
  56   2.0000     -10.183782      -277.1148
  57   2.0000     -10.183764      -277.1143
  58   2.0000     -10.183641      -277.1110
  59   2.0000     -10.183507      -277.1073
  60   2.0000     -10.180814      -277.0340
  61   2.0000     -10.180753      -277.0324
  62   2.0000     -10.180652      -277.0296
  63   2.0000     -10.180548      -277.0268
  64   2.0000     -10.179490      -276.9980
  65   2.0000     -10.179424      -276.9962
  66   2.0000     -10.179305      -276.9930
  67   2.0000     -10.179226      -276.9908
  68   2.0000     -10.174426      -276.8602
  69   2.0000     -10.174400      -276.8595
  70   2.0000     -10.174279      -276.8562
  71   2.0000     -10.174165      -276.8531
  72   2.0000     -10.173985      -276.8482
  73   2.0000     -10.173909      -276.8461
  74   2.0000     -10.173824      -276.8438
  75   2.0000     -10.173719      -276.8410
  76   2.0000     -10.164187      -276.5816
  77   2.0000     -10.164144      -276.5804
  78   2.0000     -10.164105      -276.5794
  79   2.0000     -10.164064      -276.5782
  80   2.0000     -10.164059      -276.5781
  81   2.0000     -10.163921      -276.5743
  82   2.0000     -10.163901      -276.5738
  83   2.0000     -10.163866      -276.5728
  84   2.0000     -10.160836      -276.4904
  85   2.0000     -10.160785      -276.4890
  86   2.0000     -10.160692      -276.4865
  87   2.0000     -10.160531      -276.4821
  88   2.0000     -10.160371      -276.4777
  89   2.0000     -10.160342      -276.4770
  90   2.0000     -10.160204      -276.4732
  91   2.0000     -10.160151      -276.4718
  92   2.0000     -10.154902      -276.3289
  93   2.0000     -10.154848      -276.3275
  94   2.0000     -10.154765      -276.3252
  95   2.0000     -10.154567      -276.3198
  96   2.0000      -3.659173       -99.5712
  97   2.0000      -3.659092       -99.5690
  98   2.0000      -2.390151       -65.0393
  99   2.0000      -2.390129       -65.0387
 100   2.0000      -2.390008       -65.0354
 101   2.0000      -2.389804       -65.0299
 102   2.0000      -2.347621       -63.8820
 103   2.0000      -2.347552       -63.8801
 104   2.0000      -1.212404       -32.9912
 105   2.0000      -1.212315       -32.9888
 106   2.0000      -1.206598       -32.8332
 107   2.0000      -1.206553       -32.8320
 108   2.0000      -1.204444       -32.7746
 109   2.0000      -1.204378       -32.7728
 110   2.0000      -1.203736       -32.7553
 111   2.0000      -1.203655       -32.7531
 112   2.0000      -1.088890       -29.6302
 113   2.0000      -1.088800       -29.6278
 114   2.0000      -1.088241       -29.6125
 115   2.0000      -1.088169       -29.6106
 116   2.0000      -1.076800       -29.3012
 117   2.0000      -1.076702       -29.2986
 118   2.0000      -1.076353       -29.2890
 119   2.0000      -1.076252       -29.2863
 120   2.0000      -1.045706       -28.4551
 121   2.0000      -1.045567       -28.4513
 122   2.0000      -1.044411       -28.4199
 123   2.0000      -1.044358       -28.4184
 124   2.0000      -1.029208       -28.0062
 125   2.0000      -1.029088       -28.0029
 126   2.0000      -1.028993       -28.0003
 127   2.0000      -1.028941       -27.9989
 128   2.0000      -1.019753       -27.7489
 129   2.0000      -1.019656       -27.7463
 130   2.0000      -1.019565       -27.7438
 131   2.0000      -1.019360       -27.7382
 132   2.0000      -1.007616       -27.4186
 133   2.0000      -1.007456       -27.4143
 134   2.0000      -1.006178       -27.3795
 135   2.0000      -1.006132       -27.3782
 136   2.0000      -0.990161       -26.9437
 137   2.0000      -0.989752       -26.9325
 138   2.0000      -0.989683       -26.9307
 139   2.0000      -0.989497       -26.9256
 140   2.0000      -0.975861       -26.5545
 141   2.0000      -0.975396       -26.5419
 142   2.0000      -0.975352       -26.5407
 143   2.0000      -0.975039       -26.5322
 144   2.0000      -0.957096       -26.0439
 145   2.0000      -0.957036       -26.0423
 146   2.0000      -0.956924       -26.0392
 147   2.0000      -0.956781       -26.0353
 148   2.0000      -0.929209       -25.2851
 149   2.0000      -0.929006       -25.2795
 150   2.0000      -0.928913       -25.2770
 151   2.0000      -0.928791       -25.2737
 152   2.0000      -0.900660       -24.5082
 153   2.0000      -0.900335       -24.4994
 154   2.0000      -0.899238       -24.4695
 155   2.0000      -0.899178       -24.4679
 156   2.0000      -0.892476       -24.2855
 157   2.0000      -0.892417       -24.2839
 158   2.0000      -0.892280       -24.2802
 159   2.0000      -0.892108       -24.2755
 160   2.0000      -0.884327       -24.0638
 161   2.0000      -0.884146       -24.0588
 162   2.0000      -0.881777       -23.9944
 163   2.0000      -0.881747       -23.9936
 164   2.0000      -0.874492       -23.7961
 165   2.0000      -0.874354       -23.7924
 166   2.0000      -0.872513       -23.7423
 167   2.0000      -0.872469       -23.7411
 168   2.0000      -0.858602       -23.3637
 169   2.0000      -0.858568       -23.3628
 170   2.0000      -0.858231       -23.3536
 171   2.0000      -0.858224       -23.3535
 172   2.0000      -0.830064       -22.5872
 173   2.0000      -0.829863       -22.5817
 174   2.0000      -0.829167       -22.5628
 175   2.0000      -0.829119       -22.5615
 176   2.0000      -0.824315       -22.4307
 177   2.0000      -0.823966       -22.4213
 178   2.0000      -0.821835       -22.3633
 179   2.0000      -0.821778       -22.3617
 180   2.0000      -0.803729       -21.8706
 181   2.0000      -0.799627       -21.7590
 182   2.0000      -0.793645       -21.5962
 183   2.0000      -0.792283       -21.5591
 184   2.0000      -0.792257       -21.5584
 185   2.0000      -0.788922       -21.4677
 186   2.0000      -0.784830       -21.3563
 187   2.0000      -0.784802       -21.3555
 188   2.0000      -0.778247       -21.1772
 189   2.0000      -0.777693       -21.1621
 190   2.0000      -0.776179       -21.1209
 191   2.0000      -0.776117       -21.1192
 192   2.0000      -0.765879       -20.8406
 193   2.0000      -0.765671       -20.8350
 194   2.0000      -0.757864       -20.6225
 195   2.0000      -0.757841       -20.6219
 196   2.0000      -0.754870       -20.5411
 197   2.0000      -0.754666       -20.5355
 198   2.0000      -0.754589       -20.5334
 199   2.0000      -0.754493       -20.5308
 200   2.0000      -0.753128       -20.4937
 201   2.0000      -0.752651       -20.4807
 202   2.0000      -0.750695       -20.4274
 203   2.0000      -0.750668       -20.4267
 204   2.0000      -0.724367       -19.7110
 205   2.0000      -0.723941       -19.6994
 206   2.0000      -0.721153       -19.6236
 207   2.0000      -0.720096       -19.5948
 208   2.0000      -0.719027       -19.5657
 209   2.0000      -0.718650       -19.5555
 210   2.0000      -0.716733       -19.5033
 211   2.0000      -0.716714       -19.5028
 212   2.0000      -0.714503       -19.4426
 213   2.0000      -0.713694       -19.4206
 214   2.0000      -0.711872       -19.3710
 215   2.0000      -0.711853       -19.3705
 216   2.0000      -0.709698       -19.3119
 217   2.0000      -0.709622       -19.3098
 218   2.0000      -0.704995       -19.1839
 219   2.0000      -0.704756       -19.1774
 220   2.0000      -0.699527       -19.0351
 221   2.0000      -0.699144       -19.0247
 222   2.0000      -0.699108       -19.0237
 223   2.0000      -0.698183       -18.9985
 224   2.0000      -0.693546       -18.8723
 225   2.0000      -0.693330       -18.8665
 226   2.0000      -0.693102       -18.8603
 227   2.0000      -0.692242       -18.8369
 228   2.0000      -0.691557       -18.8182
 229   2.0000      -0.691419       -18.8145
 230   2.0000      -0.688379       -18.7317
 231   2.0000      -0.688149       -18.7255
 232   2.0000      -0.688095       -18.7240
 233   2.0000      -0.688021       -18.7220
 234   2.0000      -0.683856       -18.6087
 235   2.0000      -0.682944       -18.5838
 236   2.0000      -0.682424       -18.5697
 237   2.0000      -0.682364       -18.5681
 238   2.0000      -0.678882       -18.4733
 239   2.0000      -0.678377       -18.4596
 240   2.0000      -0.678314       -18.4579
 241   2.0000      -0.678000       -18.4493
 242   2.0000      -0.673865       -18.3368
 243   2.0000      -0.673817       -18.3355
 244   2.0000      -0.671868       -18.2824
 245   2.0000      -0.671408       -18.2699
 246   2.0000      -0.669511       -18.2183
 247   2.0000      -0.669498       -18.2180
 248   2.0000      -0.663743       -18.0614
 249   2.0000      -0.663668       -18.0593
 250   2.0000      -0.651624       -17.7316
 251   2.0000      -0.651542       -17.7294
 252   2.0000      -0.651459       -17.7271
 253   2.0000      -0.651287       -17.7224
 254   2.0000      -0.649224       -17.6663
 255   2.0000      -0.649152       -17.6643
 256   2.0000      -0.642006       -17.4699
 257   2.0000      -0.641910       -17.4672
 258   2.0000      -0.634463       -17.2646
 259   2.0000      -0.634169       -17.2566
 260   2.0000      -0.632381       -17.2080
 261   2.0000      -0.632311       -17.2061
 262   2.0000      -0.631222       -17.1764
 263   2.0000      -0.629683       -17.1345
 264   2.0000      -0.626744       -17.0546
 265   2.0000      -0.626685       -17.0530
 266   2.0000      -0.626599       -17.0506
 267   2.0000      -0.626569       -17.0498
 268   2.0000      -0.618029       -16.8174
 269   2.0000      -0.617976       -16.8160
 270   2.0000      -0.615557       -16.7502
 271   2.0000      -0.613185       -16.6856
 272   2.0000      -0.613144       -16.6845
 273   2.0000      -0.611710       -16.6455
 274   2.0000      -0.600823       -16.3492
 275   2.0000      -0.600652       -16.3446
 276   2.0000      -0.597312       -16.2537
 277   2.0000      -0.597246       -16.2519
 278   2.0000      -0.596924       -16.2431
 279   2.0000      -0.596843       -16.2409
 280   2.0000      -0.592616       -16.1259
 281   2.0000      -0.591839       -16.1047
 282   2.0000      -0.591771       -16.1029
 283   2.0000      -0.588810       -16.0223
 284   2.0000      -0.586688       -15.9646
 285   2.0000      -0.586638       -15.9632
 286   2.0000      -0.586095       -15.9484
 287   2.0000      -0.585946       -15.9444
 288   2.0000      -0.582343       -15.8464
 289   2.0000      -0.582314       -15.8456
 290   2.0000      -0.580228       -15.7888
 291   2.0000      -0.579070       -15.7573
 292   2.0000      -0.576051       -15.6752
 293   2.0000      -0.575969       -15.6729
 294   2.0000      -0.573834       -15.6148
 295   2.0000      -0.573740       -15.6122
 296   2.0000      -0.572400       -15.5758
 297   2.0000      -0.570726       -15.5302
 298   2.0000      -0.568922       -15.4812
 299   2.0000      -0.568841       -15.4790
 300   2.0000      -0.559884       -15.2352
 301   2.0000      -0.556924       -15.1547
 302   2.0000      -0.556854       -15.1528
 303   2.0000      -0.555159       -15.1066
 304   2.0000      -0.552471       -15.0335
 305   2.0000      -0.552299       -15.0288
 306   2.0000      -0.551718       -15.0130
 307   2.0000      -0.550502       -14.9799
 308   2.0000      -0.550391       -14.9769
 309   2.0000      -0.549570       -14.9546
 310   2.0000      -0.540977       -14.7207
 311   2.0000      -0.540850       -14.7173
 312   2.0000      -0.538359       -14.6495
 313   2.0000      -0.535350       -14.5676
 314   2.0000      -0.527913       -14.3652
 315   2.0000      -0.527857       -14.3637
 316   2.0000      -0.525655       -14.3038
 317   2.0000      -0.523345       -14.2409
 318   2.0000      -0.518367       -14.1055
 319   2.0000      -0.517718       -14.0878
 320   2.0000      -0.517542       -14.0830
 321   2.0000      -0.517358       -14.0780
 322   2.0000      -0.514862       -14.0101
 323   2.0000      -0.514811       -14.0087
 324   2.0000      -0.497038       -13.5251
 325   2.0000      -0.496846       -13.5199
 326   2.0000      -0.496808       -13.5188
 327   2.0000      -0.496541       -13.5116
 328   2.0000      -0.492881       -13.4120
 329   2.0000      -0.492763       -13.4088
 330   2.0000      -0.492669       -13.4062
 331   2.0000      -0.492387       -13.3985
 332   2.0000      -0.464020       -12.6266
 333   2.0000      -0.463831       -12.6215
 334   2.0000      -0.463723       -12.6185
 335   2.0000      -0.463394       -12.6096
 336   0.0000      -0.385967       -10.5027
 337   0.0000      -0.385895       -10.5007
 338   0.0000      -0.380858       -10.3637
 339   0.0000      -0.380827       -10.3628
 340   0.0000      -0.378140       -10.2897

MULLIKEN ATOMIC CHARGES
-----------------------
   0 Pd:   -0.069498
   1 Pd:   -0.069877
   2 C :    0.029322
   3 C :    0.079628
   4 C :   -0.246260
   5 C :   -0.071885
   6 C :   -0.180451
   7 C :   -0.222485
   8 C :    0.135750
   9 C :   -0.207383
  10 N :   -0.075542
  11 C :   -0.209675
  12 C :    0.050630
  13 C :    0.183780
  14 H :    0.260266
  15 H :    0.230743
  16 H :    0.235870
  17 H :    0.215003
  18 H :    0.133348
  19 H :    0.182569
  20 C :   -0.185380
  21 C :   -0.119704
  22 C :   -0.166827
  23 C :   -0.152904
  24 C :   -0.032851
  25 C :   -0.147144
  26 H :    0.244991
  27 H :    0.224416
  28 H :    0.244064
  29 H :    0.221411
  30 C :    0.011481
  31 C :   -0.180410
  32 C :   -0.036228
  33 C :   -0.127592
  34 N :   -0.062112
  35 C :   -0.124923
  36 H :    0.268608
  37 H :    0.248460
  38 H :    0.183252
  39 H :    0.201782
  40 C :    0.027956
  41 C :    0.081117
  42 C :   -0.246057
  43 C :   -0.072477
  44 C :   -0.180372
  45 C :   -0.221575
  46 C :    0.138874
  47 C :   -0.208621
  48 N :   -0.075766
  49 C :   -0.208019
  50 C :    0.054991
  51 C :    0.181030
  52 H :    0.260268
  53 H :    0.230778
  54 H :    0.235891
  55 H :    0.214658
  56 H :    0.130218
  57 H :    0.180966
  58 C :   -0.185454
  59 C :   -0.120311
  60 C :   -0.166227
  61 C :   -0.154090
  62 C :   -0.033667
  63 C :   -0.147262
  64 H :    0.244870
  65 H :    0.224355
  66 H :    0.243637
  67 H :    0.221973
  68 C :    0.010400
  69 C :   -0.179033
  70 C :   -0.036775
  71 C :   -0.127920
  72 N :   -0.063090
  73 C :   -0.123945
  74 H :    0.268528
  75 H :    0.248662
  76 H :    0.184049
  77 H :    0.202581
  78 C :    0.029128
  79 C :    0.080080
  80 C :   -0.246370
  81 C :   -0.071919
  82 C :   -0.180512
  83 C :   -0.222358
  84 C :    0.136770
  85 C :   -0.206280
  86 N :   -0.077345
  87 C :   -0.211149
  88 C :    0.052630
  89 C :    0.183168
  90 H :    0.260272
  91 H :    0.230738
  92 H :    0.235823
  93 H :    0.215067
  94 H :    0.132804
  95 H :    0.182272
  96 C :   -0.185877
  97 C :   -0.119865
  98 C :   -0.166863
  99 C :   -0.153426
 100 C :   -0.034088
 101 C :   -0.146694
 102 H :    0.245009
 103 H :    0.224404
 104 H :    0.243872
 105 H :    0.221882
 106 C :    0.010783
 107 C :   -0.179703
 108 C :   -0.037290
 109 C :   -0.127137
 110 N :   -0.064258
 111 C :   -0.122322
 112 H :    0.268739
 113 H :    0.248589
 114 H :    0.183317
 115 H :    0.201870
 116 C :    0.028806
 117 C :    0.080746
 118 C :   -0.246218
 119 C :   -0.072163
 120 C :   -0.180606
 121 C :   -0.222364
 122 C :    0.135724
 123 C :   -0.206417
 124 N :   -0.075636
 125 C :   -0.207553
 126 C :    0.050416
 127 C :    0.183631
 128 H :    0.260301
 129 H :    0.230757
 130 H :    0.235916
 131 H :    0.214752
 132 H :    0.131324
 133 H :    0.182087
 134 C :   -0.185667
 135 C :   -0.120044
 136 C :   -0.166680
 137 C :   -0.153536
 138 C :   -0.033913
 139 C :   -0.146676
 140 H :    0.244923
 141 H :    0.224413
 142 H :    0.243857
 143 H :    0.221558
 144 C :    0.010786
 145 C :   -0.179509
 146 C :   -0.036147
 147 C :   -0.128762
 148 N :   -0.064439
 149 C :   -0.122848
 150 H :    0.268675
 151 H :    0.248654
 152 H :    0.184293
 153 H :    0.202416
Sum of atomic charges:    4.0000000

LOEWDIN ATOMIC CHARGES
----------------------
   0 Pd:   -0.104293
   1 Pd:   -0.104013
   2 C :   -0.005405
   3 C :   -0.030869
   4 C :   -0.040426
   5 C :   -0.076171
   6 C :   -0.103017
   7 C :   -0.116475
   8 C :   -0.041055
   9 C :    0.001584
  10 N :   -0.082719
  11 C :   -0.071056
  12 C :   -0.115183
  13 C :   -0.003131
  14 H :    0.200655
  15 H :    0.196992
  16 H :    0.189699
  17 H :    0.190723
  18 H :    0.180252
  19 H :    0.195072
  20 C :   -0.058291
  21 C :   -0.094148
  22 C :   -0.117037
  23 C :   -0.122046
  24 C :   -0.062671
  25 C :   -0.126956
  26 H :    0.194824
  27 H :    0.192158
  28 H :    0.184915
  29 H :    0.171701
  30 C :   -0.026701
  31 C :   -0.076045
  32 C :   -0.119120
  33 C :   -0.037477
  34 N :   -0.072656
  35 C :   -0.026187
  36 H :    0.202715
  37 H :    0.202040
  38 H :    0.191372
  39 H :    0.182565
  40 C :   -0.005575
  41 C :   -0.030548
  42 C :   -0.040443
  43 C :   -0.076106
  44 C :   -0.102928
  45 C :   -0.116346
  46 C :   -0.041016
  47 C :    0.001788
  48 N :   -0.082525
  49 C :   -0.071240
  50 C :   -0.115206
  51 C :   -0.003089
  52 H :    0.200655
  53 H :    0.197036
  54 H :    0.189725
  55 H :    0.190684
  56 H :    0.180100
  57 H :    0.194887
  58 C :   -0.058190
  59 C :   -0.094258
  60 C :   -0.117198
  61 C :   -0.122329
  62 C :   -0.062764
  63 C :   -0.126853
  64 H :    0.194800
  65 H :    0.192085
  66 H :    0.184797
  67 H :    0.171773
  68 C :   -0.026897
  69 C :   -0.076028
  70 C :   -0.119125
  71 C :   -0.037324
  72 N :   -0.072876
  73 C :   -0.026449
  74 H :    0.202759
  75 H :    0.202089
  76 H :    0.191363
  77 H :    0.182735
  78 C :   -0.005544
  79 C :   -0.030678
  80 C :   -0.040461
  81 C :   -0.076183
  82 C :   -0.103031
  83 C :   -0.116434
  84 C :   -0.041066
  85 C :    0.001719
  86 N :   -0.082650
  87 C :   -0.071331
  88 C :   -0.115221
  89 C :   -0.003107
  90 H :    0.200662
  91 H :    0.197006
  92 H :    0.189718
  93 H :    0.190826
  94 H :    0.180366
  95 H :    0.195089
  96 C :   -0.058275
  97 C :   -0.094222
  98 C :   -0.117141
  99 C :   -0.122278
 100 C :   -0.062744
 101 C :   -0.126923
 102 H :    0.194826
 103 H :    0.192116
 104 H :    0.184831
 105 H :    0.171851
 106 C :   -0.026849
 107 C :   -0.076140
 108 C :   -0.119266
 109 C :   -0.037767
 110 N :   -0.072651
 111 C :   -0.025984
 112 H :    0.202730
 113 H :    0.202028
 114 H :    0.191425
 115 H :    0.182686
 116 C :   -0.005582
 117 C :   -0.030669
 118 C :   -0.040450
 119 C :   -0.076155
 120 C :   -0.103043
 121 C :   -0.116386
 122 C :   -0.041075
 123 C :    0.001810
 124 N :   -0.082554
 125 C :   -0.071149
 126 C :   -0.115272
 127 C :   -0.003122
 128 H :    0.200643
 129 H :    0.197002
 130 H :    0.189711
 131 H :    0.190717
 132 H :    0.180126
 133 H :    0.195032
 134 C :   -0.058238
 135 C :   -0.094194
 136 C :   -0.117131
 137 C :   -0.122231
 138 C :   -0.062702
 139 C :   -0.126911
 140 H :    0.194822
 141 H :    0.192123
 142 H :    0.184831
 143 H :    0.171748
 144 C :   -0.026824
 145 C :   -0.076119
 146 C :   -0.119177
 147 C :   -0.037594
 148 N :   -0.072781
 149 C :   -0.026286
 150 H :    0.202714
 151 H :    0.202057
 152 H :    0.191544
 153 H :    0.182750

  Mayer bond orders larger than 0.100000
B(  0-Pd, 34-N ) :   0.5234 B(  0-Pd, 48-N ) :   0.5292 B(  0-Pd, 49-C ) :   0.1025
B(  0-Pd,110-N ) :   0.5222 B(  0-Pd,124-N ) :   0.5294 B(  0-Pd,125-C ) :   0.1019
B(  1-Pd, 10-N ) :   0.5302 B(  1-Pd, 11-C ) :   0.1019 B(  1-Pd, 72-N ) :   0.5232
B(  1-Pd, 86-N ) :   0.5291 B(  1-Pd, 87-C ) :   0.1022 B(  1-Pd,148-N ) :   0.5224
B(  2-C ,  3-C ) :   1.8636 B(  2-C ,  4-C ) :  -0.2952 B(  2-C , 20-C ) :   1.5006
B(  2-C , 25-C ) :  -0.1009 B(  3-C ,  4-C ) :   1.4869 B(  3-C ,  5-C ) :  -0.1071
B(  3-C , 13-C ) :  -0.1893 B(  3-C , 20-C ) :  -0.3854 B(  4-C ,  5-C ) :   1.5267
B(  4-C , 13-C ) :   1.1085 B(  5-C ,  6-C ) :   1.4049 B(  5-C , 14-H ) :   0.8509
B(  6-C ,  7-C ) :   1.6502 B(  6-C , 15-H ) :   0.8695 B(  7-C ,  8-C ) :   1.3159
B(  7-C , 16-H ) :   0.8604 B(  8-C ,  9-C ) :   1.2844 B(  8-C , 13-C ) :   1.0805
B(  9-C , 10-N ) :   1.5306 B(  9-C , 13-C ) :  -0.1186 B(  9-C , 17-H ) :   0.9033
B( 10-N , 11-C ) :   1.2075 B( 11-C , 12-C ) :   1.4464 B( 11-C , 13-C ) :   0.1440
B( 11-C , 18-H ) :   0.9427 B( 12-C , 13-C ) :   1.3546 B( 12-C , 19-H ) :   0.8759
B( 20-C , 21-C ) :   1.3834 B( 20-C , 25-C ) :   1.4169 B( 21-C , 22-C ) :   1.5387
B( 21-C , 26-H ) :   0.8781 B( 22-C , 23-C ) :   1.5832 B( 22-C , 27-H ) :   0.8708
B( 23-C , 24-C ) :   1.3637 B( 23-C , 28-H ) :   0.8439 B( 24-C , 25-C ) :   1.3506
B( 24-C , 30-C ) :   0.9052 B( 25-C , 29-H ) :   0.8714 B( 30-C , 31-C ) :   1.4315
B( 30-C , 35-C ) :   1.4003 B( 31-C , 32-C ) :   1.5009 B( 31-C , 36-H ) :   0.8676
B( 32-C , 33-C ) :   1.4387 B( 32-C , 37-H ) :   0.8644 B( 33-C , 34-N ) :   1.3041
B( 33-C , 38-H ) :   0.9319 B( 34-N , 35-C ) :   1.4204 B( 35-C , 39-H ) :   0.9008
B( 40-C , 41-C ) :   1.8618 B( 40-C , 42-C ) :  -0.2948 B( 40-C , 58-C ) :   1.5030
B( 40-C , 63-C ) :  -0.1007 B( 41-C , 42-C ) :   1.4876 B( 41-C , 43-C ) :  -0.1069
B( 41-C , 51-C ) :  -0.1900 B( 41-C , 58-C ) :  -0.3872 B( 42-C , 43-C ) :   1.5262
B( 42-C , 51-C ) :   1.1061 B( 43-C , 44-C ) :   1.4049 B( 43-C , 52-H ) :   0.8510
B( 44-C , 45-C ) :   1.6499 B( 44-C , 53-H ) :   0.8694 B( 45-C , 46-C ) :   1.3167
B( 45-C , 54-H ) :   0.8600 B( 46-C , 47-C ) :   1.2831 B( 46-C , 51-C ) :   1.0800
B( 47-C , 48-N ) :   1.5312 B( 47-C , 51-C ) :  -0.1176 B( 47-C , 55-H ) :   0.9041
B( 48-N , 49-C ) :   1.2060 B( 49-C , 50-C ) :   1.4442 B( 49-C , 51-C ) :   0.1488
B( 49-C , 56-H ) :   0.9436 B( 50-C , 51-C ) :   1.3509 B( 50-C , 57-H ) :   0.8766
B( 58-C , 59-C ) :   1.3823 B( 58-C , 63-C ) :   1.4157 B( 59-C , 60-C ) :   1.5385
B( 59-C , 64-H ) :   0.8783 B( 60-C , 61-C ) :   1.5830 B( 60-C , 65-H ) :   0.8709
B( 61-C , 62-C ) :   1.3636 B( 61-C , 66-H ) :   0.8444 B( 62-C , 63-C ) :   1.3528
B( 62-C , 68-C ) :   0.9045 B( 63-C , 67-H ) :   0.8712 B( 68-C , 69-C ) :   1.4313
B( 68-C , 73-C ) :   1.4020 B( 69-C , 70-C ) :   1.5016 B( 69-C , 74-H ) :   0.8681
B( 70-C , 71-C ) :   1.4389 B( 70-C , 75-H ) :   0.8641 B( 71-C , 72-N ) :   1.3061
B( 71-C , 76-H ) :   0.9314 B( 72-N , 73-C ) :   1.4192 B( 73-C , 77-H ) :   0.9001
B( 78-C , 79-C ) :   1.8639 B( 78-C , 80-C ) :  -0.2944 B( 78-C , 96-C ) :   1.5014
B( 78-C ,101-C ) :  -0.1012 B( 79-C , 80-C ) :   1.4870 B( 79-C , 81-C ) :  -0.1068
B( 79-C , 89-C ) :  -0.1887 B( 79-C , 96-C ) :  -0.3857 B( 80-C , 81-C ) :   1.5264
B( 80-C , 89-C ) :   1.1093 B( 81-C , 82-C ) :   1.4044 B( 81-C , 90-H ) :   0.8509
B( 82-C , 83-C ) :   1.6498 B( 82-C , 91-H ) :   0.8695 B( 83-C , 84-C ) :   1.3162
B( 83-C , 92-H ) :   0.8605 B( 84-C , 85-C ) :   1.2833 B( 84-C , 89-C ) :   1.0798
B( 85-C , 86-N ) :   1.5311 B( 85-C , 89-C ) :  -0.1182 B( 85-C , 93-H ) :   0.9038
B( 86-N , 87-C ) :   1.2068 B( 87-C , 88-C ) :   1.4453 B( 87-C , 89-C ) :   0.1456
B( 87-C , 94-H ) :   0.9430 B( 88-C , 89-C ) :   1.3519 B( 88-C , 95-H ) :   0.8761
B( 96-C , 97-C ) :   1.3833 B( 96-C ,101-C ) :   1.4162 B( 97-C , 98-C ) :   1.5385
B( 97-C ,102-H ) :   0.8781 B( 98-C , 99-C ) :   1.5833 B( 98-C ,103-H ) :   0.8708
B( 99-C ,100-C ) :   1.3636 B( 99-C ,104-H ) :   0.8441 B(100-C ,101-C ) :   1.3517
B(100-C ,106-C ) :   0.9054 B(101-C ,105-H ) :   0.8712 B(106-C ,107-C ) :   1.4306
B(106-C ,111-C ) :   1.4000 B(107-C ,108-C ) :   1.5011 B(107-C ,112-H ) :   0.8676
B(108-C ,109-C ) :   1.4395 B(108-C ,113-H ) :   0.8642 B(109-C ,110-N ) :   1.3041
B(109-C ,114-H ) :   0.9317 B(110-N ,111-C ) :   1.4208 B(111-C ,115-H ) :   0.9011
B(116-C ,117-C ) :   1.8630 B(116-C ,118-C ) :  -0.2951 B(116-C ,134-C ) :   1.5016
B(116-C ,139-C ) :  -0.1012 B(117-C ,118-C ) :   1.4874 B(117-C ,119-C ) :  -0.1072
B(117-C ,127-C ) :  -0.1897 B(117-C ,134-C ) :  -0.3863 B(118-C ,119-C ) :   1.5265
B(118-C ,127-C ) :   1.1077 B(119-C ,120-C ) :   1.4048 B(119-C ,128-H ) :   0.8509
B(120-C ,121-C ) :   1.6501 B(120-C ,129-H ) :   0.8695 B(121-C ,122-C ) :   1.3166
B(121-C ,130-H ) :   0.8603 B(122-C ,123-C ) :   1.2833 B(122-C ,127-C ) :   1.0799
B(123-C ,124-N ) :   1.5316 B(123-C ,127-C ) :  -0.1184 B(123-C ,131-H ) :   0.9038
B(124-N ,125-C ) :   1.2064 B(125-C ,126-C ) :   1.4478 B(125-C ,127-C ) :   0.1453
B(125-C ,132-H ) :   0.9429 B(126-C ,127-C ) :   1.3525 B(126-C ,133-H ) :   0.8762
B(134-C ,135-C ) :   1.3830 B(134-C ,139-C ) :   1.4160 B(135-C ,136-C ) :   1.5389
B(135-C ,140-H ) :   0.8782 B(136-C ,137-C ) :   1.5832 B(136-C ,141-H ) :   0.8708
B(137-C ,138-C ) :   1.3636 B(137-C ,142-H ) :   0.8441 B(138-C ,139-C ) :   1.3514
B(138-C ,144-C ) :   0.9057 B(139-C ,143-H ) :   0.8714 B(144-C ,145-C ) :   1.4310
B(144-C ,149-C ) :   1.4008 B(145-C ,146-C ) :   1.5012 B(145-C ,150-H ) :   0.8676
B(146-C ,147-C ) :   1.4381 B(146-C ,151-H ) :   0.8642 B(147-C ,148-N ) :   1.3051
B(147-C ,152-H ) :   0.9316 B(148-N ,149-C ) :   1.4198 B(149-C ,153-H ) :   0.9006

Dispersion correction           -0.585081672
FINAL SINGLE POINT ENERGY     -4078.508876278879

DIPOLE MOMENT
-------------
                                X             Y             Z
Electronic contribution:      2.15701      -0.00340       1.10456
Nuclear contribution   :     -2.16962       0.01187      -1.11261
                        -----------------------------------------
Total Dipole Moment    :     -0.01261       0.00847      -0.00805
                        -----------------------------------------
Magnitude (a.u.)       :      0.01719
Magnitude (Debye)      :      0.04370

Rotational constants in cm-1:     0.000525     0.000421     0.000418
Rotational constants in MHz :    15.737495    12.624530    12.517205

                             ****ORCA TERMINATED NORMALLY****
TOTAL RUN TIME: 0 days 0 hours 8 minutes 52 seconds 980 msec
