                         Program Version 4.2.1 -  RELEASE  -
|  1> ! DFT SP RKS PBE0 def2-SVP D3BJ Grid6 NOFINALGRID SlowConv TightSCF printbasis
|  2>
|  3> %base "_s_5d1_b_PBE0"
|  4> %maxcore 3000
|  5> %scf
|  6>    MaxIter 2000
|  7> end
|  8> %pal
|  9>    nprocs 32
| 10> end
| 11>
| 12> * xyzfile 4 1 s_5d1_b.xyz
| 13>
| 14>                          ****END OF INPUT****

CARTESIAN COORDINATES (ANGSTROEM)
---------------------------------
  Pd     1.065300    3.394100   -0.059800
  Pd    -0.575800   -5.596000    0.355700
  C      6.253600   -1.654600    0.311000
  C      5.819400   -2.768700    0.489600
  C      5.385600   -4.097300    0.671600
  C      6.316200   -5.101100    0.879300
  C      5.921900   -6.434200    1.038700
  C      4.598200   -6.785700    0.984000
  C      3.619200   -5.791700    0.772200
  C      2.248600   -6.097000    0.693300
  N      1.326400   -5.181000    0.499700
  C      1.671700   -3.875600    0.372000
  C      2.979000   -3.475800    0.422600
  C      4.002000   -4.427800    0.621100
  H      7.364900   -4.848000    0.917900
  H      6.677500   -7.187200    1.201200
  H      4.297200   -7.814600    1.100000
  H      1.925100   -7.129000    0.797400
  H      0.844000   -3.180700    0.224600
  H      3.252900   -2.438900    0.309500
  C      6.688300   -0.338800    0.041600
  C      7.972300   -0.098700   -0.453800
  C      8.351200    1.193700   -0.766700
  C      7.467900    2.248700   -0.606800
  C      6.184400    2.024200   -0.106200
  C      5.809400    0.726400    0.229800
  H      8.658100   -0.919800   -0.595900
  H      9.342300    1.382000   -1.151100
  H      7.772900    3.241700   -0.897800
  H      4.846100    0.528100    0.671600
  C      5.223100    3.128100    0.029600
  C      5.606800    4.434500    0.349000
  C      4.646400    5.429400    0.437600
  C      3.314300    5.106500    0.232600
  N      2.949200    3.858500   -0.057300
  C      3.862300    2.899300   -0.170300
  H      6.643300    4.664500    0.539400
  H      4.928600    6.442500    0.674600
  H      2.522700    5.850700    0.295500
  H      3.499900    1.914300   -0.457500
  C     -0.804400   -0.411800    6.135100
  C     -0.601100    0.765500    5.948700
  C     -0.442200    2.129800    5.636000
  C     -0.883300    3.119000    6.497300
  C     -0.815900    4.469900    6.136400
  C     -0.340900    4.850700    4.907200
  C      0.128500    3.872900    4.005200
  C      0.579300    4.188400    2.708500
  N      1.037300    3.276000    1.882900
  C      1.122000    1.977200    2.266400
  C      0.665000    1.560200    3.483200
  C      0.117300    2.499900    4.381300
  H     -1.294800    2.843600    7.456500
  H     -1.164200    5.214600    6.835600
  H     -0.321100    5.890700    4.622900
  H      0.553000    5.212300    2.349700
  H      1.591700    1.292600    1.556800
  H      0.712200    0.523700    3.776900
  C     -1.127400   -1.768400    6.351100
  C     -1.814400   -2.138800    7.510600
  C     -2.191800   -3.456000    7.690000
  C     -1.893200   -4.408500    6.731100
  C     -1.194000   -4.056200    5.573700
  C     -0.811500   -2.730700    5.390900
  H     -2.051700   -1.394100    8.254800
  H     -2.729300   -3.743700    8.580900
  H     -2.231000   -5.422700    6.875400
  H     -0.244500   -2.437800    4.521700
  C     -0.893800   -5.087500    4.568200
  C     -0.610400   -6.402900    4.949400
  C     -0.398600   -7.373000    3.983600
  C     -0.453400   -7.011300    2.648800
  N     -0.682800   -5.748400    2.287300
  C     -0.902500   -4.807700    3.200900
  H     -0.547400   -6.661200    5.994700
  H     -0.193500   -8.392900    4.266400
  H     -0.317800   -7.752300    1.857100
  H     -1.108000   -3.813300    2.819200
  C     -5.800800   -0.250900    0.337800
  C     -5.449700    0.898100    0.202000
  C     -4.975800    2.219700    0.080200
  C     -5.842900    3.295300    0.019400
  C     -5.358800    4.606400   -0.072400
  C     -4.012400    4.863800   -0.096900
  C     -3.093500    3.793500   -0.037600
  C     -1.700900    3.987700   -0.053500
  N     -0.850000    2.984500   -0.008600
  C     -1.292700    1.706600    0.062200
  C     -2.624300    1.413100    0.095400
  C     -3.571900    2.454400    0.045100
  H     -6.908000    3.121400    0.044400
  H     -6.065500    5.420600   -0.119600
  H     -3.647100    5.876200   -0.161000
  H     -1.279300    4.990200   -0.104700
  H     -0.525700    0.940100    0.093200
  H     -2.970500    0.394400    0.160900
  C     -6.188700   -1.589300    0.564400
  C     -7.433800   -1.872300    1.131500
  C     -7.774800   -3.182700    1.408900
  C     -6.894000   -4.213600    1.129500
  C     -5.651700   -3.947700    0.548200
  C     -5.307600   -2.629200    0.264900
  H     -8.117300   -1.068200    1.357100
  H     -8.732900   -3.404500    1.854100
  H     -7.167900   -5.223800    1.390600
  H     -4.373100   -2.395800   -0.219800
  C     -4.723300   -5.056000    0.272800
  C     -5.191600   -6.319800   -0.105000
  C     -4.298200   -7.360200   -0.293300
  C     -2.945800   -7.123600   -0.117100
  N     -2.496300   -5.913400    0.208500
  C     -3.343300   -4.902900    0.403500
  H     -6.246800   -6.481000   -0.259800
  H     -4.646400   -8.340900   -0.573900
  H     -2.207400   -7.910800   -0.242500
  H     -2.896100   -3.953000    0.693700
  C     -1.473000   -0.602900   -5.721300
  C     -1.288600    0.590700   -5.662200
  C     -1.083800    1.968800   -5.454600
  C     -1.615400    2.925200   -6.300500
  C     -1.462300    4.289900   -6.027000
  C     -0.807700    4.718600   -4.900100
  C     -0.245800    3.774400   -4.015300
  C      0.383600    4.139100   -2.807400
  N      0.912100    3.253500   -1.995200
  C      0.901900    1.933900   -2.313400
  C      0.280800    1.473700   -3.438000
  C     -0.350600    2.386000   -4.308500
  H     -2.161600    2.615600   -7.178600
  H     -1.884900    5.009100   -6.711800
  H     -0.717500    5.771100   -4.683000
  H      0.443300    5.180800   -2.510100
  H      1.432800    1.259000   -1.636800
  H      0.255900    0.422600   -3.676900
  C     -1.724000   -1.989800   -5.790500
  C     -2.498300   -2.510500   -6.830500
  C     -2.758500   -3.867200   -6.877000
  C     -2.249200   -4.713000   -5.906800
  C     -1.469800   -4.206200   -4.864400
  C     -1.215000   -2.840700   -4.807200
  H     -2.888700   -1.851000   -7.590400
  H     -3.361100   -4.270700   -7.676700
  H     -2.479400   -5.766300   -5.949300
  H     -0.593300   -2.434000   -4.025300
  C     -0.924600   -5.131000   -3.857100
  C     -0.430900   -6.381200   -4.240800
  C      0.040200   -7.260600   -3.280200
  C      0.007200   -6.877700   -1.950600
  N     -0.446200   -5.676500   -1.586800
  C     -0.898400   -4.818100   -2.498200
  H     -0.406900   -6.653700   -5.284300
  H      0.422500   -8.228600   -3.561300
  H      0.363800   -7.548000   -1.165700
  H     -1.265700   -3.870400   -2.119700

 Total Charge           Charge          ....    4
 Multiplicity           Mult            ....    1
 Number of Electrons    NEL             ....  672
 Basis Dimension        Dim             .... 1686

ORBITAL ENERGIES
----------------

  NO   OCC          E(Eh)            E(eV)
   0   2.0000     -14.766687      -401.8220
   1   2.0000     -14.766523      -401.8175
   2   2.0000     -14.765555      -401.7912
   3   2.0000     -14.762777      -401.7156
   4   2.0000     -14.758071      -401.5875
   5   2.0000     -14.755721      -401.5236
   6   2.0000     -14.754627      -401.4938
   7   2.0000     -14.752147      -401.4263
   8   2.0000     -10.601483      -288.4810
   9   2.0000     -10.598990      -288.4132
  10   2.0000     -10.597774      -288.3801
  11   2.0000     -10.596941      -288.3574
  12   2.0000     -10.596263      -288.3390
  13   2.0000     -10.596139      -288.3356
  14   2.0000     -10.595827      -288.3271
  15   2.0000     -10.595120      -288.3079
  16   2.0000     -10.593784      -288.2715
  17   2.0000     -10.592720      -288.2426
  18   2.0000     -10.591077      -288.1979
  19   2.0000     -10.587326      -288.0958
  20   2.0000     -10.585207      -288.0381
  21   2.0000     -10.585194      -288.0378
  22   2.0000     -10.583745      -287.9983
  23   2.0000     -10.582561      -287.9661
  24   2.0000     -10.565345      -287.4977
  25   2.0000     -10.564863      -287.4845
  26   2.0000     -10.564388      -287.4716
  27   2.0000     -10.559719      -287.3446
  28   2.0000     -10.558458      -287.3102
  29   2.0000     -10.557923      -287.2957
  30   2.0000     -10.556884      -287.2674
  31   2.0000     -10.556668      -287.2615
  32   2.0000     -10.556560      -287.2586
  33   2.0000     -10.555451      -287.2284
  34   2.0000     -10.555332      -287.2252
  35   2.0000     -10.554328      -287.1979
  36   2.0000     -10.553920      -287.1868
  37   2.0000     -10.553741      -287.1819
  38   2.0000     -10.553575      -287.1774
  39   2.0000     -10.552880      -287.1585
  40   2.0000     -10.552041      -287.1356
  41   2.0000     -10.551572      -287.1229
  42   2.0000     -10.551313      -287.1158
  43   2.0000     -10.549985      -287.0797
  44   2.0000     -10.549844      -287.0758
  45   2.0000     -10.549786      -287.0743
  46   2.0000     -10.549741      -287.0730
  47   2.0000     -10.547784      -287.0198
  48   2.0000     -10.547080      -287.0006
  49   2.0000     -10.546941      -286.9969
  50   2.0000     -10.545596      -286.9602
  51   2.0000     -10.541568      -286.8506
  52   2.0000     -10.533212      -286.6233
  53   2.0000     -10.531609      -286.5797
  54   2.0000     -10.531569      -286.5786
  55   2.0000     -10.531263      -286.5702
  56   2.0000     -10.530991      -286.5628
  57   2.0000     -10.530712      -286.5553
  58   2.0000     -10.530152      -286.5400
  59   2.0000     -10.530079      -286.5380
  60   2.0000     -10.529535      -286.5232
  61   2.0000     -10.528502      -286.4951
  62   2.0000     -10.527510      -286.4681
  63   2.0000     -10.526627      -286.4441
  64   2.0000     -10.526363      -286.4369
  65   2.0000     -10.526103      -286.4298
  66   2.0000     -10.525412      -286.4110
  67   2.0000     -10.523518      -286.3595
  68   2.0000     -10.522954      -286.3441
  69   2.0000     -10.522917      -286.3431
  70   2.0000     -10.522566      -286.3336
  71   2.0000     -10.522319      -286.3269
  72   2.0000     -10.522206      -286.3238
  73   2.0000     -10.519710      -286.2559
  74   2.0000     -10.518341      -286.2186
  75   2.0000     -10.515952      -286.1536
  76   2.0000     -10.513538      -286.0879
  77   2.0000     -10.512408      -286.0572
  78   2.0000     -10.511438      -286.0308
  79   2.0000     -10.511278      -286.0264
  80   2.0000     -10.511210      -286.0246
  81   2.0000     -10.510965      -286.0179
  82   2.0000     -10.510261      -285.9987
  83   2.0000     -10.509406      -285.9755
  84   2.0000     -10.508747      -285.9575
  85   2.0000     -10.507363      -285.9199
  86   2.0000     -10.507252      -285.9169
  87   2.0000     -10.507006      -285.9102
  88   2.0000     -10.506533      -285.8973
  89   2.0000     -10.505621      -285.8725
  90   2.0000     -10.504832      -285.8510
  91   2.0000     -10.502136      -285.7777
  92   2.0000     -10.502046      -285.7752
  93   2.0000     -10.500911      -285.7443
  94   2.0000     -10.500582      -285.7354
  95   2.0000     -10.494626      -285.5733
  96   2.0000      -3.867192      -105.2317
  97   2.0000      -3.859316      -105.0173
  98   2.0000      -2.545963       -69.2792
  99   2.0000      -2.544852       -69.2489
 100   2.0000      -2.538250       -69.0693
 101   2.0000      -2.536844       -69.0310
 102   2.0000      -2.508011       -68.2465
 103   2.0000      -2.500264       -68.0356
 104   2.0000      -1.323421       -36.0121
 105   2.0000      -1.315979       -35.8096
 106   2.0000      -1.315372       -35.7931
 107   2.0000      -1.313540       -35.7433
 108   2.0000      -1.311747       -35.6944
 109   2.0000      -1.305735       -35.5308
 110   2.0000      -1.304763       -35.5044
 111   2.0000      -1.303531       -35.4709
 112   2.0000      -1.188707       -32.3464
 113   2.0000      -1.188539       -32.3418
 114   2.0000      -1.185647       -32.2631
 115   2.0000      -1.184121       -32.2216
 116   2.0000      -1.175846       -31.9964
 117   2.0000      -1.175263       -31.9805
 118   2.0000      -1.174761       -31.9669
 119   2.0000      -1.167940       -31.7813
 120   2.0000      -1.142802       -31.0972
 121   2.0000      -1.140830       -31.0436
 122   2.0000      -1.140557       -31.0361
 123   2.0000      -1.132402       -30.8142
 124   2.0000      -1.123815       -30.5806
 125   2.0000      -1.123353       -30.5680
 126   2.0000      -1.119476       -30.4625
 127   2.0000      -1.117898       -30.4196
 128   2.0000      -1.114887       -30.3376
 129   2.0000      -1.114329       -30.3224
 130   2.0000      -1.112520       -30.2732
 131   2.0000      -1.104325       -30.0502
 132   2.0000      -1.100053       -29.9340
 133   2.0000      -1.099986       -29.9321
 134   2.0000      -1.097345       -29.8603
 135   2.0000      -1.095072       -29.7984
 136   2.0000      -1.081118       -29.4187
 137   2.0000      -1.078893       -29.3582
 138   2.0000      -1.078218       -29.3398
 139   2.0000      -1.077350       -29.3162
 140   2.0000      -1.065479       -28.9931
 141   2.0000      -1.063140       -28.9295
 142   2.0000      -1.062309       -28.9069
 143   2.0000      -1.061047       -28.8726
 144   2.0000      -1.045773       -28.4569
 145   2.0000      -1.045039       -28.4370
 146   2.0000      -1.044579       -28.4244
 147   2.0000      -1.037204       -28.2238
 148   2.0000      -1.014688       -27.6111
 149   2.0000      -1.012654       -27.5557
 150   2.0000      -1.011888       -27.5349
 151   2.0000      -1.010867       -27.5071
 152   2.0000      -0.983326       -26.7577
 153   2.0000      -0.982801       -26.7434
 154   2.0000      -0.978906       -26.6374
 155   2.0000      -0.977823       -26.6079
 156   2.0000      -0.976945       -26.5840
 157   2.0000      -0.976004       -26.5584
 158   2.0000      -0.973826       -26.4991
 159   2.0000      -0.967817       -26.3356
 160   2.0000      -0.965894       -26.2833
 161   2.0000      -0.965253       -26.2659
 162   2.0000      -0.963967       -26.2309
 163   2.0000      -0.958371       -26.0786
 164   2.0000      -0.956429       -26.0257
 165   2.0000      -0.954173       -25.9644
 166   2.0000      -0.951896       -25.9024
 167   2.0000      -0.949496       -25.8371
 168   2.0000      -0.938914       -25.5491
 169   2.0000      -0.937201       -25.5025
 170   2.0000      -0.936015       -25.4703
 171   2.0000      -0.935096       -25.4453
 172   2.0000      -0.907996       -24.7078
 173   2.0000      -0.906152       -24.6576
 174   2.0000      -0.905347       -24.6358
 175   2.0000      -0.905056       -24.6278
 176   2.0000      -0.902265       -24.5519
 177   2.0000      -0.901238       -24.5239
 178   2.0000      -0.899122       -24.4664
 179   2.0000      -0.894356       -24.3367
 180   2.0000      -0.882641       -24.0179
 181   2.0000      -0.875259       -23.8170
 182   2.0000      -0.871483       -23.7143
 183   2.0000      -0.869251       -23.6535
 184   2.0000      -0.866931       -23.5904
 185   2.0000      -0.863267       -23.4907
 186   2.0000      -0.859069       -23.3765
 187   2.0000      -0.858349       -23.3569
 188   2.0000      -0.852867       -23.2077
 189   2.0000      -0.851290       -23.1648
 190   2.0000      -0.848217       -23.0812
 191   2.0000      -0.846382       -23.0312
 192   2.0000      -0.834823       -22.7167
 193   2.0000      -0.833655       -22.6849
 194   2.0000      -0.831495       -22.6261
 195   2.0000      -0.830811       -22.6075
 196   2.0000      -0.829927       -22.5835
 197   2.0000      -0.828352       -22.5406
 198   2.0000      -0.827250       -22.5106
 199   2.0000      -0.826936       -22.5021
 200   2.0000      -0.824092       -22.4247
 201   2.0000      -0.820944       -22.3390
 202   2.0000      -0.818616       -22.2757
 203   2.0000      -0.817839       -22.2545
 204   2.0000      -0.804462       -21.8905
 205   2.0000      -0.800156       -21.7734
 206   2.0000      -0.796368       -21.6703
 207   2.0000      -0.793667       -21.5968
 208   2.0000      -0.792890       -21.5756
 209   2.0000      -0.790845       -21.5200
 210   2.0000      -0.785067       -21.3627
 211   2.0000      -0.784025       -21.3344
 212   2.0000      -0.781687       -21.2708
 213   2.0000      -0.780779       -21.2461
 214   2.0000      -0.779060       -21.1993
 215   2.0000      -0.778717       -21.1900
 216   2.0000      -0.775933       -21.1142
 217   2.0000      -0.774119       -21.0648
 218   2.0000      -0.772765       -21.0280
 219   2.0000      -0.769928       -20.9508
 220   2.0000      -0.766861       -20.8674
 221   2.0000      -0.766247       -20.8506
 222   2.0000      -0.764944       -20.8152
 223   2.0000      -0.764126       -20.7929
 224   2.0000      -0.762965       -20.7613
 225   2.0000      -0.762150       -20.7392
 226   2.0000      -0.760231       -20.6869
 227   2.0000      -0.758368       -20.6362
 228   2.0000      -0.757828       -20.6215
 229   2.0000      -0.756751       -20.5923
 230   2.0000      -0.756117       -20.5750
 231   2.0000      -0.754612       -20.5340
 232   2.0000      -0.753882       -20.5142
 233   2.0000      -0.752950       -20.4888
 234   2.0000      -0.751508       -20.4496
 235   2.0000      -0.751104       -20.4386
 236   2.0000      -0.747871       -20.3506
 237   2.0000      -0.747364       -20.3368
 238   2.0000      -0.745511       -20.2864
 239   2.0000      -0.744738       -20.2653
 240   2.0000      -0.743374       -20.2282
 241   2.0000      -0.741746       -20.1839
 242   2.0000      -0.741446       -20.1758
 243   2.0000      -0.741297       -20.1717
 244   2.0000      -0.738248       -20.0888
 245   2.0000      -0.736712       -20.0470
 246   2.0000      -0.735245       -20.0070
 247   2.0000      -0.734237       -19.9796
 248   2.0000      -0.722089       -19.6490
 249   2.0000      -0.718660       -19.5557
 250   2.0000      -0.715801       -19.4779
 251   2.0000      -0.714765       -19.4498
 252   2.0000      -0.714431       -19.4407
 253   2.0000      -0.714322       -19.4377
 254   2.0000      -0.709454       -19.3052
 255   2.0000      -0.707839       -19.2613
 256   2.0000      -0.702450       -19.1146
 257   2.0000      -0.701179       -19.0801
 258   2.0000      -0.699884       -19.0448
 259   2.0000      -0.699075       -19.0228
 260   2.0000      -0.697618       -18.9831
 261   2.0000      -0.697106       -18.9692
 262   2.0000      -0.694730       -18.9046
 263   2.0000      -0.693064       -18.8592
 264   2.0000      -0.690668       -18.7940
 265   2.0000      -0.685811       -18.6619
 266   2.0000      -0.684680       -18.6311
 267   2.0000      -0.682901       -18.5827
 268   2.0000      -0.679116       -18.4797
 269   2.0000      -0.676400       -18.4058
 270   2.0000      -0.674619       -18.3573
 271   2.0000      -0.673275       -18.3207
 272   2.0000      -0.670366       -18.2416
 273   2.0000      -0.668550       -18.1922
 274   2.0000      -0.665049       -18.0969
 275   2.0000      -0.663124       -18.0445
 276   2.0000      -0.657750       -17.8983
 277   2.0000      -0.657373       -17.8880
 278   2.0000      -0.656978       -17.8773
 279   2.0000      -0.653810       -17.7911
 280   2.0000      -0.652269       -17.7491
 281   2.0000      -0.651874       -17.7384
 282   2.0000      -0.648075       -17.6350
 283   2.0000      -0.646268       -17.5859
 284   2.0000      -0.645521       -17.5655
 285   2.0000      -0.644413       -17.5354
 286   2.0000      -0.644075       -17.5262
 287   2.0000      -0.640441       -17.4273
 288   2.0000      -0.639634       -17.4053
 289   2.0000      -0.637987       -17.3605
 290   2.0000      -0.637824       -17.3561
 291   2.0000      -0.635172       -17.2839
 292   2.0000      -0.634236       -17.2584
 293   2.0000      -0.633286       -17.2326
 294   2.0000      -0.632081       -17.1998
 295   2.0000      -0.630418       -17.1545
 296   2.0000      -0.629647       -17.1336
 297   2.0000      -0.627608       -17.0781
 298   2.0000      -0.626458       -17.0468
 299   2.0000      -0.625805       -17.0290
 300   2.0000      -0.623325       -16.9615
 301   2.0000      -0.620532       -16.8855
 302   2.0000      -0.617676       -16.8078
 303   2.0000      -0.616016       -16.7627
 304   2.0000      -0.611594       -16.6423
 305   2.0000      -0.607925       -16.5425
 306   2.0000      -0.605551       -16.4779
 307   2.0000      -0.603011       -16.4088
 308   2.0000      -0.602107       -16.3842
 309   2.0000      -0.596594       -16.2341
 310   2.0000      -0.592219       -16.1151
 311   2.0000      -0.590281       -16.0624
 312   2.0000      -0.587098       -15.9757
 313   2.0000      -0.585790       -15.9402
 314   2.0000      -0.583267       -15.8715
 315   2.0000      -0.576685       -15.6924
 316   2.0000      -0.574255       -15.6263
 317   2.0000      -0.572443       -15.5770
 318   2.0000      -0.571652       -15.5554
 319   2.0000      -0.566843       -15.4246
 320   2.0000      -0.564710       -15.3666
 321   2.0000      -0.563459       -15.3325
 322   2.0000      -0.560203       -15.2439
 323   2.0000      -0.559258       -15.2182
 324   2.0000      -0.550465       -14.9789
 325   2.0000      -0.549551       -14.9540
 326   2.0000      -0.545526       -14.8445
 327   2.0000      -0.543461       -14.7883
 328   2.0000      -0.537130       -14.6160
 329   2.0000      -0.536257       -14.5923
 330   2.0000      -0.535113       -14.5612
 331   2.0000      -0.528317       -14.3762
 332   2.0000      -0.502363       -13.6700
 333   2.0000      -0.498888       -13.5754
 334   2.0000      -0.498493       -13.5647
 335   2.0000      -0.497928       -13.5493
 336   0.0000      -0.366857        -9.9827
 337   0.0000      -0.365454        -9.9445
 338   0.0000      -0.364651        -9.9227
 339   0.0000      -0.354732        -9.6527
 340   0.0000      -0.353630        -9.6228

MULLIKEN ATOMIC CHARGES
-----------------------
   0 Pd:    0.360803
   1 Pd:    0.373850
   2 C :    0.020516
   3 C :   -0.066664
   4 C :   -0.014607
   5 C :    0.043478
   6 C :    0.024400
   7 C :    0.015896
   8 C :   -0.052577
   9 C :    0.158509
  10 N :   -0.310755
  11 C :    0.133433
  12 C :    0.005999
  13 C :    0.071466
  14 H :    0.065459
  15 H :    0.079402
  16 H :    0.044689
  17 H :    0.048552
  18 H :    0.055464
  19 H :    0.027249
  20 C :   -0.050680
  21 C :    0.048438
  22 C :    0.010726
  23 C :   -0.008322
  24 C :    0.047302
  25 C :   -0.026838
  26 H :    0.052783
  27 H :    0.069142
  28 H :    0.043930
  29 H :   -0.010155
  30 C :   -0.019550
  31 C :    0.069976
  32 C :   -0.016912
  33 C :    0.134029
  34 N :   -0.289721
  35 C :    0.136830
  36 H :    0.077417
  37 H :    0.084457
  38 H :    0.088936
  39 H :    0.040733
  40 C :    0.016105
  41 C :   -0.056555
  42 C :   -0.014656
  43 C :    0.043628
  44 C :    0.020268
  45 C :    0.020996
  46 C :   -0.055172
  47 C :    0.164629
  48 N :   -0.314904
  49 C :    0.126208
  50 C :    0.012091
  51 C :    0.062545
  52 H :    0.062949
  53 H :    0.078587
  54 H :    0.046882
  55 H :    0.060232
  56 H :    0.050655
  57 H :    0.032345
  58 C :   -0.049731
  59 C :    0.046915
  60 C :    0.011926
  61 C :   -0.017454
  62 C :    0.043101
  63 C :   -0.015866
  64 H :    0.054690
  65 H :    0.068362
  66 H :    0.042074
  67 H :   -0.008511
  68 C :   -0.026387
  69 C :    0.061451
  70 C :   -0.009562
  71 C :    0.121048
  72 N :   -0.306498
  73 C :    0.140053
  74 H :    0.080495
  75 H :    0.082873
  76 H :    0.086917
  77 H :    0.045929
  78 C :    0.009303
  79 C :   -0.047778
  80 C :   -0.014072
  81 C :    0.042703
  82 C :    0.019447
  83 C :    0.015378
  84 C :   -0.040850
  85 C :    0.154574
  86 N :   -0.323731
  87 C :    0.163275
  88 C :    0.006792
  89 C :    0.061948
  90 H :    0.063523
  91 H :    0.077852
  92 H :    0.043368
  93 H :    0.070093
  94 H :    0.033296
  95 H :    0.021950
  96 C :   -0.052190
  97 C :    0.047805
  98 C :    0.011102
  99 C :   -0.016531
 100 C :    0.045031
 101 C :   -0.022679
 102 H :    0.054432
 103 H :    0.068513
 104 H :    0.042552
 105 H :   -0.008073
 106 C :   -0.017253
 107 C :    0.060823
 108 C :   -0.013102
 109 C :    0.132243
 110 N :   -0.305282
 111 C :    0.130786
 112 H :    0.079588
 113 H :    0.084538
 114 H :    0.082832
 115 H :    0.052052
 116 C :    0.014717
 117 C :   -0.051786
 118 C :   -0.013668
 119 C :    0.044524
 120 C :    0.019458
 121 C :    0.020291
 122 C :   -0.055585
 123 C :    0.161157
 124 N :   -0.309533
 125 C :    0.123859
 126 C :    0.014728
 127 C :    0.059833
 128 H :    0.063066
 129 H :    0.078493
 130 H :    0.047622
 131 H :    0.067327
 132 H :    0.053940
 133 H :    0.030094
 134 C :   -0.050331
 135 C :    0.047871
 136 C :    0.011444
 137 C :   -0.015245
 138 C :    0.033082
 139 C :   -0.011809
 140 H :    0.055686
 141 H :    0.068345
 142 H :    0.040331
 143 H :   -0.010811
 144 C :   -0.037695
 145 C :    0.068275
 146 C :   -0.009267
 147 C :    0.119952
 148 N :   -0.309028
 149 C :    0.144639
 150 H :    0.081287
 151 H :    0.082984
 152 H :    0.081544
 153 H :    0.050207
Sum of atomic charges:    4.0000000

LOEWDIN ATOMIC CHARGES
----------------------
   0 Pd:   -0.380286
   1 Pd:   -0.383284
   2 C :    0.009058
   3 C :   -0.043691
   4 C :   -0.029452
   5 C :    0.055742
   6 C :    0.024556
   7 C :    0.009169
   8 C :   -0.026971
   9 C :    0.093738
  10 N :    0.062017
  11 C :    0.030896
  12 C :    0.006527
  13 C :    0.017252
  14 H :    0.062902
  15 H :    0.063058
  16 H :    0.049805
  17 H :    0.050821
  18 H :    0.047374
  19 H :    0.048080
  20 C :   -0.046586
  21 C :    0.033969
  22 C :    0.011624
  23 C :    0.011048
  24 C :   -0.036284
  25 C :   -0.004751
  26 H :    0.055037
  27 H :    0.058314
  28 H :    0.046144
  29 H :    0.025935
  30 C :   -0.002907
  31 C :    0.058980
  32 C :    0.008798
  33 C :    0.068010
  34 N :    0.079785
  35 C :    0.067412
  36 H :    0.061658
  37 H :    0.067255
  38 H :    0.058372
  39 H :    0.044192
  40 C :   -0.001028
  41 C :   -0.031385
  42 C :   -0.031283
  43 C :    0.053211
  44 C :    0.022347
  45 C :    0.012386
  46 C :   -0.028293
  47 C :    0.100305
  48 N :    0.060744
  49 C :    0.032613
  50 C :    0.008377
  51 C :    0.019085
  52 H :    0.061625
  53 H :    0.062390
  54 H :    0.051164
  55 H :    0.055092
  56 H :    0.048300
  57 H :    0.050286
  58 C :   -0.043253
  59 C :    0.035908
  60 C :    0.010158
  61 C :    0.005782
  62 C :   -0.039299
  63 C :   -0.004058
  64 H :    0.055812
  65 H :    0.058063
  66 H :    0.044401
  67 H :    0.026907
  68 C :   -0.001538
  69 C :    0.057964
  70 C :    0.007908
  71 C :    0.059430
  72 N :    0.075976
  73 C :    0.069251
  74 H :    0.062359
  75 H :    0.066806
  76 H :    0.059740
  77 H :    0.045381
  78 C :   -0.000172
  79 C :   -0.032782
  80 C :   -0.032050
  81 C :    0.052566
  82 C :    0.020908
  83 C :    0.009313
  84 C :   -0.029374
  85 C :    0.096015
  86 N :    0.062447
  87 C :    0.036069
  88 C :    0.004167
  89 C :    0.019544
  90 H :    0.061990
  91 H :    0.062025
  92 H :    0.049696
  93 H :    0.058133
  94 H :    0.039917
  95 H :    0.047836
  96 C :   -0.044036
  97 C :    0.034605
  98 C :    0.010426
  99 C :    0.006206
 100 C :   -0.038437
 101 C :   -0.005915
 102 H :    0.055730
 103 H :    0.058052
 104 H :    0.044781
 105 H :    0.026496
 106 C :   -0.003237
 107 C :    0.057996
 108 C :    0.008218
 109 C :    0.064421
 110 N :    0.073099
 111 C :    0.065488
 112 H :    0.061952
 113 H :    0.067520
 114 H :    0.055406
 115 H :    0.047829
 116 C :   -0.002648
 117 C :   -0.028666
 118 C :   -0.031748
 119 C :    0.053062
 120 C :    0.021996
 121 C :    0.012982
 122 C :   -0.028711
 123 C :    0.102168
 124 N :    0.060628
 125 C :    0.033032
 126 C :    0.008592
 127 C :    0.019815
 128 H :    0.061774
 129 H :    0.062284
 130 H :    0.051533
 131 H :    0.056964
 132 H :    0.048754
 133 H :    0.049824
 134 C :   -0.042946
 135 C :    0.035160
 136 C :    0.010071
 137 C :    0.002884
 138 C :   -0.040243
 139 C :   -0.005311
 140 H :    0.056302
 141 H :    0.057933
 142 H :    0.043868
 143 H :    0.026438
 144 C :   -0.002917
 145 C :    0.059066
 146 C :    0.007245
 147 C :    0.059346
 148 N :    0.072262
 149 C :    0.068907
 150 H :    0.063079
 151 H :    0.066784
 152 H :    0.058283
 153 H :    0.046351

  Mayer bond orders larger than 0.100000
B(  0-Pd, 34-N ) :   0.5744 B(  0-Pd, 48-N ) :   0.5609 B(  0-Pd, 86-N ) :   0.5491
B(  0-Pd,124-N ) :   0.5688 B(  1-Pd, 10-N ) :   0.5577 B(  1-Pd, 72-N ) :   0.5567
B(  1-Pd,110-N ) :   0.5566 B(  1-Pd,148-N ) :   0.5508 B(  2-C ,  3-C ) :   2.6047
B(  2-C , 20-C ) :   0.9991 B(  3-C ,  4-C ) :   0.9976 B(  4-C ,  5-C ) :   1.4367
B(  4-C , 13-C ) :   1.2349 B(  5-C ,  6-C ) :   1.2710 B(  5-C , 14-H ) :   0.9911
B(  6-C ,  7-C ) :   1.4677 B(  6-C , 15-H ) :   0.9809 B(  7-C ,  8-C ) :   1.2397
B(  7-C , 16-H ) :   0.9954 B(  8-C ,  9-C ) :   1.3009 B(  8-C , 13-C ) :   1.2160
B(  9-C , 10-N ) :   1.4157 B(  9-C , 17-H ) :   0.9526 B( 10-N , 11-C ) :   1.1949
B( 11-C , 12-C ) :   1.5249 B( 11-C , 18-H ) :   0.9491 B( 12-C , 13-C ) :   1.2949
B( 12-C , 19-H ) :   0.9558 B( 20-C , 21-C ) :   1.3301 B( 20-C , 25-C ) :   1.3498
B( 21-C , 22-C ) :   1.3871 B( 21-C , 26-H ) :   0.9958 B( 22-C , 23-C ) :   1.3944
B( 22-C , 27-H ) :   0.9819 B( 23-C , 24-C ) :   1.3614 B( 23-C , 28-H ) :   0.9888
B( 24-C , 25-C ) :   1.3563 B( 24-C , 30-C ) :   1.0107 B( 25-C , 29-H ) :   0.9827
B( 30-C , 31-C ) :   1.3751 B( 30-C , 35-C ) :   1.4033 B( 31-C , 32-C ) :   1.4058
B( 31-C , 36-H ) :   0.9792 B( 32-C , 33-C ) :   1.4211 B( 32-C , 37-H ) :   0.9712
B( 33-C , 34-N ) :   1.3146 B( 33-C , 38-H ) :   0.9527 B( 34-N , 35-C ) :   1.3130
B( 35-C , 39-H ) :   0.9535 B( 40-C , 41-C ) :   2.5998 B( 40-C , 58-C ) :   1.0038
B( 41-C , 42-C ) :   1.0058 B( 42-C , 43-C ) :   1.4296 B( 42-C , 51-C ) :   1.2377
B( 43-C , 44-C ) :   1.2727 B( 43-C , 52-H ) :   0.9917 B( 44-C , 45-C ) :   1.4685
B( 44-C , 53-H ) :   0.9805 B( 45-C , 46-C ) :   1.2403 B( 45-C , 54-H ) :   0.9959
B( 46-C , 47-C ) :   1.2836 B( 46-C , 51-C ) :   1.2237 B( 47-C , 48-N ) :   1.4311
B( 47-C , 55-H ) :   0.9613 B( 48-N , 49-C ) :   1.1759 B( 49-C , 50-C ) :   1.5345
B( 49-C , 56-H ) :   0.9443 B( 50-C , 51-C ) :   1.2879 B( 50-C , 57-H ) :   0.9564
B( 58-C , 59-C ) :   1.3334 B( 58-C , 63-C ) :   1.3444 B( 59-C , 60-C ) :   1.3859
B( 59-C , 64-H ) :   0.9955 B( 60-C , 61-C ) :   1.3956 B( 60-C , 65-H ) :   0.9829
B( 61-C , 62-C ) :   1.3545 B( 61-C , 66-H ) :   0.9883 B( 62-C , 63-C ) :   1.3630
B( 62-C , 68-C ) :   1.0097 B( 63-C , 67-H ) :   0.9864 B( 68-C , 69-C ) :   1.3768
B( 68-C , 73-C ) :   1.3900 B( 69-C , 70-C ) :   1.4027 B( 69-C , 74-H ) :   0.9797
B( 70-C , 71-C ) :   1.4312 B( 70-C , 75-H ) :   0.9712 B( 71-C , 72-N ) :   1.2854
B( 71-C , 76-H ) :   0.9421 B( 72-N , 73-C ) :   1.3430 B( 73-C , 77-H ) :   0.9615
B( 78-C , 79-C ) :   2.5973 B( 78-C , 96-C ) :   1.0007 B( 79-C , 80-C ) :   1.0003
B( 80-C , 81-C ) :   1.4340 B( 80-C , 89-C ) :   1.2347 B( 81-C , 82-C ) :   1.2676
B( 81-C , 90-H ) :   0.9920 B( 82-C , 83-C ) :   1.4727 B( 82-C , 91-H ) :   0.9804
B( 83-C , 84-C ) :   1.2343 B( 83-C , 92-H ) :   0.9972 B( 84-C , 85-C ) :   1.2931
B( 84-C , 89-C ) :   1.2228 B( 85-C , 86-N ) :   1.4068 B( 85-C , 93-H ) :   0.9544
B( 86-N , 87-C ) :   1.2081 B( 87-C , 88-C ) :   1.5291 B( 87-C , 94-H ) :   0.9402
B( 88-C , 89-C ) :   1.2950 B( 88-C , 95-H ) :   0.9558 B( 96-C , 97-C ) :   1.3338
B( 96-C ,101-C ) :   1.3476 B( 97-C , 98-C ) :   1.3852 B( 97-C ,102-H ) :   0.9958
B( 98-C , 99-C ) :   1.3959 B( 98-C ,103-H ) :   0.9826 B( 99-C ,100-C ) :   1.3567
B( 99-C ,104-H ) :   0.9883 B(100-C ,101-C ) :   1.3601 B(100-C ,106-C ) :   1.0095
B(101-C ,105-H ) :   0.9854 B(106-C ,107-C ) :   1.3717 B(106-C ,111-C ) :   1.3999
B(107-C ,108-C ) :   1.4080 B(107-C ,112-H ) :   0.9794 B(108-C ,109-C ) :   1.4217
B(108-C ,113-H ) :   0.9725 B(109-C ,110-N ) :   1.3153 B(109-C ,114-H ) :   0.9471
B(110-N ,111-C ) :   1.3153 B(111-C ,115-H ) :   0.9556 B(116-C ,117-C ) :   2.5949
B(116-C ,134-C ) :   1.0022 B(117-C ,118-C ) :   1.0074 B(118-C ,119-C ) :   1.4261
B(118-C ,127-C ) :   1.2396 B(119-C ,120-C ) :   1.2711 B(119-C ,128-H ) :   0.9922
B(120-C ,121-C ) :   1.4692 B(120-C ,129-H ) :   0.9803 B(121-C ,122-C ) :   1.2402
B(121-C ,130-H ) :   0.9961 B(122-C ,123-C ) :   1.2768 B(122-C ,127-C ) :   1.2262
B(123-C ,124-N ) :   1.4355 B(123-C ,131-H ) :   0.9638 B(124-N ,125-C ) :   1.1692
B(125-C ,126-C ) :   1.5376 B(125-C ,132-H ) :   0.9416 B(126-C ,127-C ) :   1.2882
B(126-C ,133-H ) :   0.9551 B(134-C ,135-C ) :   1.3349 B(134-C ,139-C ) :   1.3420
B(135-C ,136-C ) :   1.3847 B(135-C ,140-H ) :   0.9956 B(136-C ,137-C ) :   1.3937
B(136-C ,141-H ) :   0.9833 B(137-C ,138-C ) :   1.3549 B(137-C ,142-H ) :   0.9900
B(138-C ,139-C ) :   1.3698 B(138-C ,144-C ) :   1.0009 B(139-C ,143-H ) :   0.9880
B(144-C ,145-C ) :   1.3796 B(144-C ,149-C ) :   1.3935 B(145-C ,146-C ) :   1.3998
B(145-C ,150-H ) :   0.9810 B(146-C ,147-C ) :   1.4310 B(146-C ,151-H ) :   0.9717
B(147-C ,148-N ) :   1.2868 B(147-C ,152-H ) :   0.9434 B(148-N ,149-C ) :   1.3418
B(149-C ,153-H ) :   0.9607

Dispersion correction           -0.252677409
FINAL SINGLE POINT ENERGY     -4072.754769631757

DIPOLE MOMENT
-------------
                                X             Y             Z
Electronic contribution:     59.14044      -3.28022     -10.52256
Nuclear contribution   :    -59.61862       2.05141      10.68913
                        -----------------------------------------
Total Dipole Moment    :     -0.47818      -1.22881       0.16656
                        -----------------------------------------
Magnitude (a.u.)       :      1.32905
Magnitude (Debye)      :      3.37818

Rotational constants in cm-1:     0.000556     0.000428     0.000413
Rotational constants in MHz :    16.660618    12.845862    12.370563

                             ****ORCA TERMINATED NORMALLY****
TOTAL RUN TIME: 0 days 0 hours 16 minutes 1 seconds 921 msec
