                         Program Version 4.2.1 -  RELEASE  -
|  1> ! DFT SP B97-3c TightSCF printbasis  Grid6 NOFINALGRID SlowConv
|  2>
|  3> %base "_s_5d1_a_B97-3c"
|  4> %maxcore 3000
|  5> %scf
|  6>    MaxIter 2000
|  7> end
|  8> %pal
|  9>    nprocs 32
| 10> end
| 11>
| 12> * xyzfile 4 1 s_5d1_a.xyz
| 13>
| 14>                          ****END OF INPUT****

CARTESIAN COORDINATES (ANGSTROEM)
---------------------------------
  Pd    -0.757000    4.828600   -0.420600
  Pd    -0.245100   -3.939100   -0.113000
  C      5.787100    1.303500   -0.664500
  C      5.668200    2.505600   -0.603900
  C      5.296500    3.862900   -0.513000
  C      6.188800    4.883900   -0.250000
  C      5.740900    6.204500   -0.109100
  C      4.409200    6.521100   -0.202900
  C      3.465800    5.507600   -0.476900
  C      2.076600    5.746800   -0.538900
  N      1.205300    4.794700   -0.793300
  C      1.639500    3.531900   -1.055100
  C      2.957800    3.192800   -0.997500
  C      3.915100    4.171400   -0.665000
  H      7.239900    4.663000   -0.142300
  H      6.464700    6.979300    0.092800
  H      4.075200    7.537400   -0.067100
  H      1.683200    6.741900   -0.360000
  H      0.881000    2.796700   -1.322700
  H      3.283300    2.185100   -1.199200
  C      5.919300   -0.099200   -0.762100
  C      7.050400   -0.662800   -1.355400
  C      7.146600   -2.036800   -1.474600
  C      6.139800   -2.853700   -0.991300
  C      5.007800   -2.302700   -0.384800
  C      4.895200   -0.921400   -0.283500
  H      7.839100   -0.023100   -1.721000
  H      8.015200   -2.475100   -1.941800
  H      6.226400   -3.923300   -1.104300
  H      4.043200   -0.474800    0.205100
  C      3.984700   -3.216200    0.155600
  C      4.391300   -4.352800    0.861200
  C      3.444500   -5.255400    1.312700
  C      2.110300   -5.012900    1.043700
  N      1.710400   -3.912200    0.393400
  C      2.615400   -3.026600   -0.034000
  H      5.439100   -4.518600    1.056900
  H      3.737500   -6.139500    1.855300
  H      1.342900   -5.717900    1.355900
  H      2.226200   -2.161200   -0.560600
  C     -0.203900    1.190600    6.042800
  C     -0.376900    2.384200    5.950400
  C     -0.593800    3.734800    5.608000
  C     -0.959400    4.705700    6.519900
  C     -1.222800    6.016600    6.099600
  C     -1.150900    6.370500    4.776000
  C     -0.774600    5.409400    3.813300
  C     -0.727900    5.684000    2.430100
  N     -0.378000    4.780200    1.540500
  C      0.003400    3.540000    1.949800
  C     -0.029300    3.167700    3.259900
  C     -0.461900    4.087700    4.235200
  H     -1.052900    4.451800    7.564900
  H     -1.502800    6.752000    6.838400
  H     -1.381300    7.376500    4.463100
  H     -0.999800    6.665800    2.056800
  H      0.346800    2.851900    1.178400
  H      0.267500    2.177400    3.565300
  C      0.025500   -0.199200    6.144000
  C      0.664600   -0.729900    7.266100
  C      0.913500   -2.088200    7.331900
  C      0.514700   -2.923800    6.303600
  C     -0.136600   -2.406900    5.180500
  C     -0.368400   -1.039200    5.098600
  H      0.964200   -0.076800    8.071400
  H      1.416500   -2.500100    8.193500
  H      0.729100   -3.979400    6.366700
  H     -0.893600   -0.621400    4.253800
  C     -0.583000   -3.343700    4.133400
  C     -1.176400   -4.552600    4.509500
  C     -1.534900   -5.472300    3.539600
  C     -1.287200   -5.173000    2.212900
  N     -0.746500   -4.004700    1.842400
  C     -0.408900   -3.103900    2.769900
  H     -1.358600   -4.761400    5.552000
  H     -1.989400   -6.411800    3.809200
  H     -1.526600   -5.886700    1.427100
  H      0.032800   -2.183000    2.403500
  C     -6.849300    0.595700    0.176800
  C     -6.873900    1.796800    0.036100
  C     -6.663200    3.178700   -0.149500
  C     -7.672000    4.073200   -0.449600
  C     -7.381600    5.424400   -0.683000
  C     -6.093500    5.895400   -0.644300
  C     -5.034600    5.015100   -0.334800
  C     -3.681300    5.414700   -0.321800
  N     -2.701600    4.585900   -0.032700
  C     -2.982500    3.300000    0.312700
  C     -4.253600    2.810000    0.309000
  C     -5.323600    3.651000   -0.054800
  H     -8.692800    3.728300   -0.514800
  H     -8.193500    6.097600   -0.912100
  H     -5.881600    6.932600   -0.850200
  H     -3.408900    6.435200   -0.569200
  H     -2.139700    2.672900    0.602500
  H     -4.456900    1.786100    0.577800
  C     -6.812600   -0.803200    0.366900
  C     -7.862700   -1.456700    1.014500
  C     -7.793100   -2.821700    1.222600
  C     -6.700800   -3.543600    0.774900
  C     -5.648400   -2.903100    0.115300
  C     -5.702200   -1.527900   -0.075700
  H     -8.718500   -0.892400    1.352000
  H     -8.598800   -3.328300    1.731700
  H     -6.658300   -4.606300    0.956800
  H     -4.914100   -1.016700   -0.606400
  C     -4.529100   -3.722800   -0.383500
  C     -4.805200   -4.940700   -1.012400
  C     -3.762700   -5.753300   -1.421800
  C     -2.464000   -5.341500   -1.186400
  N     -2.190600   -4.163800   -0.609800
  C     -3.190000   -3.364100   -0.225100
  H     -5.827900   -5.239000   -1.182200
  H     -3.954200   -6.697400   -1.905600
  H     -1.622000   -5.971000   -1.465900
  H     -2.901300   -2.427900    0.241500
  C     -0.789400    0.727900   -6.612000
  C     -0.752800    1.936900   -6.603500
  C     -0.695900    3.323800   -6.354800
  C     -0.419800    4.264700   -7.327500
  C     -0.313800    5.622800   -6.997000
  C     -0.454800    6.056200   -5.703000
  C     -0.743600    5.127100   -4.680400
  C     -0.849800    5.488500   -3.320500
  N     -1.116100    4.614100   -2.374300
  C     -1.350200    3.314200   -2.701200
  C     -1.248500    2.859300   -3.981500
  C     -0.898200    3.753000   -5.012600
  H     -0.274400    3.952000   -8.350300
  H     -0.100600    6.332600   -7.781600
  H     -0.344900    7.100800   -5.458500
  H     -0.696000    6.517800   -3.013700
  H     -1.633000    2.646000   -1.888900
  H     -1.427800    1.823600   -4.220700
  C     -0.862200   -0.682600   -6.617500
  C     -1.425200   -1.355800   -7.703300
  C     -1.523300   -2.734500   -7.676000
  C     -1.048400   -3.448800   -6.590300
  C     -0.471300   -2.787900   -5.502500
  C     -0.391800   -1.400600   -5.514400
  H     -1.784300   -0.796200   -8.553400
  H     -1.967400   -3.257200   -8.509400
  H     -1.145300   -4.523400   -6.581000
  H      0.073600   -0.870600   -4.697900
  C      0.062500   -3.597000   -4.391800
  C      0.789300   -4.755500   -4.682900
  C      1.234700   -5.563700   -3.651700
  C      0.940400   -5.205700   -2.349300
  N      0.271200   -4.081600   -2.060700
  C     -0.152500   -3.287400   -3.048300
  H      1.005800   -5.011700   -5.708100
  H      1.792200   -6.463500   -3.855300
  H      1.247100   -5.835200   -1.516400
  H     -0.696900   -2.398500   -2.746800

 Total Charge           Charge          ....    4
 Multiplicity           Mult            ....    1
 Number of Electrons    NEL             ....  672
 Basis Dimension        Dim             .... 2058

ORBITAL ENERGIES
----------------

  NO   OCC          E(Eh)            E(eV)
   0   2.0000     -14.359158      -390.7326
   1   2.0000     -14.359113      -390.7313
   2   2.0000     -14.359077      -390.7304
   3   2.0000     -14.358992      -390.7280
   4   2.0000     -14.339337      -390.1932
   5   2.0000     -14.339235      -390.1904
   6   2.0000     -14.339133      -390.1876
   7   2.0000     -14.338835      -390.1795
   8   2.0000     -10.251566      -278.9593
   9   2.0000     -10.251488      -278.9572
  10   2.0000     -10.251480      -278.9570
  11   2.0000     -10.251390      -278.9545
  12   2.0000     -10.247753      -278.8555
  13   2.0000     -10.247661      -278.8530
  14   2.0000     -10.247632      -278.8522
  15   2.0000     -10.247555      -278.8501
  16   2.0000     -10.239664      -278.6354
  17   2.0000     -10.239608      -278.6339
  18   2.0000     -10.239575      -278.6330
  19   2.0000     -10.239359      -278.6271
  20   2.0000     -10.229680      -278.3637
  21   2.0000     -10.229674      -278.3636
  22   2.0000     -10.229507      -278.3590
  23   2.0000     -10.229231      -278.3515
  24   2.0000     -10.222870      -278.1784
  25   2.0000     -10.222772      -278.1758
  26   2.0000     -10.222761      -278.1755
  27   2.0000     -10.222679      -278.1732
  28   2.0000     -10.213139      -277.9137
  29   2.0000     -10.213055      -277.9114
  30   2.0000     -10.212999      -277.9098
  31   2.0000     -10.212968      -277.9090
  32   2.0000     -10.210064      -277.8300
  33   2.0000     -10.209950      -277.8269
  34   2.0000     -10.209946      -277.8268
  35   2.0000     -10.209860      -277.8244
  36   2.0000     -10.203660      -277.6557
  37   2.0000     -10.203611      -277.6544
  38   2.0000     -10.203485      -277.6509
  39   2.0000     -10.203361      -277.6476
  40   2.0000     -10.201913      -277.6082
  41   2.0000     -10.201859      -277.6067
  42   2.0000     -10.201761      -277.6040
  43   2.0000     -10.201628      -277.6004
  44   2.0000     -10.198108      -277.5046
  45   2.0000     -10.198070      -277.5036
  46   2.0000     -10.197912      -277.4993
  47   2.0000     -10.197853      -277.4977
  48   2.0000     -10.196724      -277.4670
  49   2.0000     -10.196610      -277.4639
  50   2.0000     -10.196601      -277.4636
  51   2.0000     -10.196327      -277.4562
  52   2.0000     -10.188366      -277.2395
  53   2.0000     -10.188356      -277.2393
  54   2.0000     -10.188255      -277.2365
  55   2.0000     -10.188188      -277.2347
  56   2.0000     -10.188026      -277.2303
  57   2.0000     -10.188004      -277.2297
  58   2.0000     -10.187893      -277.2267
  59   2.0000     -10.187883      -277.2264
  60   2.0000     -10.177646      -276.9478
  61   2.0000     -10.177637      -276.9476
  62   2.0000     -10.177510      -276.9441
  63   2.0000     -10.177495      -276.9437
  64   2.0000     -10.177275      -276.9377
  65   2.0000     -10.177269      -276.9376
  66   2.0000     -10.177060      -276.9319
  67   2.0000     -10.177053      -276.9317
  68   2.0000     -10.176663      -276.9211
  69   2.0000     -10.176655      -276.9209
  70   2.0000     -10.176464      -276.9157
  71   2.0000     -10.176449      -276.9153
  72   2.0000     -10.170364      -276.7497
  73   2.0000     -10.170353      -276.7494
  74   2.0000     -10.170151      -276.7439
  75   2.0000     -10.170137      -276.7435
  76   2.0000     -10.167788      -276.6796
  77   2.0000     -10.167788      -276.6796
  78   2.0000     -10.167699      -276.6772
  79   2.0000     -10.167614      -276.6748
  80   2.0000     -10.163135      -276.5530
  81   2.0000     -10.163130      -276.5528
  82   2.0000     -10.163011      -276.5496
  83   2.0000     -10.162945      -276.5478
  84   2.0000     -10.162799      -276.5438
  85   2.0000     -10.162798      -276.5438
  86   2.0000     -10.162633      -276.5393
  87   2.0000     -10.162601      -276.5384
  88   2.0000     -10.159942      -276.4661
  89   2.0000     -10.159942      -276.4661
  90   2.0000     -10.159781      -276.4617
  91   2.0000     -10.159746      -276.4607
  92   2.0000     -10.158132      -276.4168
  93   2.0000     -10.158124      -276.4166
  94   2.0000     -10.158055      -276.4147
  95   2.0000     -10.157932      -276.4114
  96   2.0000      -3.667414       -99.7954
  97   2.0000      -3.650442       -99.3336
  98   2.0000      -2.397671       -65.2439
  99   2.0000      -2.397522       -65.2399
 100   2.0000      -2.381062       -64.7920
 101   2.0000      -2.380813       -64.7852
 102   2.0000      -2.355401       -64.0937
 103   2.0000      -2.338680       -63.6387
 104   2.0000      -1.220612       -33.2145
 105   2.0000      -1.213766       -33.0283
 106   2.0000      -1.213593       -33.0235
 107   2.0000      -1.212160       -32.9845
 108   2.0000      -1.204015       -32.7629
 109   2.0000      -1.196971       -32.5712
 110   2.0000      -1.196687       -32.5635
 111   2.0000      -1.195679       -32.5361
 112   2.0000      -1.085575       -29.5400
 113   2.0000      -1.084673       -29.5155
 114   2.0000      -1.084547       -29.5120
 115   2.0000      -1.084460       -29.5097
 116   2.0000      -1.081793       -29.4371
 117   2.0000      -1.081023       -29.4161
 118   2.0000      -1.080944       -29.4140
 119   2.0000      -1.080889       -29.4125
 120   2.0000      -1.052485       -28.6396
 121   2.0000      -1.050945       -28.5977
 122   2.0000      -1.050742       -28.5921
 123   2.0000      -1.050706       -28.5912
 124   2.0000      -1.027358       -27.9558
 125   2.0000      -1.026983       -27.9456
 126   2.0000      -1.026887       -27.9430
 127   2.0000      -1.026555       -27.9340
 128   2.0000      -1.024752       -27.8849
 129   2.0000      -1.023910       -27.8620
 130   2.0000      -1.023768       -27.8581
 131   2.0000      -1.022944       -27.8357
 132   2.0000      -1.004470       -27.3330
 133   2.0000      -1.002958       -27.2919
 134   2.0000      -1.002516       -27.2798
 135   2.0000      -1.002437       -27.2777
 136   2.0000      -0.989393       -26.9228
 137   2.0000      -0.988398       -26.8957
 138   2.0000      -0.988333       -26.8939
 139   2.0000      -0.987673       -26.8759
 140   2.0000      -0.975357       -26.5408
 141   2.0000      -0.974493       -26.5173
 142   2.0000      -0.974427       -26.5155
 143   2.0000      -0.973475       -26.4896
 144   2.0000      -0.961244       -26.1568
 145   2.0000      -0.960895       -26.1473
 146   2.0000      -0.960876       -26.1468
 147   2.0000      -0.960633       -26.1401
 148   2.0000      -0.928872       -25.2759
 149   2.0000      -0.928556       -25.2673
 150   2.0000      -0.928502       -25.2658
 151   2.0000      -0.928256       -25.2591
 152   2.0000      -0.899046       -24.4643
 153   2.0000      -0.898532       -24.4503
 154   2.0000      -0.898431       -24.4476
 155   2.0000      -0.898066       -24.4376
 156   2.0000      -0.895578       -24.3699
 157   2.0000      -0.893182       -24.3047
 158   2.0000      -0.892994       -24.2996
 159   2.0000      -0.892081       -24.2748
 160   2.0000      -0.891848       -24.2684
 161   2.0000      -0.890517       -24.2322
 162   2.0000      -0.888705       -24.1829
 163   2.0000      -0.888644       -24.1812
 164   2.0000      -0.871203       -23.7067
 165   2.0000      -0.868241       -23.6260
 166   2.0000      -0.868052       -23.6209
 167   2.0000      -0.867941       -23.6179
 168   2.0000      -0.857117       -23.3233
 169   2.0000      -0.856762       -23.3137
 170   2.0000      -0.856685       -23.3116
 171   2.0000      -0.856526       -23.3073
 172   2.0000      -0.831002       -22.6127
 173   2.0000      -0.830425       -22.5970
 174   2.0000      -0.830363       -22.5953
 175   2.0000      -0.830322       -22.5942
 176   2.0000      -0.830218       -22.5914
 177   2.0000      -0.827826       -22.5263
 178   2.0000      -0.826072       -22.4786
 179   2.0000      -0.826041       -22.4777
 180   2.0000      -0.807894       -21.9839
 181   2.0000      -0.799948       -21.7677
 182   2.0000      -0.797234       -21.6938
 183   2.0000      -0.797165       -21.6920
 184   2.0000      -0.791209       -21.5299
 185   2.0000      -0.784318       -21.3424
 186   2.0000      -0.782713       -21.2987
 187   2.0000      -0.782635       -21.2966
 188   2.0000      -0.774347       -21.0710
 189   2.0000      -0.770898       -20.9772
 190   2.0000      -0.770698       -20.9718
 191   2.0000      -0.769742       -20.9457
 192   2.0000      -0.762274       -20.7425
 193   2.0000      -0.762204       -20.7406
 194   2.0000      -0.762145       -20.7390
 195   2.0000      -0.761460       -20.7204
 196   2.0000      -0.760488       -20.6939
 197   2.0000      -0.758830       -20.6488
 198   2.0000      -0.757664       -20.6171
 199   2.0000      -0.757601       -20.6154
 200   2.0000      -0.757416       -20.6103
 201   2.0000      -0.755691       -20.5634
 202   2.0000      -0.749810       -20.4034
 203   2.0000      -0.749671       -20.3996
 204   2.0000      -0.732316       -19.9273
 205   2.0000      -0.724618       -19.7179
 206   2.0000      -0.721977       -19.6460
 207   2.0000      -0.719296       -19.5730
 208   2.0000      -0.718470       -19.5505
 209   2.0000      -0.717536       -19.5252
 210   2.0000      -0.717441       -19.5226
 211   2.0000      -0.713603       -19.4181
 212   2.0000      -0.713509       -19.4156
 213   2.0000      -0.712532       -19.3890
 214   2.0000      -0.710781       -19.3413
 215   2.0000      -0.710126       -19.3235
 216   2.0000      -0.708763       -19.2864
 217   2.0000      -0.707821       -19.2608
 218   2.0000      -0.705985       -19.2108
 219   2.0000      -0.705881       -19.2080
 220   2.0000      -0.702681       -19.1209
 221   2.0000      -0.702330       -19.1114
 222   2.0000      -0.701938       -19.1007
 223   2.0000      -0.701431       -19.0869
 224   2.0000      -0.701372       -19.0853
 225   2.0000      -0.700208       -19.0536
 226   2.0000      -0.693988       -18.8844
 227   2.0000      -0.691852       -18.8262
 228   2.0000      -0.690842       -18.7988
 229   2.0000      -0.690762       -18.7966
 230   2.0000      -0.689577       -18.7644
 231   2.0000      -0.686530       -18.6814
 232   2.0000      -0.685852       -18.6630
 233   2.0000      -0.685753       -18.6603
 234   2.0000      -0.685248       -18.6465
 235   2.0000      -0.682955       -18.5841
 236   2.0000      -0.682243       -18.5648
 237   2.0000      -0.681185       -18.5360
 238   2.0000      -0.679919       -18.5015
 239   2.0000      -0.679133       -18.4801
 240   2.0000      -0.679075       -18.4786
 241   2.0000      -0.677265       -18.4293
 242   2.0000      -0.674286       -18.3483
 243   2.0000      -0.674224       -18.3466
 244   2.0000      -0.672414       -18.2973
 245   2.0000      -0.672077       -18.2881
 246   2.0000      -0.671982       -18.2856
 247   2.0000      -0.669310       -18.2128
 248   2.0000      -0.656967       -17.8770
 249   2.0000      -0.655136       -17.8271
 250   2.0000      -0.654612       -17.8129
 251   2.0000      -0.654561       -17.8115
 252   2.0000      -0.653887       -17.7932
 253   2.0000      -0.653065       -17.7708
 254   2.0000      -0.644874       -17.5479
 255   2.0000      -0.644698       -17.5431
 256   2.0000      -0.638994       -17.3879
 257   2.0000      -0.638635       -17.3781
 258   2.0000      -0.638599       -17.3772
 259   2.0000      -0.637884       -17.3577
 260   2.0000      -0.637247       -17.3404
 261   2.0000      -0.636167       -17.3110
 262   2.0000      -0.635127       -17.2827
 263   2.0000      -0.632957       -17.2236
 264   2.0000      -0.630949       -17.1690
 265   2.0000      -0.624405       -16.9909
 266   2.0000      -0.624153       -16.9841
 267   2.0000      -0.618880       -16.8406
 268   2.0000      -0.618612       -16.8333
 269   2.0000      -0.616783       -16.7835
 270   2.0000      -0.616723       -16.7819
 271   2.0000      -0.611292       -16.6341
 272   2.0000      -0.611063       -16.6279
 273   2.0000      -0.610974       -16.6255
 274   2.0000      -0.605467       -16.4756
 275   2.0000      -0.598890       -16.2966
 276   2.0000      -0.598839       -16.2952
 277   2.0000      -0.596338       -16.2272
 278   2.0000      -0.596060       -16.2196
 279   2.0000      -0.593657       -16.1542
 280   2.0000      -0.593615       -16.1531
 281   2.0000      -0.593243       -16.1430
 282   2.0000      -0.593113       -16.1394
 283   2.0000      -0.590575       -16.0704
 284   2.0000      -0.590474       -16.0676
 285   2.0000      -0.589110       -16.0305
 286   2.0000      -0.589007       -16.0277
 287   2.0000      -0.586670       -15.9641
 288   2.0000      -0.586563       -15.9612
 289   2.0000      -0.585306       -15.9270
 290   2.0000      -0.583337       -15.8734
 291   2.0000      -0.578731       -15.7481
 292   2.0000      -0.578692       -15.7470
 293   2.0000      -0.575232       -15.6528
 294   2.0000      -0.573228       -15.5983
 295   2.0000      -0.572989       -15.5918
 296   2.0000      -0.571784       -15.5590
 297   2.0000      -0.568689       -15.4748
 298   2.0000      -0.567523       -15.4431
 299   2.0000      -0.567401       -15.4398
 300   2.0000      -0.565982       -15.4012
 301   2.0000      -0.558974       -15.2105
 302   2.0000      -0.558351       -15.1935
 303   2.0000      -0.558237       -15.1904
 304   2.0000      -0.557960       -15.1829
 305   2.0000      -0.555451       -15.1146
 306   2.0000      -0.555197       -15.1077
 307   2.0000      -0.552539       -15.0354
 308   2.0000      -0.549551       -14.9540
 309   2.0000      -0.549397       -14.9499
 310   2.0000      -0.542358       -14.7583
 311   2.0000      -0.540716       -14.7136
 312   2.0000      -0.540552       -14.7092
 313   2.0000      -0.537211       -14.6182
 314   2.0000      -0.530717       -14.4415
 315   2.0000      -0.527049       -14.3417
 316   2.0000      -0.526952       -14.3391
 317   2.0000      -0.526874       -14.3370
 318   2.0000      -0.519077       -14.1248
 319   2.0000      -0.516845       -14.0641
 320   2.0000      -0.515537       -14.0285
 321   2.0000      -0.515150       -14.0179
 322   2.0000      -0.515070       -14.0158
 323   2.0000      -0.511279       -13.9126
 324   2.0000      -0.498094       -13.5538
 325   2.0000      -0.497847       -13.5471
 326   2.0000      -0.497796       -13.5457
 327   2.0000      -0.497653       -13.5418
 328   2.0000      -0.494624       -13.4594
 329   2.0000      -0.494536       -13.4570
 330   2.0000      -0.494277       -13.4500
 331   2.0000      -0.493801       -13.4370
 332   2.0000      -0.464189       -12.6312
 333   2.0000      -0.463798       -12.6206
 334   2.0000      -0.463704       -12.6180
 335   2.0000      -0.463185       -12.6039
 336   0.0000      -0.410377       -11.1669
 337   0.0000      -0.390186       -10.6175
 338   0.0000      -0.381925       -10.3927
 339   0.0000      -0.381725       -10.3873
 340   0.0000      -0.380722       -10.3600

MULLIKEN ATOMIC CHARGES
-----------------------
   0 Pd:    0.040270
   1 Pd:    0.081866
   2 C :    0.011251
   3 C :    0.115997
   4 C :   -0.238851
   5 C :   -0.068324
   6 C :   -0.181645
   7 C :   -0.223208
   8 C :    0.131925
   9 C :   -0.196041
  10 N :   -0.092303
  11 C :   -0.188828
  12 C :   -0.024410
  13 C :    0.204162
  14 H :    0.259959
  15 H :    0.229835
  16 H :    0.236659
  17 H :    0.218236
  18 H :    0.130586
  19 H :    0.197473
  20 C :   -0.193099
  21 C :   -0.117109
  22 C :   -0.160987
  23 C :   -0.174676
  24 C :   -0.000559
  25 C :   -0.164191
  26 H :    0.248771
  27 H :    0.224806
  28 H :    0.242745
  29 H :    0.217664
  30 C :    0.009760
  31 C :   -0.185441
  32 C :   -0.045293
  33 C :   -0.123200
  34 N :   -0.111915
  35 C :   -0.123967
  36 H :    0.272207
  37 H :    0.252337
  38 H :    0.177909
  39 H :    0.202435
  40 C :    0.010545
  41 C :    0.116402
  42 C :   -0.237374
  43 C :   -0.068614
  44 C :   -0.181631
  45 C :   -0.223779
  46 C :    0.132832
  47 C :   -0.195707
  48 N :   -0.094157
  49 C :   -0.185538
  50 C :   -0.030221
  51 C :    0.205113
  52 H :    0.259876
  53 H :    0.229736
  54 H :    0.236564
  55 H :    0.217662
  56 H :    0.129871
  57 H :    0.197771
  58 C :   -0.193591
  59 C :   -0.116905
  60 C :   -0.161252
  61 C :   -0.174346
  62 C :   -0.000128
  63 C :   -0.163862
  64 H :    0.248888
  65 H :    0.224822
  66 H :    0.242926
  67 H :    0.217506
  68 C :    0.009805
  69 C :   -0.185748
  70 C :   -0.044001
  71 C :   -0.124268
  72 N :   -0.112354
  73 C :   -0.125146
  74 H :    0.272385
  75 H :    0.252371
  76 H :    0.178536
  77 H :    0.202810
  78 C :    0.011931
  79 C :    0.114767
  80 C :   -0.236880
  81 C :   -0.068885
  82 C :   -0.181261
  83 C :   -0.222758
  84 C :    0.135458
  85 C :   -0.198084
  86 N :   -0.090810
  87 C :   -0.190267
  88 C :   -0.019630
  89 C :    0.200503
  90 H :    0.259987
  91 H :    0.229913
  92 H :    0.236718
  93 H :    0.218345
  94 H :    0.128337
  95 H :    0.196125
  96 C :   -0.192716
  97 C :   -0.116828
  98 C :   -0.160975
  99 C :   -0.174989
 100 C :   -0.000133
 101 C :   -0.164081
 102 H :    0.248832
 103 H :    0.224670
 104 H :    0.242488
 105 H :    0.217839
 106 C :    0.007843
 107 C :   -0.184981
 108 C :   -0.046585
 109 C :   -0.121118
 110 N :   -0.111321
 111 C :   -0.123509
 112 H :    0.272064
 113 H :    0.252242
 114 H :    0.177182
 115 H :    0.202139
 116 C :    0.012104
 117 C :    0.115231
 118 C :   -0.236313
 119 C :   -0.068528
 120 C :   -0.181502
 121 C :   -0.223782
 122 C :    0.129565
 123 C :   -0.193175
 124 N :   -0.091661
 125 C :   -0.182276
 126 C :   -0.035140
 127 C :    0.205017
 128 H :    0.259880
 129 H :    0.229764
 130 H :    0.236568
 131 H :    0.217349
 132 H :    0.127257
 133 H :    0.198328
 134 C :   -0.192458
 135 C :   -0.117546
 136 C :   -0.161206
 137 C :   -0.174817
 138 C :    0.001181
 139 C :   -0.164060
 140 H :    0.248921
 141 H :    0.224816
 142 H :    0.243117
 143 H :    0.217087
 144 C :    0.010513
 145 C :   -0.186928
 146 C :   -0.043559
 147 C :   -0.124036
 148 N :   -0.111853
 149 C :   -0.126093
 150 H :    0.272659
 151 H :    0.252296
 152 H :    0.178114
 153 H :    0.202986
Sum of atomic charges:    4.0000000

LOEWDIN ATOMIC CHARGES
----------------------
   0 Pd:   -0.068837
   1 Pd:   -0.064568
   2 C :   -0.012355
   3 C :   -0.022443
   4 C :   -0.042125
   5 C :   -0.075956
   6 C :   -0.104424
   7 C :   -0.113740
   8 C :   -0.041670
   9 C :    0.006038
  10 N :   -0.084658
  11 C :   -0.076147
  12 C :   -0.118694
  13 C :   -0.001328
  14 H :    0.200336
  15 H :    0.196662
  16 H :    0.190211
  17 H :    0.193289
  18 H :    0.179990
  19 H :    0.196857
  20 C :   -0.056710
  21 C :   -0.093677
  22 C :   -0.117262
  23 C :   -0.127383
  24 C :   -0.066378
  25 C :   -0.128096
  26 H :    0.196187
  27 H :    0.192299
  28 H :    0.184271
  29 H :    0.172500
  30 C :   -0.027997
  31 C :   -0.073729
  32 C :   -0.120851
  33 C :   -0.047522
  34 N :   -0.080692
  35 C :   -0.026107
  36 H :    0.205038
  37 H :    0.202849
  38 H :    0.191179
  39 H :    0.185669
  40 C :   -0.012343
  41 C :   -0.022414
  42 C :   -0.042156
  43 C :   -0.075977
  44 C :   -0.104527
  45 C :   -0.113812
  46 C :   -0.041701
  47 C :    0.005994
  48 N :   -0.084623
  49 C :   -0.075842
  50 C :   -0.118642
  51 C :   -0.001229
  52 H :    0.200316
  53 H :    0.196631
  54 H :    0.190156
  55 H :    0.193193
  56 H :    0.179644
  57 H :    0.196915
  58 C :   -0.056725
  59 C :   -0.093581
  60 C :   -0.117203
  61 C :   -0.127324
  62 C :   -0.066366
  63 C :   -0.128080
  64 H :    0.196218
  65 H :    0.192324
  66 H :    0.184294
  67 H :    0.172477
  68 C :   -0.027885
  69 C :   -0.073831
  70 C :   -0.120891
  71 C :   -0.047684
  72 N :   -0.080804
  73 C :   -0.026189
  74 H :    0.205021
  75 H :    0.202836
  76 H :    0.191393
  77 H :    0.185778
  78 C :   -0.012406
  79 C :   -0.022234
  80 C :   -0.042085
  81 C :   -0.075918
  82 C :   -0.104322
  83 C :   -0.113689
  84 C :   -0.041638
  85 C :    0.006244
  86 N :   -0.084451
  87 C :   -0.076401
  88 C :   -0.118641
  89 C :   -0.001295
  90 H :    0.200350
  91 H :    0.196689
  92 H :    0.190243
  93 H :    0.193386
  94 H :    0.179575
  95 H :    0.196756
  96 C :   -0.056604
  97 C :   -0.093754
  98 C :   -0.117299
  99 C :   -0.127586
 100 C :   -0.066435
 101 C :   -0.128106
 102 H :    0.196196
 103 H :    0.192255
 104 H :    0.184213
 105 H :    0.172522
 106 C :   -0.028137
 107 C :   -0.073677
 108 C :   -0.120916
 109 C :   -0.047357
 110 N :   -0.080885
 111 C :   -0.026139
 112 H :    0.205089
 113 H :    0.202866
 114 H :    0.191152
 115 H :    0.185618
 116 C :   -0.012475
 117 C :   -0.022382
 118 C :   -0.042168
 119 C :   -0.075937
 120 C :   -0.104547
 121 C :   -0.113686
 122 C :   -0.041694
 123 C :    0.006271
 124 N :   -0.084825
 125 C :   -0.075978
 126 C :   -0.118779
 127 C :   -0.001247
 128 H :    0.200303
 129 H :    0.196616
 130 H :    0.190176
 131 H :    0.193186
 132 H :    0.179736
 133 H :    0.197064
 134 C :   -0.056741
 135 C :   -0.093523
 136 C :   -0.117203
 137 C :   -0.127320
 138 C :   -0.066378
 139 C :   -0.128090
 140 H :    0.196235
 141 H :    0.192335
 142 H :    0.184316
 143 H :    0.172468
 144 C :   -0.027846
 145 C :   -0.073863
 146 C :   -0.120879
 147 C :   -0.047834
 148 N :   -0.080824
 149 C :   -0.026102
 150 H :    0.205053
 151 H :    0.202837
 152 H :    0.191345
 153 H :    0.185808

  Mayer bond orders larger than 0.100000
B(  0-Pd, 10-N ) :   0.5210 B(  0-Pd, 48-N ) :   0.5241 B(  0-Pd, 86-N ) :   0.5195
B(  0-Pd,124-N ) :   0.5265 B(  1-Pd, 34-N ) :   0.5120 B(  1-Pd, 72-N ) :   0.5104
B(  1-Pd,110-N ) :   0.5134 B(  1-Pd,148-N ) :   0.5102 B(  2-C ,  3-C ) :   1.9167
B(  2-C ,  4-C ) :  -0.2754 B(  2-C , 20-C ) :   1.4971 B(  3-C ,  4-C ) :   1.4750
B(  3-C , 13-C ) :  -0.1844 B(  3-C , 20-C ) :  -0.3924 B(  4-C ,  5-C ) :   1.5175
B(  4-C , 13-C ) :   1.1237 B(  5-C ,  6-C ) :   1.3993 B(  5-C , 14-H ) :   0.8497
B(  6-C ,  7-C ) :   1.6544 B(  6-C , 15-H ) :   0.8708 B(  7-C ,  8-C ) :   1.3185
B(  7-C , 16-H ) :   0.8621 B(  8-C ,  9-C ) :   1.2473 B(  8-C , 13-C ) :   1.0973
B(  9-C , 10-N ) :   1.5314 B(  9-C , 13-C ) :  -0.1129 B(  9-C , 17-H ) :   0.9189
B( 10-N , 11-C ) :   1.2299 B( 11-C , 12-C ) :   1.5319 B( 11-C , 13-C ) :   0.1093
B( 11-C , 18-H ) :   0.9161 B( 12-C , 13-C ) :   1.3396 B( 12-C , 19-H ) :   0.8727
B( 20-C , 21-C ) :   1.3910 B( 20-C , 25-C ) :   1.4058 B( 21-C , 22-C ) :   1.5338
B( 21-C , 26-H ) :   0.8760 B( 22-C , 23-C ) :   1.5775 B( 22-C , 27-H ) :   0.8716
B( 23-C , 24-C ) :   1.3618 B( 23-C , 28-H ) :   0.8493 B( 24-C , 25-C ) :   1.3732
B( 24-C , 30-C ) :   0.9004 B( 25-C , 29-H ) :   0.8827 B( 30-C , 31-C ) :   1.4294
B( 30-C , 35-C ) :   1.3809 B( 31-C , 32-C ) :   1.5087 B( 31-C , 36-H ) :   0.8723
B( 32-C , 33-C ) :   1.4560 B( 32-C , 37-H ) :   0.8637 B( 33-C , 34-N ) :   1.3174
B( 33-C , 38-H ) :   0.9323 B( 34-N , 35-C ) :   1.4090 B( 35-C , 39-H ) :   0.9140
B( 40-C , 41-C ) :   1.9179 B( 40-C , 42-C ) :  -0.2742 B( 40-C , 58-C ) :   1.4965
B( 41-C , 42-C ) :   1.4737 B( 41-C , 51-C ) :  -0.1840 B( 41-C , 58-C ) :  -0.3925
B( 42-C , 43-C ) :   1.5181 B( 42-C , 51-C ) :   1.1234 B( 43-C , 44-C ) :   1.3990
B( 43-C , 52-H ) :   0.8497 B( 44-C , 45-C ) :   1.6543 B( 44-C , 53-H ) :   0.8709
B( 45-C , 46-C ) :   1.3191 B( 45-C , 54-H ) :   0.8622 B( 46-C , 47-C ) :   1.2456
B( 46-C , 51-C ) :   1.0972 B( 47-C , 48-N ) :   1.5301 B( 47-C , 51-C ) :  -0.1133
B( 47-C , 55-H ) :   0.9195 B( 48-N , 49-C ) :   1.2300 B( 49-C , 50-C ) :   1.5361
B( 49-C , 51-C ) :   0.1070 B( 49-C , 56-H ) :   0.9153 B( 50-C , 51-C ) :   1.3419
B( 50-C , 57-H ) :   0.8730 B( 58-C , 59-C ) :   1.3909 B( 58-C , 63-C ) :   1.4057
B( 59-C , 60-C ) :   1.5340 B( 59-C , 64-H ) :   0.8759 B( 60-C , 61-C ) :   1.5777
B( 60-C , 65-H ) :   0.8716 B( 61-C , 62-C ) :   1.3617 B( 61-C , 66-H ) :   0.8490
B( 62-C , 63-C ) :   1.3723 B( 62-C , 68-C ) :   0.9008 B( 63-C , 67-H ) :   0.8828
B( 68-C , 69-C ) :   1.4290 B( 68-C , 73-C ) :   1.3799 B( 69-C , 70-C ) :   1.5085
B( 69-C , 74-H ) :   0.8720 B( 70-C , 71-C ) :   1.4550 B( 70-C , 75-H ) :   0.8635
B( 71-C , 72-N ) :   1.3171 B( 71-C , 76-H ) :   0.9327 B( 72-N , 73-C ) :   1.4095
B( 73-C , 77-H ) :   0.9142 B( 78-C , 79-C ) :   1.9160 B( 78-C , 80-C ) :  -0.2752
B( 78-C , 96-C ) :   1.4963 B( 79-C , 80-C ) :   1.4749 B( 79-C , 81-C ) :  -0.1001
B( 79-C , 89-C ) :  -0.1835 B( 79-C , 96-C ) :  -0.3921 B( 80-C , 81-C ) :   1.5169
B( 80-C , 89-C ) :   1.1246 B( 81-C , 82-C ) :   1.3993 B( 81-C , 90-H ) :   0.8498
B( 82-C , 83-C ) :   1.6544 B( 82-C , 91-H ) :   0.8706 B( 83-C , 84-C ) :   1.3188
B( 83-C , 92-H ) :   0.8618 B( 84-C , 85-C ) :   1.2462 B( 84-C , 89-C ) :   1.0975
B( 85-C , 86-N ) :   1.5308 B( 85-C , 89-C ) :  -0.1124 B( 85-C , 93-H ) :   0.9193
B( 86-N , 87-C ) :   1.2282 B( 87-C , 88-C ) :   1.5314 B( 87-C , 89-C ) :   0.1130
B( 87-C , 94-H ) :   0.9158 B( 88-C , 89-C ) :   1.3374 B( 88-C , 95-H ) :   0.8727
B( 96-C , 97-C ) :   1.3908 B( 96-C ,101-C ) :   1.4045 B( 97-C , 98-C ) :   1.5335
B( 97-C ,102-H ) :   0.8759 B( 98-C , 99-C ) :   1.5770 B( 98-C ,103-H ) :   0.8718
B( 99-C ,100-C ) :   1.3619 B( 99-C ,104-H ) :   0.8497 B(100-C ,101-C ) :   1.3749
B(100-C ,106-C ) :   0.8992 B(101-C ,105-H ) :   0.8826 B(106-C ,107-C ) :   1.4292
B(106-C ,111-C ) :   1.3825 B(107-C ,108-C ) :   1.5083 B(107-C ,112-H ) :   0.8728
B(108-C ,109-C ) :   1.4560 B(108-C ,113-H ) :   0.8639 B(109-C ,110-N ) :   1.3174
B(109-C ,114-H ) :   0.9326 B(110-N ,111-C ) :   1.4090 B(111-C ,115-H ) :   0.9138
B(116-C ,117-C ) :   1.9201 B(116-C ,118-C ) :  -0.2748 B(116-C ,134-C ) :   1.4945
B(117-C ,118-C ) :   1.4743 B(117-C ,127-C ) :  -0.1840 B(117-C ,134-C ) :  -0.3905
B(118-C ,119-C ) :   1.5175 B(118-C ,127-C ) :   1.1245 B(119-C ,120-C ) :   1.3989
B(119-C ,128-H ) :   0.8496 B(120-C ,121-C ) :   1.6551 B(120-C ,129-H ) :   0.8709
B(121-C ,122-C ) :   1.3191 B(121-C ,130-H ) :   0.8621 B(122-C ,123-C ) :   1.2461
B(122-C ,127-C ) :   1.0971 B(123-C ,124-N ) :   1.5306 B(123-C ,127-C ) :  -0.1131
B(123-C ,131-H ) :   0.9196 B(124-N ,125-C ) :   1.2295 B(125-C ,126-C ) :   1.5387
B(125-C ,127-C ) :   0.1058 B(125-C ,132-H ) :   0.9148 B(126-C ,127-C ) :   1.3420
B(126-C ,133-H ) :   0.8735 B(134-C ,135-C ) :   1.3919 B(134-C ,139-C ) :   1.4059
B(135-C ,136-C ) :   1.5340 B(135-C ,140-H ) :   0.8759 B(136-C ,137-C ) :   1.5781
B(136-C ,141-H ) :   0.8716 B(137-C ,138-C ) :   1.3614 B(137-C ,142-H ) :   0.8488
B(138-C ,139-C ) :   1.3715 B(138-C ,144-C ) :   0.9010 B(139-C ,143-H ) :   0.8831
B(144-C ,145-C ) :   1.4289 B(144-C ,149-C ) :   1.3790 B(145-C ,146-C ) :   1.5085
B(145-C ,150-H ) :   0.8718 B(146-C ,147-C ) :   1.4555 B(146-C ,151-H ) :   0.8637
B(147-C ,148-N ) :   1.3163 B(147-C ,152-H ) :   0.9324 B(148-N ,149-C ) :   1.4096
B(149-C ,153-H ) :   0.9145

Dispersion correction           -0.590388745
FINAL SINGLE POINT ENERGY     -4078.523428376323

DIPOLE MOMENT
-------------
                                X             Y             Z
Electronic contribution:     -2.00525      12.91734      -2.02353
Nuclear contribution   :      2.14503     -15.21100       2.11863
                        -----------------------------------------
Total Dipole Moment    :      0.13978      -2.29366       0.09510
                        -----------------------------------------
Magnitude (a.u.)       :      2.29988
Magnitude (Debye)      :      5.84583

Rotational constants in cm-1:     0.000521     0.000431     0.000425
Rotational constants in MHz :    15.629405    12.912738    12.745904

                             ****ORCA TERMINATED NORMALLY****
TOTAL RUN TIME: 0 days 0 hours 9 minutes 16 seconds 582 msec
