                         Program Version 4.2.1 -  RELEASE  -
|  1> ! DFT SP B97-3c TightSCF printbasis  Grid6 NOFINALGRID SlowConv
|  2>
|  3> %base "_s_5d3_c_B97-3c"
|  4> %maxcore 3000
|  5> %scf
|  6>    MaxIter 2000
|  7> end
|  8> %pal
|  9>    nprocs 32
| 10> end
| 11>
| 12> * xyzfile 4 1 s_5d3_c.xyz
| 13>
| 14>                          ****END OF INPUT****

CARTESIAN COORDINATES (ANGSTROEM)
---------------------------------
  Pd    -0.072000    5.481600   -0.295400
  Pd     0.174200   -5.409300   -0.569200
  C      6.955300   -1.498900   -0.039000
  C      6.590300   -2.651400   -0.040800
  C      6.162700   -3.993200   -0.018500
  C      7.067400   -5.018200    0.196300
  C      6.648900   -6.353200    0.243300
  C      5.328000   -6.684000    0.084700
  C      4.374300   -5.668100   -0.140500
  C      3.003400   -5.942700   -0.300200
  N      2.111100   -4.999800   -0.517300
  C      2.497000   -3.702700   -0.605500
  C      3.801900   -3.328600   -0.452700
  C      4.786700   -4.306400   -0.204200
  H      8.111900   -4.782000    0.332700
  H      7.384300   -7.124800    0.411900
  H      5.009600   -7.713300    0.129100
  H      2.642500   -6.967500   -0.244700
  H      1.704400   -2.985000   -0.807400
  H      4.097700   -2.294000   -0.519900
  C      7.376300   -0.152100   -0.034600
  C      8.739700    0.156900    0.016200
  C      9.148800    1.478700    0.021800
  C      8.219900    2.503200   -0.023200
  C      6.854900    2.202100   -0.072400
  C      6.433900    0.873500   -0.077300
  H      9.467900   -0.639400    0.050000
  H     10.202600    1.712200    0.060900
  H      8.543600    3.532900   -0.019300
  H      5.381200    0.642000   -0.113400
  C      5.903500    3.241800   -0.124600
  C      5.076700    4.121900   -0.177000
  C      4.140600    5.170000   -0.262400
  C      4.555500    6.498600   -0.430400
  C      3.600100    7.493800   -0.531600
  C      2.258300    7.152200   -0.466400
  N      1.866500    5.886100   -0.298200
  C      2.768300    4.912600   -0.195500
  H      5.607800    6.730700   -0.482500
  H      3.890600    8.523500   -0.663200
  H      1.474300    7.902000   -0.550200
  H      2.391500    3.901500   -0.054900
  C      0.190900   -1.811700    6.402900
  C      0.259900   -2.944200    5.985500
  C      0.365100   -4.261600    5.498400
  C      0.583200   -5.318400    6.364800
  C      0.713000   -6.628300    5.888400
  C      0.634700   -6.901700    4.547400
  C      0.408800   -5.852200    3.631100
  C      0.329200   -6.067200    2.242700
  N      0.111800   -5.093000    1.384700
  C     -0.056100   -3.821300    1.824900
  C      0.015200   -3.504000    3.151700
  C      0.261200   -4.516000    4.101800
  H      0.657400   -5.127000    7.424700
  H      0.881500   -7.426200    6.595200
  H      0.742800   -7.911500    4.184700
  H      0.450400   -7.069900    1.838300
  H     -0.252800   -3.075900    1.056900
  H     -0.115000   -2.489000    3.490900
  C      0.113800   -0.488200    6.886100
  C      0.087300   -0.244500    8.263300
  C      0.013500    1.054600    8.733900
  C     -0.035200    2.120500    7.853000
  C     -0.007300    1.884900    6.474600
  C      0.067800    0.579600    5.991900
  H      0.123600   -1.073400    8.954100
  H     -0.006900    1.237600    9.798100
  H     -0.093100    3.132300    8.224500
  H      0.091000    0.398700    4.929000
  C     -0.063100    2.966700    5.571600
  C     -0.117600    3.883000    4.785300
  C     -0.208000    4.970400    3.895700
  C     -0.453200    6.269300    4.363000
  C     -0.557000    7.303800    3.450600
  C     -0.418200    7.029800    2.098800
  N     -0.176400    5.792300    1.657500
  C     -0.069600    4.782100    2.517500
  H     -0.561600    6.448400    5.421300
  H     -0.747100    8.311900    3.781600
  H     -0.501300    7.812000    1.347100
  H      0.132600    3.797100    2.101600
  C     -6.856800    1.569600   -0.770800
  C     -6.491800    2.722100   -0.773000
  C     -6.064600    4.064000   -0.799900
  C     -6.971600    5.088600   -1.006700
  C     -6.553800    6.423600   -1.058800
  C     -5.231500    6.754700   -0.913100
  C     -4.275500    5.739300   -0.696100
  C     -2.903300    6.014300   -0.549000
  N     -2.008800    5.071800   -0.339200
  C     -2.393600    3.774600   -0.246900
  C     -3.699800    3.400100   -0.387500
  C     -4.687000    4.377500   -0.627500
  H     -8.017300    4.852100   -1.133000
  H     -7.290800    7.195000   -1.221000
  H     -4.913600    7.784000   -0.961400
  H     -2.543100    7.039200   -0.608500
  H     -1.599000    3.057100   -0.052100
  H     -3.994700    2.365500   -0.316900
  C     -7.277600    0.222700   -0.771400
  C     -8.641500   -0.086500   -0.803800
  C     -9.050500   -1.408400   -0.806000
  C     -8.120800   -2.432800   -0.775900
  C     -6.755300   -2.131400   -0.745000
  C     -6.334600   -0.802800   -0.743400
  H     -9.370300    0.709700   -0.825900
  H    -10.104600   -1.642000   -0.830900
  H     -8.444400   -3.462500   -0.777200
  H     -5.281500   -0.571100   -0.721700
  C     -5.803200   -3.171100   -0.707100
  C     -4.975500   -4.050900   -0.666600
  C     -4.038600   -5.099200   -0.593100
  C     -4.452300   -6.429000   -0.431000
  C     -3.496100   -7.424300   -0.339400
  C     -2.154600   -7.081600   -0.407800
  N     -1.764000   -5.814500   -0.570800
  C     -2.666700   -4.840900   -0.664700
  H     -5.504200   -6.661800   -0.375600
  H     -3.785600   -8.454900   -0.212500
  H     -1.370100   -7.831600   -0.330700
  H     -2.290900   -3.829000   -0.801800
  C     -0.062600    1.887500   -7.270200
  C     -0.139000    3.019200   -6.852100
  C     -0.252300    4.335700   -6.364200
  C     -0.472200    5.392300   -7.230400
  C     -0.609100    6.701100   -6.753200
  C     -0.536100    6.973700   -5.411700
  C     -0.308600    5.924300   -4.495700
  C     -0.233300    6.138500   -3.106900
  N     -0.014100    5.164500   -2.249100
  C      0.159100    3.893700   -2.689800
  C      0.092500    3.577200   -4.017000
  C     -0.154300    4.589200   -4.967000
  H     -0.542000    5.201600   -8.290600
  H     -0.779000    7.499000   -7.459700
  H     -0.649600    7.982700   -5.048400
  H     -0.359200    7.140500   -2.702100
  H      0.356000    3.148300   -1.921800
  H      0.227200    2.562900   -4.356700
  C      0.023900    0.564300   -7.752600
  C      0.066200    0.320300   -9.129400
  C      0.149600   -0.978700   -9.598700
  C      0.192400   -2.044200   -8.717000
  C      0.148800   -1.808300   -7.339000
  C      0.063900   -0.503200   -6.857700
  H      0.034400    1.148900   -9.820800
  H      0.182200   -1.161800  -10.662500
  H      0.258000   -3.055800   -9.087600
  H      0.028400   -0.322100   -5.795100
  C      0.198300   -2.889800   -6.435300
  C      0.247200   -3.805900   -5.648500
  C      0.332300   -4.893800   -4.758900
  C      0.582000   -6.192000   -5.225900
  C      0.680500   -7.227400   -4.314000
  C      0.532400   -6.954900   -2.962900
  N      0.286200   -5.718100   -2.521900
  C      0.184000   -4.707100   -3.381600
  H      0.697900   -6.369800   -6.283700
  H      0.873900   -8.234900   -4.644800
  H      0.611500   -7.737900   -2.211500
  H     -0.022300   -3.722900   -2.966000

 Total Charge           Charge          ....    4
 Multiplicity           Mult            ....    1
 Number of Electrons    NEL             ....  720
 Basis Dimension        Dim             .... 2210

ORBITAL ENERGIES
----------------

  NO   OCC          E(Eh)            E(eV)
   0   2.0000     -14.334810      -390.0700
   1   2.0000     -14.334792      -390.0695
   2   2.0000     -14.334790      -390.0695
   3   2.0000     -14.334777      -390.0691
   4   2.0000     -14.329809      -389.9339
   5   2.0000     -14.329801      -389.9337
   6   2.0000     -14.329795      -389.9336
   7   2.0000     -14.329794      -389.9335
   8   2.0000     -10.229635      -278.3625
   9   2.0000     -10.229630      -278.3624
  10   2.0000     -10.229605      -278.3617
  11   2.0000     -10.229597      -278.3615
  12   2.0000     -10.229043      -278.3464
  13   2.0000     -10.229029      -278.3460
  14   2.0000     -10.228978      -278.3446
  15   2.0000     -10.228970      -278.3444
  16   2.0000     -10.224017      -278.2096
  17   2.0000     -10.223990      -278.2089
  18   2.0000     -10.223984      -278.2088
  19   2.0000     -10.223968      -278.2083
  20   2.0000     -10.219781      -278.0944
  21   2.0000     -10.219773      -278.0942
  22   2.0000     -10.219762      -278.0939
  23   2.0000     -10.219727      -278.0929
  24   2.0000     -10.211466      -277.8681
  25   2.0000     -10.211459      -277.8679
  26   2.0000     -10.211423      -277.8669
  27   2.0000     -10.211409      -277.8666
  28   2.0000     -10.192895      -277.3628
  29   2.0000     -10.192893      -277.3627
  30   2.0000     -10.192838      -277.3612
  31   2.0000     -10.192820      -277.3607
  32   2.0000     -10.191885      -277.3353
  33   2.0000     -10.191867      -277.3348
  34   2.0000     -10.191828      -277.3337
  35   2.0000     -10.191823      -277.3336
  36   2.0000     -10.190964      -277.3102
  37   2.0000     -10.190959      -277.3101
  38   2.0000     -10.190909      -277.3087
  39   2.0000     -10.190893      -277.3083
  40   2.0000     -10.187154      -277.2066
  41   2.0000     -10.187142      -277.2062
  42   2.0000     -10.187116      -277.2055
  43   2.0000     -10.187089      -277.2048
  44   2.0000     -10.187010      -277.2026
  45   2.0000     -10.186996      -277.2023
  46   2.0000     -10.186975      -277.2017
  47   2.0000     -10.186949      -277.2010
  48   2.0000     -10.186113      -277.1782
  49   2.0000     -10.186109      -277.1781
  50   2.0000     -10.186054      -277.1766
  51   2.0000     -10.186036      -277.1761
  52   2.0000     -10.167439      -276.6701
  53   2.0000     -10.167439      -276.6701
  54   2.0000     -10.167372      -276.6683
  55   2.0000     -10.167346      -276.6676
  56   2.0000     -10.165934      -276.6291
  57   2.0000     -10.165927      -276.6289
  58   2.0000     -10.165872      -276.6274
  59   2.0000     -10.165856      -276.6270
  60   2.0000     -10.165264      -276.6109
  61   2.0000     -10.165257      -276.6107
  62   2.0000     -10.165193      -276.6090
  63   2.0000     -10.165175      -276.6085
  64   2.0000     -10.164000      -276.5765
  65   2.0000     -10.163991      -276.5762
  66   2.0000     -10.163934      -276.5747
  67   2.0000     -10.163899      -276.5737
  68   2.0000     -10.161225      -276.5010
  69   2.0000     -10.161210      -276.5006
  70   2.0000     -10.161154      -276.4990
  71   2.0000     -10.161128      -276.4983
  72   2.0000     -10.159458      -276.4529
  73   2.0000     -10.159458      -276.4529
  74   2.0000     -10.159398      -276.4513
  75   2.0000     -10.159378      -276.4507
  76   2.0000     -10.153973      -276.3037
  77   2.0000     -10.153965      -276.3034
  78   2.0000     -10.153893      -276.3015
  79   2.0000     -10.153882      -276.3012
  80   2.0000     -10.152842      -276.2729
  81   2.0000     -10.152830      -276.2725
  82   2.0000     -10.152770      -276.2709
  83   2.0000     -10.152750      -276.2704
  84   2.0000     -10.146801      -276.1085
  85   2.0000     -10.146788      -276.1081
  86   2.0000     -10.146728      -276.1065
  87   2.0000     -10.146692      -276.1055
  88   2.0000     -10.143893      -276.0294
  89   2.0000     -10.143890      -276.0293
  90   2.0000     -10.143834      -276.0277
  91   2.0000     -10.143809      -276.0271
  92   2.0000     -10.142673      -275.9962
  93   2.0000     -10.142665      -275.9960
  94   2.0000     -10.142610      -275.9945
  95   2.0000     -10.142587      -275.9938
  96   2.0000     -10.142018      -275.9783
  97   2.0000     -10.141999      -275.9778
  98   2.0000     -10.141940      -275.9762
  99   2.0000     -10.141910      -275.9754
 100   2.0000     -10.133904      -275.7576
 101   2.0000     -10.133899      -275.7574
 102   2.0000     -10.133837      -275.7557
 103   2.0000     -10.133806      -275.7549
 104   2.0000      -3.644412       -99.1695
 105   2.0000      -3.644409       -99.1694
 106   2.0000      -2.375078       -64.6292
 107   2.0000      -2.375077       -64.6291
 108   2.0000      -2.374756       -64.6204
 109   2.0000      -2.374750       -64.6202
 110   2.0000      -2.332863       -63.4804
 111   2.0000      -2.332861       -63.4804
 112   2.0000      -1.197447       -32.5842
 113   2.0000      -1.197417       -32.5834
 114   2.0000      -1.191923       -32.4339
 115   2.0000      -1.191887       -32.4329
 116   2.0000      -1.189629       -32.3714
 117   2.0000      -1.189601       -32.3707
 118   2.0000      -1.187255       -32.3069
 119   2.0000      -1.187243       -32.3065
 120   2.0000      -1.073161       -29.2022
 121   2.0000      -1.073108       -29.2008
 122   2.0000      -1.072611       -29.1872
 123   2.0000      -1.072561       -29.1859
 124   2.0000      -1.049994       -28.5718
 125   2.0000      -1.049913       -28.5696
 126   2.0000      -1.049904       -28.5694
 127   2.0000      -1.049836       -28.5675
 128   2.0000      -1.042332       -28.3633
 129   2.0000      -1.042242       -28.3609
 130   2.0000      -1.041368       -28.3371
 131   2.0000      -1.041311       -28.3355
 132   2.0000      -1.013418       -27.5765
 133   2.0000      -1.013359       -27.5749
 134   2.0000      -1.012374       -27.5481
 135   2.0000      -1.012302       -27.5461
 136   2.0000      -1.007402       -27.4128
 137   2.0000      -1.007340       -27.4111
 138   2.0000      -1.006314       -27.3832
 139   2.0000      -1.006188       -27.3798
 140   2.0000      -0.993128       -27.0244
 141   2.0000      -0.993035       -27.0219
 142   2.0000      -0.992374       -27.0039
 143   2.0000      -0.992276       -27.0012
 144   2.0000      -0.981274       -26.7018
 145   2.0000      -0.981177       -26.6992
 146   2.0000      -0.980939       -26.6927
 147   2.0000      -0.980485       -26.6804
 148   2.0000      -0.968580       -26.3564
 149   2.0000      -0.968251       -26.3474
 150   2.0000      -0.967589       -26.3294
 151   2.0000      -0.967043       -26.3146
 152   2.0000      -0.951000       -25.8780
 153   2.0000      -0.950766       -25.8717
 154   2.0000      -0.950726       -25.8706
 155   2.0000      -0.950453       -25.8632
 156   2.0000      -0.928592       -25.2683
 157   2.0000      -0.928508       -25.2660
 158   2.0000      -0.927797       -25.2466
 159   2.0000      -0.927694       -25.2438
 160   2.0000      -0.910328       -24.7713
 161   2.0000      -0.910171       -24.7670
 162   2.0000      -0.910081       -24.7646
 163   2.0000      -0.909795       -24.7568
 164   2.0000      -0.884649       -24.0725
 165   2.0000      -0.884043       -24.0560
 166   2.0000      -0.883149       -24.0317
 167   2.0000      -0.882661       -24.0184
 168   2.0000      -0.882128       -24.0039
 169   2.0000      -0.882080       -24.0026
 170   2.0000      -0.880218       -23.9520
 171   2.0000      -0.879280       -23.9264
 172   2.0000      -0.868965       -23.6457
 173   2.0000      -0.868870       -23.6432
 174   2.0000      -0.867721       -23.6119
 175   2.0000      -0.867661       -23.6102
 176   2.0000      -0.859056       -23.3761
 177   2.0000      -0.858983       -23.3741
 178   2.0000      -0.858003       -23.3474
 179   2.0000      -0.857942       -23.3458
 180   2.0000      -0.843355       -22.9489
 181   2.0000      -0.843269       -22.9465
 182   2.0000      -0.842748       -22.9323
 183   2.0000      -0.842661       -22.9300
 184   2.0000      -0.820332       -22.3224
 185   2.0000      -0.819837       -22.3089
 186   2.0000      -0.819738       -22.3062
 187   2.0000      -0.819513       -22.3001
 188   2.0000      -0.812308       -22.1040
 189   2.0000      -0.811687       -22.0871
 190   2.0000      -0.811472       -22.0813
 191   2.0000      -0.811203       -22.0739
 192   2.0000      -0.793990       -21.6056
 193   2.0000      -0.792650       -21.5691
 194   2.0000      -0.789224       -21.4759
 195   2.0000      -0.788337       -21.4517
 196   2.0000      -0.776748       -21.1364
 197   2.0000      -0.774579       -21.0774
 198   2.0000      -0.773621       -21.0513
 199   2.0000      -0.772975       -21.0337
 200   2.0000      -0.762776       -20.7562
 201   2.0000      -0.761805       -20.7298
 202   2.0000      -0.759564       -20.6688
 203   2.0000      -0.759305       -20.6617
 204   2.0000      -0.755035       -20.5455
 205   2.0000      -0.754435       -20.5292
 206   2.0000      -0.753876       -20.5140
 207   2.0000      -0.753533       -20.5047
 208   2.0000      -0.745238       -20.2790
 209   2.0000      -0.745064       -20.2742
 210   2.0000      -0.744705       -20.2644
 211   2.0000      -0.743625       -20.2351
 212   2.0000      -0.742922       -20.2159
 213   2.0000      -0.742418       -20.2022
 214   2.0000      -0.742155       -20.1951
 215   2.0000      -0.741548       -20.1785
 216   2.0000      -0.732553       -19.9338
 217   2.0000      -0.731850       -19.9147
 218   2.0000      -0.729901       -19.8616
 219   2.0000      -0.729309       -19.8455
 220   2.0000      -0.708432       -19.2774
 221   2.0000      -0.707365       -19.2484
 222   2.0000      -0.706059       -19.2128
 223   2.0000      -0.705760       -19.2047
 224   2.0000      -0.705340       -19.1933
 225   2.0000      -0.704913       -19.1817
 226   2.0000      -0.699645       -19.0383
 227   2.0000      -0.699541       -19.0355
 228   2.0000      -0.698694       -19.0124
 229   2.0000      -0.698462       -19.0061
 230   2.0000      -0.688866       -18.7450
 231   2.0000      -0.688777       -18.7426
 232   2.0000      -0.686742       -18.6872
 233   2.0000      -0.686438       -18.6789
 234   2.0000      -0.684672       -18.6309
 235   2.0000      -0.684594       -18.6288
 236   2.0000      -0.683076       -18.5874
 237   2.0000      -0.682360       -18.5680
 238   2.0000      -0.682081       -18.5604
 239   2.0000      -0.681492       -18.5443
 240   2.0000      -0.681163       -18.5354
 241   2.0000      -0.681048       -18.5323
 242   2.0000      -0.677761       -18.4428
 243   2.0000      -0.676820       -18.4172
 244   2.0000      -0.675541       -18.3824
 245   2.0000      -0.674817       -18.3627
 246   2.0000      -0.672115       -18.2892
 247   2.0000      -0.671924       -18.2840
 248   2.0000      -0.671359       -18.2686
 249   2.0000      -0.671093       -18.2614
 250   2.0000      -0.669402       -18.2153
 251   2.0000      -0.669252       -18.2113
 252   2.0000      -0.668758       -18.1978
 253   2.0000      -0.668617       -18.1940
 254   2.0000      -0.661743       -18.0069
 255   2.0000      -0.661622       -18.0036
 256   2.0000      -0.660788       -17.9810
 257   2.0000      -0.660586       -17.9755
 258   2.0000      -0.658470       -17.9179
 259   2.0000      -0.658446       -17.9172
 260   2.0000      -0.654585       -17.8122
 261   2.0000      -0.654465       -17.8089
 262   2.0000      -0.654394       -17.8070
 263   2.0000      -0.654299       -17.8044
 264   2.0000      -0.639174       -17.3928
 265   2.0000      -0.639075       -17.3901
 266   2.0000      -0.637161       -17.3380
 267   2.0000      -0.636990       -17.3334
 268   2.0000      -0.630659       -17.1611
 269   2.0000      -0.630420       -17.1546
 270   2.0000      -0.629080       -17.1181
 271   2.0000      -0.628896       -17.1131
 272   2.0000      -0.628571       -17.1043
 273   2.0000      -0.628366       -17.0987
 274   2.0000      -0.626452       -17.0466
 275   2.0000      -0.626374       -17.0445
 276   2.0000      -0.624742       -17.0001
 277   2.0000      -0.624711       -16.9993
 278   2.0000      -0.622239       -16.9320
 279   2.0000      -0.622228       -16.9317
 280   2.0000      -0.618843       -16.8396
 281   2.0000      -0.618256       -16.8236
 282   2.0000      -0.608444       -16.5566
 283   2.0000      -0.607338       -16.5265
 284   2.0000      -0.603264       -16.4156
 285   2.0000      -0.600519       -16.3410
 286   2.0000      -0.600459       -16.3393
 287   2.0000      -0.598119       -16.2757
 288   2.0000      -0.594090       -16.1660
 289   2.0000      -0.594042       -16.1647
 290   2.0000      -0.593163       -16.1408
 291   2.0000      -0.592870       -16.1328
 292   2.0000      -0.589896       -16.0519
 293   2.0000      -0.585854       -15.9419
 294   2.0000      -0.583063       -15.8660
 295   2.0000      -0.582997       -15.8642
 296   2.0000      -0.582573       -15.8526
 297   2.0000      -0.582470       -15.8498
 298   2.0000      -0.578275       -15.7357
 299   2.0000      -0.576482       -15.6869
 300   2.0000      -0.568208       -15.4617
 301   2.0000      -0.568187       -15.4612
 302   2.0000      -0.568139       -15.4599
 303   2.0000      -0.568117       -15.4592
 304   2.0000      -0.567005       -15.4290
 305   2.0000      -0.566915       -15.4265
 306   2.0000      -0.566487       -15.4149
 307   2.0000      -0.566329       -15.4106
 308   2.0000      -0.563598       -15.3363
 309   2.0000      -0.563427       -15.3316
 310   2.0000      -0.563180       -15.3249
 311   2.0000      -0.562290       -15.3007
 312   2.0000      -0.562198       -15.2982
 313   2.0000      -0.559042       -15.2123
 314   2.0000      -0.555610       -15.1189
 315   2.0000      -0.554972       -15.1015
 316   2.0000      -0.554734       -15.0951
 317   2.0000      -0.554234       -15.0815
 318   2.0000      -0.543857       -14.7991
 319   2.0000      -0.543079       -14.7779
 320   2.0000      -0.543072       -14.7777
 321   2.0000      -0.542617       -14.7654
 322   2.0000      -0.542117       -14.7517
 323   2.0000      -0.541752       -14.7418
 324   2.0000      -0.540889       -14.7183
 325   2.0000      -0.538377       -14.6500
 326   2.0000      -0.534027       -14.5316
 327   2.0000      -0.533840       -14.5265
 328   2.0000      -0.529568       -14.4103
 329   2.0000      -0.529403       -14.4058
 330   2.0000      -0.517959       -14.0944
 331   2.0000      -0.517472       -14.0811
 332   2.0000      -0.514275       -13.9941
 333   2.0000      -0.511155       -13.9092
 334   2.0000      -0.508516       -13.8374
 335   2.0000      -0.507423       -13.8077
 336   2.0000      -0.506985       -13.7958
 337   2.0000      -0.505883       -13.7658
 338   2.0000      -0.505854       -13.7650
 339   2.0000      -0.505299       -13.7499
 340   2.0000      -0.503027       -13.6881
 341   2.0000      -0.502583       -13.6760
 342   2.0000      -0.501940       -13.6585
 343   2.0000      -0.501721       -13.6525
 344   2.0000      -0.492870       -13.4117
 345   2.0000      -0.492809       -13.4100
 346   2.0000      -0.492774       -13.4091
 347   2.0000      -0.492538       -13.4027
 348   2.0000      -0.487327       -13.2608
 349   2.0000      -0.487108       -13.2549
 350   2.0000      -0.486448       -13.2369
 351   2.0000      -0.486007       -13.2249
 352   2.0000      -0.460400       -12.5281
 353   2.0000      -0.460041       -12.5183
 354   2.0000      -0.459467       -12.5027
 355   2.0000      -0.458880       -12.4868
 356   2.0000      -0.443324       -12.0635
 357   2.0000      -0.442896       -12.0518
 358   2.0000      -0.442620       -12.0443
 359   2.0000      -0.442113       -12.0305
 360   0.0000      -0.367642       -10.0040
 361   0.0000      -0.367538       -10.0012
 362   0.0000      -0.367381        -9.9970
 363   0.0000      -0.367166        -9.9911
 364   0.0000      -0.361255        -9.8303

MULLIKEN ATOMIC CHARGES
-----------------------
   0 Pd:   -0.045478
   1 Pd:   -0.045081
   2 C :    0.026518
   3 C :    0.031877
   4 C :   -0.189155
   5 C :   -0.090923
   6 C :   -0.186545
   7 C :   -0.224203
   8 C :    0.193438
   9 C :   -0.244480
  10 N :   -0.070682
  11 C :   -0.174121
  12 C :    0.023284
  13 C :    0.165240
  14 H :    0.255081
  15 H :    0.225770
  16 H :    0.230891
  17 H :    0.196463
  18 H :    0.150297
  19 H :    0.185266
  20 C :   -0.103545
  21 C :   -0.138754
  22 C :   -0.128266
  23 C :   -0.141801
  24 C :   -0.078613
  25 C :   -0.186428
  26 H :    0.241136
  27 H :    0.221084
  28 H :    0.236689
  29 H :    0.188103
  30 C :    0.037806
  31 C :   -0.010087
  32 C :    0.082531
  33 C :   -0.216344
  34 C :   -0.012735
  35 C :   -0.140552
  36 N :   -0.026174
  37 C :   -0.170648
  38 H :    0.250095
  39 H :    0.245927
  40 H :    0.186445
  41 H :    0.182115
  42 C :    0.026374
  43 C :    0.032042
  44 C :   -0.189357
  45 C :   -0.090934
  46 C :   -0.186501
  47 C :   -0.224187
  48 C :    0.193504
  49 C :   -0.244428
  50 N :   -0.070043
  51 C :   -0.174008
  52 C :    0.023876
  53 C :    0.165138
  54 H :    0.255033
  55 H :    0.225789
  56 H :    0.230846
  57 H :    0.196354
  58 H :    0.149794
  59 H :    0.185314
  60 C :   -0.103253
  61 C :   -0.139028
  62 C :   -0.128160
  63 C :   -0.141838
  64 C :   -0.078591
  65 C :   -0.186673
  66 H :    0.241071
  67 H :    0.221119
  68 H :    0.236691
  69 H :    0.188158
  70 C :    0.037796
  71 C :   -0.009977
  72 C :    0.082427
  73 C :   -0.216421
  74 C :   -0.012073
  75 C :   -0.140542
  76 N :   -0.025649
  77 C :   -0.170652
  78 H :    0.250116
  79 H :    0.245928
  80 H :    0.185993
  81 H :    0.182084
  82 C :    0.026726
  83 C :    0.031941
  84 C :   -0.189747
  85 C :   -0.090742
  86 C :   -0.186554
  87 C :   -0.224057
  88 C :    0.193929
  89 C :   -0.245222
  90 N :   -0.070066
  91 C :   -0.174693
  92 C :    0.023698
  93 C :    0.165463
  94 H :    0.255108
  95 H :    0.225784
  96 H :    0.230865
  97 H :    0.196382
  98 H :    0.150016
  99 H :    0.185517
 100 C :   -0.103660
 101 C :   -0.138799
 102 C :   -0.128080
 103 C :   -0.142046
 104 C :   -0.078266
 105 C :   -0.186428
 106 H :    0.241106
 107 H :    0.221140
 108 H :    0.236663
 109 H :    0.188152
 110 C :    0.037712
 111 C :   -0.010364
 112 C :    0.082533
 113 C :   -0.216319
 114 C :   -0.012872
 115 C :   -0.140663
 116 N :   -0.025892
 117 C :   -0.170371
 118 H :    0.250032
 119 H :    0.245908
 120 H :    0.186273
 121 H :    0.182042
 122 C :    0.026855
 123 C :    0.031821
 124 C :   -0.189959
 125 C :   -0.090485
 126 C :   -0.186693
 127 C :   -0.223904
 128 C :    0.194213
 129 C :   -0.245575
 130 N :   -0.069348
 131 C :   -0.174681
 132 C :    0.024370
 133 C :    0.165171
 134 H :    0.255142
 135 H :    0.225744
 136 H :    0.230853
 137 H :    0.196242
 138 H :    0.149690
 139 H :    0.185384
 140 C :   -0.103555
 141 C :   -0.138812
 142 C :   -0.128044
 143 C :   -0.142067
 144 C :   -0.078342
 145 C :   -0.186528
 146 H :    0.241109
 147 H :    0.221139
 148 H :    0.236643
 149 H :    0.188255
 150 C :    0.037832
 151 C :   -0.010451
 152 C :    0.082622
 153 C :   -0.216511
 154 C :   -0.012201
 155 C :   -0.140683
 156 N :   -0.025392
 157 C :   -0.170544
 158 H :    0.250018
 159 H :    0.245925
 160 H :    0.185829
 161 H :    0.182194
Sum of atomic charges:    4.0000000

LOEWDIN ATOMIC CHARGES
----------------------
   0 Pd:   -0.062473
   1 Pd:   -0.062469
   2 C :    0.003511
   3 C :   -0.039868
   4 C :   -0.038996
   5 C :   -0.079750
   6 C :   -0.106741
   7 C :   -0.122781
   8 C :   -0.040776
   9 C :   -0.002832
  10 N :   -0.084586
  11 C :   -0.065373
  12 C :   -0.110834
  13 C :   -0.003367
  14 H :    0.198610
  15 H :    0.194695
  16 H :    0.186518
  17 H :    0.187794
  18 H :    0.175452
  19 H :    0.195773
  20 C :   -0.062559
  21 C :   -0.092506
  22 C :   -0.121330
  23 C :   -0.097988
  24 C :   -0.069291
  25 C :   -0.104715
  26 H :    0.192199
  27 H :    0.191026
  28 H :    0.190085
  29 H :    0.175141
  30 C :    0.033790
  31 C :   -0.062042
  32 C :   -0.040118
  33 C :   -0.066451
  34 C :   -0.120093
  35 C :   -0.041871
  36 N :   -0.075843
  37 C :   -0.020126
  38 H :    0.204228
  39 H :    0.201974
  40 H :    0.185427
  41 H :    0.185787
  42 C :    0.003478
  43 C :   -0.039864
  44 C :   -0.039013
  45 C :   -0.079752
  46 C :   -0.106747
  47 C :   -0.122778
  48 C :   -0.040781
  49 C :   -0.002819
  50 N :   -0.084575
  51 C :   -0.065299
  52 C :   -0.110900
  53 C :   -0.003352
  54 H :    0.198606
  55 H :    0.194699
  56 H :    0.186521
  57 H :    0.187797
  58 H :    0.175434
  59 H :    0.195761
  60 C :   -0.062576
  61 C :   -0.092506
  62 C :   -0.121336
  63 C :   -0.097978
  64 C :   -0.069288
  65 C :   -0.104719
  66 H :    0.192186
  67 H :    0.191028
  68 H :    0.190089
  69 H :    0.175146
  70 C :    0.033782
  71 C :   -0.062012
  72 C :   -0.040110
  73 C :   -0.066471
  74 C :   -0.120094
  75 C :   -0.041829
  76 N :   -0.075833
  77 C :   -0.020159
  78 H :    0.204223
  79 H :    0.201963
  80 H :    0.185435
  81 H :    0.185782
  82 C :    0.003522
  83 C :   -0.039871
  84 C :   -0.038978
  85 C :   -0.079717
  86 C :   -0.106708
  87 C :   -0.122756
  88 C :   -0.040777
  89 C :   -0.002813
  90 N :   -0.084611
  91 C :   -0.065381
  92 C :   -0.110823
  93 C :   -0.003381
  94 H :    0.198623
  95 H :    0.194702
  96 H :    0.186517
  97 H :    0.187783
  98 H :    0.175434
  99 H :    0.195785
 100 C :   -0.062566
 101 C :   -0.092485
 102 C :   -0.121334
 103 C :   -0.097973
 104 C :   -0.069290
 105 C :   -0.104697
 106 H :    0.192197
 107 H :    0.191023
 108 H :    0.190079
 109 H :    0.175153
 110 C :    0.033826
 111 C :   -0.062043
 112 C :   -0.040071
 113 C :   -0.066450
 114 C :   -0.120104
 115 C :   -0.041910
 116 N :   -0.075840
 117 C :   -0.020115
 118 H :    0.204220
 119 H :    0.201970
 120 H :    0.185398
 121 H :    0.185782
 122 C :    0.003523
 123 C :   -0.039870
 124 C :   -0.038956
 125 C :   -0.079748
 126 C :   -0.106710
 127 C :   -0.122789
 128 C :   -0.040779
 129 C :   -0.002832
 130 N :   -0.084577
 131 C :   -0.065300
 132 C :   -0.110854
 133 C :   -0.003366
 134 H :    0.198623
 135 H :    0.194697
 136 H :    0.186513
 137 H :    0.187765
 138 H :    0.175413
 139 H :    0.195791
 140 C :   -0.062563
 141 C :   -0.092478
 142 C :   -0.121347
 143 C :   -0.097972
 144 C :   -0.069306
 145 C :   -0.104687
 146 H :    0.192199
 147 H :    0.191022
 148 H :    0.190071
 149 H :    0.175146
 150 C :    0.033816
 151 C :   -0.062042
 152 C :   -0.040089
 153 C :   -0.066432
 154 C :   -0.120117
 155 C :   -0.041853
 156 N :   -0.075822
 157 C :   -0.020144
 158 H :    0.204223
 159 H :    0.201960
 160 H :    0.185385
 161 H :    0.185797

  Mayer bond orders larger than 0.100000
B(  0-Pd, 36-N ) :   0.5319 B(  0-Pd, 76-N ) :   0.5319 B(  0-Pd, 90-N ) :   0.5388
B(  0-Pd,130-N ) :   0.5389 B(  1-Pd, 10-N ) :   0.5387 B(  1-Pd, 50-N ) :   0.5387
B(  1-Pd,116-N ) :   0.5321 B(  1-Pd,156-N ) :   0.5322 B(  2-C ,  3-C ) :   1.8517
B(  2-C ,  4-C ) :  -0.3043 B(  2-C , 20-C ) :   1.5108 B(  3-C ,  4-C ) :   1.4760
B(  3-C , 13-C ) :  -0.2023 B(  3-C , 20-C ) :  -0.3988 B(  4-C ,  5-C ) :   1.5212
B(  4-C , 12-C ) :  -0.1342 B(  4-C , 13-C ) :   1.0470 B(  5-C ,  6-C ) :   1.4094
B(  5-C , 14-H ) :   0.8585 B(  6-C ,  7-C ) :   1.6449 B(  6-C , 15-H ) :   0.8724
B(  7-C ,  8-C ) :   1.2955 B(  7-C , 16-H ) :   0.8647 B(  8-C ,  9-C ) :   1.2359
B(  8-C , 12-C ) :  -0.1003 B(  8-C , 13-C ) :   1.0764 B(  9-C , 10-N ) :   1.4678
B(  9-C , 13-C ) :  -0.1154 B(  9-C , 17-H ) :   0.9247 B( 10-N , 11-C ) :   1.2749
B( 10-N ,116-N ) :   0.1001 B( 11-C , 12-C ) :   1.4727 B( 11-C , 13-C ) :   0.1097
B( 11-C , 18-H ) :   0.9265 B( 12-C , 13-C ) :   1.4101 B( 12-C , 19-H ) :   0.8815
B( 20-C , 21-C ) :   1.3071 B( 20-C , 25-C ) :   1.2784 B( 21-C , 22-C ) :   1.5167
B( 21-C , 26-H ) :   0.8889 B( 22-C , 23-C ) :   1.5178 B( 22-C , 27-H ) :   0.8790
B( 23-C , 24-C ) :   1.2962 B( 23-C , 28-H ) :   0.8871 B( 24-C , 25-C ) :   1.2917
B( 24-C , 30-C ) :   1.4793 B( 24-C , 31-C ) :  -0.4013 B( 25-C , 29-H ) :   0.9616
B( 25-C , 30-C ) :  -0.1003 B( 30-C , 31-C ) :   1.8440 B( 30-C , 32-C ) :  -0.3161
B( 31-C , 32-C ) :   1.4134 B( 32-C , 33-C ) :   1.3472 B( 32-C , 37-C ) :   1.2929
B( 33-C , 34-C ) :   1.4799 B( 33-C , 38-H ) :   0.9179 B( 34-C , 35-C ) :   1.4174
B( 34-C , 39-H ) :   0.8715 B( 35-C , 36-N ) :   1.3470 B( 35-C , 40-H ) :   0.9267
B( 36-N , 37-C ) :   1.3726 B( 36-N , 90-N ) :   0.1001 B( 37-C , 41-H ) :   0.9564
B( 42-C , 43-C ) :   1.8516 B( 42-C , 44-C ) :  -0.3042 B( 42-C , 60-C ) :   1.5107
B( 43-C , 44-C ) :   1.4762 B( 43-C , 53-C ) :  -0.2025 B( 43-C , 60-C ) :  -0.3990
B( 44-C , 45-C ) :   1.5210 B( 44-C , 52-C ) :  -0.1342 B( 44-C , 53-C ) :   1.0469
B( 45-C , 46-C ) :   1.4094 B( 45-C , 54-H ) :   0.8586 B( 46-C , 47-C ) :   1.6450
B( 46-C , 55-H ) :   0.8724 B( 47-C , 48-C ) :   1.2954 B( 47-C , 56-H ) :   0.8647
B( 48-C , 49-C ) :   1.2358 B( 48-C , 52-C ) :  -0.1004 B( 48-C , 53-C ) :   1.0763
B( 49-C , 50-N ) :   1.4679 B( 49-C , 53-C ) :  -0.1152 B( 49-C , 57-H ) :   0.9247
B( 50-N , 51-C ) :   1.2748 B( 50-N ,156-N ) :   0.1001 B( 51-C , 52-C ) :   1.4721
B( 51-C , 53-C ) :   0.1100 B( 51-C , 58-H ) :   0.9269 B( 52-C , 53-C ) :   1.4100
B( 52-C , 59-H ) :   0.8815 B( 60-C , 61-C ) :   1.3071 B( 60-C , 65-C ) :   1.2782
B( 61-C , 62-C ) :   1.5166 B( 61-C , 66-H ) :   0.8889 B( 62-C , 63-C ) :   1.5178
B( 62-C , 67-H ) :   0.8790 B( 63-C , 64-C ) :   1.2962 B( 63-C , 68-H ) :   0.8871
B( 64-C , 65-C ) :   1.2916 B( 64-C , 70-C ) :   1.4795 B( 64-C , 71-C ) :  -0.4014
B( 65-C , 69-H ) :   0.9616 B( 65-C , 70-C ) :  -0.1003 B( 70-C , 71-C ) :   1.8439
B( 70-C , 72-C ) :  -0.3162 B( 71-C , 72-C ) :   1.4136 B( 72-C , 73-C ) :   1.3470
B( 72-C , 77-C ) :   1.2931 B( 73-C , 74-C ) :   1.4799 B( 73-C , 78-H ) :   0.9178
B( 74-C , 75-C ) :   1.4161 B( 74-C , 79-H ) :   0.8716 B( 75-C , 76-N ) :   1.3471
B( 75-C , 80-H ) :   0.9273 B( 76-N , 77-C ) :   1.3726 B( 76-N ,130-N ) :   0.1002
B( 77-C , 81-H ) :   0.9563 B( 82-C , 83-C ) :   1.8515 B( 82-C , 84-C ) :  -0.3044
B( 82-C ,100-C ) :   1.5109 B( 83-C , 84-C ) :   1.4763 B( 83-C , 93-C ) :  -0.2024
B( 83-C ,100-C ) :  -0.3989 B( 84-C , 85-C ) :   1.5212 B( 84-C , 92-C ) :  -0.1341
B( 84-C , 93-C ) :   1.0469 B( 85-C , 86-C ) :   1.4095 B( 85-C , 94-H ) :   0.8585
B( 86-C , 87-C ) :   1.6448 B( 86-C , 95-H ) :   0.8724 B( 87-C , 88-C ) :   1.2958
B( 87-C , 96-H ) :   0.8647 B( 88-C , 89-C ) :   1.2355 B( 88-C , 92-C ) :  -0.1004
B( 88-C , 93-C ) :   1.0764 B( 89-C , 90-N ) :   1.4679 B( 89-C , 93-C ) :  -0.1151
B( 89-C , 97-H ) :   0.9249 B( 90-N , 91-C ) :   1.2743 B( 91-C , 92-C ) :   1.4726
B( 91-C , 93-C ) :   0.1100 B( 91-C , 98-H ) :   0.9268 B( 92-C , 93-C ) :   1.4099
B( 92-C , 99-H ) :   0.8814 B(100-C ,101-C ) :   1.3072 B(100-C ,105-C ) :   1.2788
B(101-C ,102-C ) :   1.5166 B(101-C ,106-H ) :   0.8889 B(102-C ,103-C ) :   1.5178
B(102-C ,107-H ) :   0.8790 B(103-C ,104-C ) :   1.2961 B(103-C ,108-H ) :   0.8872
B(104-C ,105-C ) :   1.2917 B(104-C ,110-C ) :   1.4793 B(104-C ,111-C ) :  -0.4010
B(105-C ,109-H ) :   0.9615 B(105-C ,110-C ) :  -0.1003 B(110-C ,111-C ) :   1.8446
B(110-C ,112-C ) :  -0.3160 B(111-C ,112-C ) :   1.4133 B(112-C ,113-C ) :   1.3470
B(112-C ,117-C ) :   1.2931 B(113-C ,114-C ) :   1.4802 B(113-C ,118-H ) :   0.9180
B(114-C ,115-C ) :   1.4174 B(114-C ,119-H ) :   0.8715 B(115-C ,116-N ) :   1.3471
B(115-C ,120-H ) :   0.9267 B(116-N ,117-C ) :   1.3726 B(117-C ,121-H ) :   0.9564
B(122-C ,123-C ) :   1.8515 B(122-C ,124-C ) :  -0.3045 B(122-C ,140-C ) :   1.5110
B(123-C ,124-C ) :   1.4764 B(123-C ,133-C ) :  -0.2024 B(123-C ,140-C ) :  -0.3988
B(124-C ,125-C ) :   1.5212 B(124-C ,132-C ) :  -0.1343 B(124-C ,133-C ) :   1.0469
B(125-C ,126-C ) :   1.4094 B(125-C ,134-H ) :   0.8584 B(126-C ,127-C ) :   1.6449
B(126-C ,135-H ) :   0.8724 B(127-C ,128-C ) :   1.2955 B(127-C ,136-H ) :   0.8647
B(128-C ,129-C ) :   1.2354 B(128-C ,132-C ) :  -0.1004 B(128-C ,133-C ) :   1.0763
B(129-C ,130-N ) :   1.4678 B(129-C ,133-C ) :  -0.1150 B(129-C ,137-H ) :   0.9249
B(130-N ,131-C ) :   1.2744 B(131-C ,132-C ) :   1.4720 B(131-C ,133-C ) :   0.1101
B(131-C ,138-H ) :   0.9271 B(132-C ,133-C ) :   1.4097 B(132-C ,139-H ) :   0.8815
B(140-C ,141-C ) :   1.3072 B(140-C ,145-C ) :   1.2788 B(141-C ,142-C ) :   1.5165
B(141-C ,146-H ) :   0.8889 B(142-C ,143-C ) :   1.5179 B(142-C ,147-H ) :   0.8790
B(143-C ,144-C ) :   1.2962 B(143-C ,148-H ) :   0.8872 B(144-C ,145-C ) :   1.2920
B(144-C ,150-C ) :   1.4796 B(144-C ,151-C ) :  -0.4011 B(145-C ,149-H ) :   0.9614
B(145-C ,150-C ) :  -0.1004 B(150-C ,151-C ) :   1.8443 B(150-C ,152-C ) :  -0.3161
B(151-C ,152-C ) :   1.4135 B(152-C ,153-C ) :   1.3469 B(152-C ,157-C ) :   1.2931
B(153-C ,154-C ) :   1.4800 B(153-C ,158-H ) :   0.9180 B(154-C ,155-C ) :   1.4164
B(154-C ,159-H ) :   0.8716 B(155-C ,156-N ) :   1.3470 B(155-C ,160-H ) :   0.9273
B(156-N ,157-C ) :   1.3725 B(157-C ,161-H ) :   0.9563

Dispersion correction           -0.595165082
FINAL SINGLE POINT ENERGY     -4383.029236851356

DIPOLE MOMENT
-------------
                                X             Y             Z
Electronic contribution:     -0.52683      -0.02158      -0.98151
Nuclear contribution   :      0.53012       0.02342       0.98385
                        -----------------------------------------
Total Dipole Moment    :      0.00329       0.00185       0.00234
                        -----------------------------------------
Magnitude (a.u.)       :      0.00444
Magnitude (Debye)      :      0.01128

Rotational constants in cm-1:     0.000415     0.000307     0.000297
Rotational constants in MHz :    12.430026     9.209581     8.911988

                             ****ORCA TERMINATED NORMALLY****
TOTAL RUN TIME: 0 days 0 hours 8 minutes 53 seconds 434 msec
