                         Program Version 4.2.1 -  RELEASE  -
|  1> ! DFT SP B97-3c TightSCF printbasis  Grid6 NOFINALGRID SlowConv
|  2>
|  3> %base "_s_5d1_b_B97-3c"
|  4> %maxcore 3000
|  5> %scf
|  6>    MaxIter 2000
|  7> end
|  8> %pal
|  9>    nprocs 32
| 10> end
| 11>
| 12> * xyzfile 4 1 s_5d1_b.xyz
| 13>
| 14>                          ****END OF INPUT****

CARTESIAN COORDINATES (ANGSTROEM)
---------------------------------
  Pd     1.065300    3.394100   -0.059800
  Pd    -0.575800   -5.596000    0.355700
  C      6.253600   -1.654600    0.311000
  C      5.819400   -2.768700    0.489600
  C      5.385600   -4.097300    0.671600
  C      6.316200   -5.101100    0.879300
  C      5.921900   -6.434200    1.038700
  C      4.598200   -6.785700    0.984000
  C      3.619200   -5.791700    0.772200
  C      2.248600   -6.097000    0.693300
  N      1.326400   -5.181000    0.499700
  C      1.671700   -3.875600    0.372000
  C      2.979000   -3.475800    0.422600
  C      4.002000   -4.427800    0.621100
  H      7.364900   -4.848000    0.917900
  H      6.677500   -7.187200    1.201200
  H      4.297200   -7.814600    1.100000
  H      1.925100   -7.129000    0.797400
  H      0.844000   -3.180700    0.224600
  H      3.252900   -2.438900    0.309500
  C      6.688300   -0.338800    0.041600
  C      7.972300   -0.098700   -0.453800
  C      8.351200    1.193700   -0.766700
  C      7.467900    2.248700   -0.606800
  C      6.184400    2.024200   -0.106200
  C      5.809400    0.726400    0.229800
  H      8.658100   -0.919800   -0.595900
  H      9.342300    1.382000   -1.151100
  H      7.772900    3.241700   -0.897800
  H      4.846100    0.528100    0.671600
  C      5.223100    3.128100    0.029600
  C      5.606800    4.434500    0.349000
  C      4.646400    5.429400    0.437600
  C      3.314300    5.106500    0.232600
  N      2.949200    3.858500   -0.057300
  C      3.862300    2.899300   -0.170300
  H      6.643300    4.664500    0.539400
  H      4.928600    6.442500    0.674600
  H      2.522700    5.850700    0.295500
  H      3.499900    1.914300   -0.457500
  C     -0.804400   -0.411800    6.135100
  C     -0.601100    0.765500    5.948700
  C     -0.442200    2.129800    5.636000
  C     -0.883300    3.119000    6.497300
  C     -0.815900    4.469900    6.136400
  C     -0.340900    4.850700    4.907200
  C      0.128500    3.872900    4.005200
  C      0.579300    4.188400    2.708500
  N      1.037300    3.276000    1.882900
  C      1.122000    1.977200    2.266400
  C      0.665000    1.560200    3.483200
  C      0.117300    2.499900    4.381300
  H     -1.294800    2.843600    7.456500
  H     -1.164200    5.214600    6.835600
  H     -0.321100    5.890700    4.622900
  H      0.553000    5.212300    2.349700
  H      1.591700    1.292600    1.556800
  H      0.712200    0.523700    3.776900
  C     -1.127400   -1.768400    6.351100
  C     -1.814400   -2.138800    7.510600
  C     -2.191800   -3.456000    7.690000
  C     -1.893200   -4.408500    6.731100
  C     -1.194000   -4.056200    5.573700
  C     -0.811500   -2.730700    5.390900
  H     -2.051700   -1.394100    8.254800
  H     -2.729300   -3.743700    8.580900
  H     -2.231000   -5.422700    6.875400
  H     -0.244500   -2.437800    4.521700
  C     -0.893800   -5.087500    4.568200
  C     -0.610400   -6.402900    4.949400
  C     -0.398600   -7.373000    3.983600
  C     -0.453400   -7.011300    2.648800
  N     -0.682800   -5.748400    2.287300
  C     -0.902500   -4.807700    3.200900
  H     -0.547400   -6.661200    5.994700
  H     -0.193500   -8.392900    4.266400
  H     -0.317800   -7.752300    1.857100
  H     -1.108000   -3.813300    2.819200
  C     -5.800800   -0.250900    0.337800
  C     -5.449700    0.898100    0.202000
  C     -4.975800    2.219700    0.080200
  C     -5.842900    3.295300    0.019400
  C     -5.358800    4.606400   -0.072400
  C     -4.012400    4.863800   -0.096900
  C     -3.093500    3.793500   -0.037600
  C     -1.700900    3.987700   -0.053500
  N     -0.850000    2.984500   -0.008600
  C     -1.292700    1.706600    0.062200
  C     -2.624300    1.413100    0.095400
  C     -3.571900    2.454400    0.045100
  H     -6.908000    3.121400    0.044400
  H     -6.065500    5.420600   -0.119600
  H     -3.647100    5.876200   -0.161000
  H     -1.279300    4.990200   -0.104700
  H     -0.525700    0.940100    0.093200
  H     -2.970500    0.394400    0.160900
  C     -6.188700   -1.589300    0.564400
  C     -7.433800   -1.872300    1.131500
  C     -7.774800   -3.182700    1.408900
  C     -6.894000   -4.213600    1.129500
  C     -5.651700   -3.947700    0.548200
  C     -5.307600   -2.629200    0.264900
  H     -8.117300   -1.068200    1.357100
  H     -8.732900   -3.404500    1.854100
  H     -7.167900   -5.223800    1.390600
  H     -4.373100   -2.395800   -0.219800
  C     -4.723300   -5.056000    0.272800
  C     -5.191600   -6.319800   -0.105000
  C     -4.298200   -7.360200   -0.293300
  C     -2.945800   -7.123600   -0.117100
  N     -2.496300   -5.913400    0.208500
  C     -3.343300   -4.902900    0.403500
  H     -6.246800   -6.481000   -0.259800
  H     -4.646400   -8.340900   -0.573900
  H     -2.207400   -7.910800   -0.242500
  H     -2.896100   -3.953000    0.693700
  C     -1.473000   -0.602900   -5.721300
  C     -1.288600    0.590700   -5.662200
  C     -1.083800    1.968800   -5.454600
  C     -1.615400    2.925200   -6.300500
  C     -1.462300    4.289900   -6.027000
  C     -0.807700    4.718600   -4.900100
  C     -0.245800    3.774400   -4.015300
  C      0.383600    4.139100   -2.807400
  N      0.912100    3.253500   -1.995200
  C      0.901900    1.933900   -2.313400
  C      0.280800    1.473700   -3.438000
  C     -0.350600    2.386000   -4.308500
  H     -2.161600    2.615600   -7.178600
  H     -1.884900    5.009100   -6.711800
  H     -0.717500    5.771100   -4.683000
  H      0.443300    5.180800   -2.510100
  H      1.432800    1.259000   -1.636800
  H      0.255900    0.422600   -3.676900
  C     -1.724000   -1.989800   -5.790500
  C     -2.498300   -2.510500   -6.830500
  C     -2.758500   -3.867200   -6.877000
  C     -2.249200   -4.713000   -5.906800
  C     -1.469800   -4.206200   -4.864400
  C     -1.215000   -2.840700   -4.807200
  H     -2.888700   -1.851000   -7.590400
  H     -3.361100   -4.270700   -7.676700
  H     -2.479400   -5.766300   -5.949300
  H     -0.593300   -2.434000   -4.025300
  C     -0.924600   -5.131000   -3.857100
  C     -0.430900   -6.381200   -4.240800
  C      0.040200   -7.260600   -3.280200
  C      0.007200   -6.877700   -1.950600
  N     -0.446200   -5.676500   -1.586800
  C     -0.898400   -4.818100   -2.498200
  H     -0.406900   -6.653700   -5.284300
  H      0.422500   -8.228600   -3.561300
  H      0.363800   -7.548000   -1.165700
  H     -1.265700   -3.870400   -2.119700

 Total Charge           Charge          ....    4
 Multiplicity           Mult            ....    1
 Number of Electrons    NEL             ....  672
 Basis Dimension        Dim             .... 2058

ORBITAL ENERGIES
----------------

  NO   OCC          E(Eh)            E(eV)
   0   2.0000     -14.354218      -390.5981
   1   2.0000     -14.353930      -390.5903
   2   2.0000     -14.353002      -390.5651
   3   2.0000     -14.349966      -390.4824
   4   2.0000     -14.344315      -390.3287
   5   2.0000     -14.344242      -390.3267
   6   2.0000     -14.342001      -390.2657
   7   2.0000     -14.340040      -390.2123
   8   2.0000     -10.250014      -278.9170
   9   2.0000     -10.248029      -278.8630
  10   2.0000     -10.247308      -278.8434
  11   2.0000     -10.247116      -278.8382
  12   2.0000     -10.246672      -278.8261
  13   2.0000     -10.246032      -278.8087
  14   2.0000     -10.245193      -278.7859
  15   2.0000     -10.244254      -278.7603
  16   2.0000     -10.242870      -278.7227
  17   2.0000     -10.242428      -278.7106
  18   2.0000     -10.242010      -278.6993
  19   2.0000     -10.237597      -278.5792
  20   2.0000     -10.236159      -278.5400
  21   2.0000     -10.235774      -278.5296
  22   2.0000     -10.234495      -278.4948
  23   2.0000     -10.233522      -278.4683
  24   2.0000     -10.220126      -278.1038
  25   2.0000     -10.219786      -278.0945
  26   2.0000     -10.219333      -278.0822
  27   2.0000     -10.213526      -277.9242
  28   2.0000     -10.211895      -277.8798
  29   2.0000     -10.210667      -277.8464
  30   2.0000     -10.210096      -277.8308
  31   2.0000     -10.209983      -277.8278
  32   2.0000     -10.209483      -277.8141
  33   2.0000     -10.209201      -277.8065
  34   2.0000     -10.209100      -277.8037
  35   2.0000     -10.209091      -277.8035
  36   2.0000     -10.209003      -277.8011
  37   2.0000     -10.207382      -277.7570
  38   2.0000     -10.207374      -277.7568
  39   2.0000     -10.206600      -277.7357
  40   2.0000     -10.206466      -277.7321
  41   2.0000     -10.205678      -277.7106
  42   2.0000     -10.205678      -277.7106
  43   2.0000     -10.205431      -277.7039
  44   2.0000     -10.205115      -277.6953
  45   2.0000     -10.205048      -277.6935
  46   2.0000     -10.203062      -277.6394
  47   2.0000     -10.202883      -277.6346
  48   2.0000     -10.201534      -277.5979
  49   2.0000     -10.200949      -277.5819
  50   2.0000     -10.199928      -277.5541
  51   2.0000     -10.196319      -277.4559
  52   2.0000     -10.190352      -277.2936
  53   2.0000     -10.188871      -277.2533
  54   2.0000     -10.188770      -277.2505
  55   2.0000     -10.188396      -277.2404
  56   2.0000     -10.187327      -277.2112
  57   2.0000     -10.187207      -277.2080
  58   2.0000     -10.184780      -277.1420
  59   2.0000     -10.184733      -277.1407
  60   2.0000     -10.183949      -277.1193
  61   2.0000     -10.183394      -277.1042
  62   2.0000     -10.182739      -277.0864
  63   2.0000     -10.181607      -277.0556
  64   2.0000     -10.180783      -277.0332
  65   2.0000     -10.180513      -277.0258
  66   2.0000     -10.180334      -277.0210
  67   2.0000     -10.179667      -277.0028
  68   2.0000     -10.179013      -276.9850
  69   2.0000     -10.177801      -276.9520
  70   2.0000     -10.177794      -276.9519
  71   2.0000     -10.177787      -276.9517
  72   2.0000     -10.177698      -276.9492
  73   2.0000     -10.174882      -276.8726
  74   2.0000     -10.173664      -276.8395
  75   2.0000     -10.171866      -276.7906
  76   2.0000     -10.168523      -276.6996
  77   2.0000     -10.168432      -276.6971
  78   2.0000     -10.167533      -276.6727
  79   2.0000     -10.167407      -276.6692
  80   2.0000     -10.166264      -276.6381
  81   2.0000     -10.166244      -276.6376
  82   2.0000     -10.165329      -276.6127
  83   2.0000     -10.165314      -276.6123
  84   2.0000     -10.164773      -276.5975
  85   2.0000     -10.163962      -276.5755
  86   2.0000     -10.163663      -276.5673
  87   2.0000     -10.162810      -276.5441
  88   2.0000     -10.162050      -276.5234
  89   2.0000     -10.161442      -276.5069
  90   2.0000     -10.161347      -276.5043
  91   2.0000     -10.159108      -276.4434
  92   2.0000     -10.159095      -276.4430
  93   2.0000     -10.157961      -276.4122
  94   2.0000     -10.157729      -276.4059
  95   2.0000     -10.152117      -276.2532
  96   2.0000      -3.667608       -99.8007
  97   2.0000      -3.659852       -99.5896
  98   2.0000      -2.399494       -65.2935
  99   2.0000      -2.398258       -65.2599
 100   2.0000      -2.391895       -65.0868
 101   2.0000      -2.390277       -65.0428
 102   2.0000      -2.355981       -64.1095
 103   2.0000      -2.348388       -63.9029
 104   2.0000      -1.221131       -33.2287
 105   2.0000      -1.213864       -33.0309
 106   2.0000      -1.213418       -33.0188
 107   2.0000      -1.212283       -32.9879
 108   2.0000      -1.210331       -32.9348
 109   2.0000      -1.204423       -32.7740
 110   2.0000      -1.203574       -32.7509
 111   2.0000      -1.202129       -32.7116
 112   2.0000      -1.092521       -29.7290
 113   2.0000      -1.092000       -29.7148
 114   2.0000      -1.089381       -29.6436
 115   2.0000      -1.088002       -29.6061
 116   2.0000      -1.081124       -29.4189
 117   2.0000      -1.080614       -29.4050
 118   2.0000      -1.080147       -29.3923
 119   2.0000      -1.073680       -29.2163
 120   2.0000      -1.050663       -28.5900
 121   2.0000      -1.049079       -28.5469
 122   2.0000      -1.048757       -28.5381
 123   2.0000      -1.041109       -28.3300
 124   2.0000      -1.033632       -28.1266
 125   2.0000      -1.032697       -28.1011
 126   2.0000      -1.029111       -28.0035
 127   2.0000      -1.027709       -27.9654
 128   2.0000      -1.025909       -27.9164
 129   2.0000      -1.025391       -27.9023
 130   2.0000      -1.023745       -27.8575
 131   2.0000      -1.015826       -27.6420
 132   2.0000      -1.011372       -27.5208
 133   2.0000      -1.010916       -27.5084
 134   2.0000      -1.008518       -27.4432
 135   2.0000      -1.006456       -27.3870
 136   2.0000      -0.993904       -27.0455
 137   2.0000      -0.992052       -26.9951
 138   2.0000      -0.991304       -26.9747
 139   2.0000      -0.990545       -26.9541
 140   2.0000      -0.979833       -26.6626
 141   2.0000      -0.977677       -26.6039
 142   2.0000      -0.976912       -26.5831
 143   2.0000      -0.975832       -26.5537
 144   2.0000      -0.961783       -26.1714
 145   2.0000      -0.961066       -26.1519
 146   2.0000      -0.960720       -26.1425
 147   2.0000      -0.953774       -25.9535
 148   2.0000      -0.933233       -25.3946
 149   2.0000      -0.931340       -25.3431
 150   2.0000      -0.930614       -25.3233
 151   2.0000      -0.929793       -25.3010
 152   2.0000      -0.904314       -24.6076
 153   2.0000      -0.903297       -24.5800
 154   2.0000      -0.899850       -24.4862
 155   2.0000      -0.899050       -24.4644
 156   2.0000      -0.898365       -24.4458
 157   2.0000      -0.897338       -24.4178
 158   2.0000      -0.895615       -24.3709
 159   2.0000      -0.890110       -24.2211
 160   2.0000      -0.888173       -24.1684
 161   2.0000      -0.887854       -24.1597
 162   2.0000      -0.886802       -24.1311
 163   2.0000      -0.880780       -23.9673
 164   2.0000      -0.878753       -23.9121
 165   2.0000      -0.876863       -23.8606
 166   2.0000      -0.874262       -23.7899
 167   2.0000      -0.872095       -23.7309
 168   2.0000      -0.862683       -23.4748
 169   2.0000      -0.861247       -23.4357
 170   2.0000      -0.860045       -23.4030
 171   2.0000      -0.859229       -23.3808
 172   2.0000      -0.834117       -22.6975
 173   2.0000      -0.832387       -22.6504
 174   2.0000      -0.831762       -22.6334
 175   2.0000      -0.830756       -22.6060
 176   2.0000      -0.828716       -22.5505
 177   2.0000      -0.827759       -22.5245
 178   2.0000      -0.825641       -22.4668
 179   2.0000      -0.821022       -22.3411
 180   2.0000      -0.809806       -22.0359
 181   2.0000      -0.803196       -21.8561
 182   2.0000      -0.799016       -21.7423
 183   2.0000      -0.797105       -21.6903
 184   2.0000      -0.794546       -21.6207
 185   2.0000      -0.791369       -21.5343
 186   2.0000      -0.787434       -21.4272
 187   2.0000      -0.786281       -21.3958
 188   2.0000      -0.781400       -21.2630
 189   2.0000      -0.779768       -21.2186
 190   2.0000      -0.776627       -21.1331
 191   2.0000      -0.775408       -21.0999
 192   2.0000      -0.766659       -20.8619
 193   2.0000      -0.766077       -20.8460
 194   2.0000      -0.763279       -20.7699
 195   2.0000      -0.760884       -20.7047
 196   2.0000      -0.759618       -20.6702
 197   2.0000      -0.759177       -20.6583
 198   2.0000      -0.758843       -20.6492
 199   2.0000      -0.757811       -20.6211
 200   2.0000      -0.756225       -20.5779
 201   2.0000      -0.753214       -20.4960
 202   2.0000      -0.750851       -20.4317
 203   2.0000      -0.748444       -20.3662
 204   2.0000      -0.734160       -19.9775
 205   2.0000      -0.731240       -19.8981
 206   2.0000      -0.728533       -19.8244
 207   2.0000      -0.727186       -19.7877
 208   2.0000      -0.726405       -19.7665
 209   2.0000      -0.724433       -19.7128
 210   2.0000      -0.720819       -19.6145
 211   2.0000      -0.719039       -19.5661
 212   2.0000      -0.717800       -19.5323
 213   2.0000      -0.716815       -19.5055
 214   2.0000      -0.715973       -19.4826
 215   2.0000      -0.714405       -19.4399
 216   2.0000      -0.710838       -19.3429
 217   2.0000      -0.710021       -19.3207
 218   2.0000      -0.709187       -19.2980
 219   2.0000      -0.704683       -19.1754
 220   2.0000      -0.703313       -19.1381
 221   2.0000      -0.702186       -19.1074
 222   2.0000      -0.701176       -19.0800
 223   2.0000      -0.700397       -19.0588
 224   2.0000      -0.700209       -19.0537
 225   2.0000      -0.698308       -19.0019
 226   2.0000      -0.696870       -18.9628
 227   2.0000      -0.694185       -18.8897
 228   2.0000      -0.693481       -18.8706
 229   2.0000      -0.692088       -18.8327
 230   2.0000      -0.691271       -18.8104
 231   2.0000      -0.690153       -18.7800
 232   2.0000      -0.689027       -18.7494
 233   2.0000      -0.688396       -18.7322
 234   2.0000      -0.687578       -18.7099
 235   2.0000      -0.686601       -18.6834
 236   2.0000      -0.682971       -18.5846
 237   2.0000      -0.682893       -18.5825
 238   2.0000      -0.681211       -18.5367
 239   2.0000      -0.680395       -18.5145
 240   2.0000      -0.679460       -18.4890
 241   2.0000      -0.677832       -18.4447
 242   2.0000      -0.677264       -18.4293
 243   2.0000      -0.677017       -18.4226
 244   2.0000      -0.674791       -18.3620
 245   2.0000      -0.673029       -18.3140
 246   2.0000      -0.672306       -18.2944
 247   2.0000      -0.670469       -18.2444
 248   2.0000      -0.660338       -17.9687
 249   2.0000      -0.658592       -17.9212
 250   2.0000      -0.656060       -17.8523
 251   2.0000      -0.655013       -17.8238
 252   2.0000      -0.654725       -17.8160
 253   2.0000      -0.654575       -17.8119
 254   2.0000      -0.649832       -17.6828
 255   2.0000      -0.648489       -17.6463
 256   2.0000      -0.643072       -17.4989
 257   2.0000      -0.642361       -17.4795
 258   2.0000      -0.639303       -17.3963
 259   2.0000      -0.638747       -17.3812
 260   2.0000      -0.638539       -17.3755
 261   2.0000      -0.637560       -17.3489
 262   2.0000      -0.636175       -17.3112
 263   2.0000      -0.633165       -17.2293
 264   2.0000      -0.632843       -17.2205
 265   2.0000      -0.627763       -17.0823
 266   2.0000      -0.625415       -17.0184
 267   2.0000      -0.623606       -16.9692
 268   2.0000      -0.620173       -16.8758
 269   2.0000      -0.617953       -16.8154
 270   2.0000      -0.616648       -16.7799
 271   2.0000      -0.615272       -16.7424
 272   2.0000      -0.612378       -16.6637
 273   2.0000      -0.611668       -16.6443
 274   2.0000      -0.607988       -16.5442
 275   2.0000      -0.604290       -16.4436
 276   2.0000      -0.602079       -16.3834
 277   2.0000      -0.601468       -16.3668
 278   2.0000      -0.600541       -16.3415
 279   2.0000      -0.598222       -16.2784
 280   2.0000      -0.596835       -16.2407
 281   2.0000      -0.595412       -16.2020
 282   2.0000      -0.592890       -16.1333
 283   2.0000      -0.590696       -16.0737
 284   2.0000      -0.589566       -16.0429
 285   2.0000      -0.589308       -16.0359
 286   2.0000      -0.588806       -16.0222
 287   2.0000      -0.586526       -15.9602
 288   2.0000      -0.584824       -15.9139
 289   2.0000      -0.583538       -15.8789
 290   2.0000      -0.583065       -15.8660
 291   2.0000      -0.580412       -15.7938
 292   2.0000      -0.578674       -15.7465
 293   2.0000      -0.576961       -15.6999
 294   2.0000      -0.575542       -15.6613
 295   2.0000      -0.573969       -15.6185
 296   2.0000      -0.573460       -15.6046
 297   2.0000      -0.572896       -15.5893
 298   2.0000      -0.570080       -15.5127
 299   2.0000      -0.568088       -15.4585
 300   2.0000      -0.565882       -15.3984
 301   2.0000      -0.563224       -15.3261
 302   2.0000      -0.561070       -15.2675
 303   2.0000      -0.558507       -15.1977
 304   2.0000      -0.558310       -15.1924
 305   2.0000      -0.555836       -15.1251
 306   2.0000      -0.555042       -15.1035
 307   2.0000      -0.554082       -15.0773
 308   2.0000      -0.551392       -15.0041
 309   2.0000      -0.548159       -14.9162
 310   2.0000      -0.544988       -14.8299
 311   2.0000      -0.543740       -14.7959
 312   2.0000      -0.538856       -14.6630
 313   2.0000      -0.537259       -14.6196
 314   2.0000      -0.529754       -14.4153
 315   2.0000      -0.528560       -14.3828
 316   2.0000      -0.528280       -14.3752
 317   2.0000      -0.524404       -14.2698
 318   2.0000      -0.521950       -14.2030
 319   2.0000      -0.519266       -14.1299
 320   2.0000      -0.517755       -14.0888
 321   2.0000      -0.517299       -14.0764
 322   2.0000      -0.512063       -13.9339
 323   2.0000      -0.511142       -13.9089
 324   2.0000      -0.508908       -13.8481
 325   2.0000      -0.508194       -13.8287
 326   2.0000      -0.503946       -13.7131
 327   2.0000      -0.501425       -13.6445
 328   2.0000      -0.497318       -13.5327
 329   2.0000      -0.496527       -13.5112
 330   2.0000      -0.495636       -13.4869
 331   2.0000      -0.489129       -13.3099
 332   2.0000      -0.466933       -12.7059
 333   2.0000      -0.463851       -12.6220
 334   2.0000      -0.463471       -12.6117
 335   2.0000      -0.462983       -12.5984
 336   0.0000      -0.389451       -10.5975
 337   0.0000      -0.386282       -10.5113
 338   0.0000      -0.385746       -10.4967
 339   0.0000      -0.380129       -10.3438
 340   0.0000      -0.377111       -10.2617

MULLIKEN ATOMIC CHARGES
-----------------------
   0 Pd:   -0.099446
   1 Pd:   -0.104912
   2 C :    0.026655
   3 C :    0.011374
   4 C :   -0.211560
   5 C :   -0.073109
   6 C :   -0.194398
   7 C :   -0.215142
   8 C :    0.163846
   9 C :   -0.240087
  10 N :   -0.043458
  11 C :   -0.194307
  12 C :    0.046753
  13 C :    0.176980
  14 H :    0.259386
  15 H :    0.231410
  16 H :    0.234701
  17 H :    0.194700
  18 H :    0.143555
  19 H :    0.180114
  20 C :   -0.177962
  21 C :   -0.116015
  22 C :   -0.164188
  23 C :   -0.133834
  24 C :   -0.043821
  25 C :   -0.133537
  26 H :    0.240863
  27 H :    0.225459
  28 H :    0.243302
  29 H :    0.228469
  30 C :    0.025312
  31 C :   -0.162697
  32 C :   -0.050296
  33 C :   -0.130658
  34 N :   -0.014827
  35 C :   -0.155412
  36 H :    0.260683
  37 H :    0.246761
  38 H :    0.189824
  39 H :    0.182142
  40 C :   -0.036236
  41 C :    0.097220
  42 C :   -0.201412
  43 C :   -0.093000
  44 C :   -0.186261
  45 C :   -0.219273
  46 C :    0.114954
  47 C :   -0.183697
  48 N :   -0.101202
  49 C :   -0.193215
  50 C :    0.012482
  51 C :    0.210665
  52 H :    0.256305
  53 H :    0.229607
  54 H :    0.235946
  55 H :    0.206367
  56 H :    0.153381
  57 H :    0.198788
  58 C :   -0.153558
  59 C :   -0.129421
  60 C :   -0.170151
  61 C :   -0.145802
  62 C :   -0.026464
  63 C :   -0.147089
  64 H :    0.242889
  65 H :    0.225178
  66 H :    0.245000
  67 H :    0.213438
  68 C :    0.005872
  69 C :   -0.178355
  70 C :   -0.037263
  71 C :   -0.135247
  72 N :   -0.053523
  73 C :   -0.114789
  74 H :    0.268590
  75 H :    0.249023
  76 H :    0.188777
  77 H :    0.192857
  78 C :    0.003932
  79 C :    0.055593
  80 C :   -0.238711
  81 C :   -0.077050
  82 C :   -0.187270
  83 C :   -0.228387
  84 C :    0.210847
  85 C :   -0.248623
  86 N :   -0.080115
  87 C :   -0.103342
  88 C :    0.018521
  89 C :    0.192088
  90 H :    0.259547
  91 H :    0.229864
  92 H :    0.234521
  93 H :    0.208226
  94 H :    0.133575
  95 H :    0.166164
  96 C :   -0.175468
  97 C :   -0.121857
  98 C :   -0.169138
  99 C :   -0.145195
 100 C :   -0.048789
 101 C :   -0.132863
 102 H :    0.243373
 103 H :    0.225297
 104 H :    0.244209
 105 H :    0.219451
 106 C :    0.061077
 107 C :   -0.171439
 108 C :   -0.062928
 109 C :   -0.108551
 110 N :   -0.055875
 111 C :   -0.168724
 112 H :    0.266954
 113 H :    0.249649
 114 H :    0.192037
 115 H :    0.187682
 116 C :   -0.034394
 117 C :    0.109571
 118 C :   -0.201895
 119 C :   -0.090946
 120 C :   -0.181737
 121 C :   -0.221769
 122 C :    0.118465
 123 C :   -0.202781
 124 N :   -0.080057
 125 C :   -0.188928
 126 C :    0.026550
 127 C :    0.187612
 128 H :    0.257885
 129 H :    0.229759
 130 H :    0.236842
 131 H :    0.212534
 132 H :    0.141506
 133 H :    0.191124
 134 C :   -0.155867
 135 C :   -0.129260
 136 C :   -0.161604
 137 C :   -0.159762
 138 C :   -0.002054
 139 C :   -0.175252
 140 H :    0.244776
 141 H :    0.224931
 142 H :    0.243978
 143 H :    0.212508
 144 C :   -0.007423
 145 C :   -0.172618
 146 C :   -0.049168
 147 C :   -0.127651
 148 N :   -0.056554
 149 C :   -0.109133
 150 H :    0.269504
 151 H :    0.249511
 152 H :    0.177101
 153 H :    0.202412
Sum of atomic charges:    4.0000000

LOEWDIN ATOMIC CHARGES
----------------------
   0 Pd:   -0.081354
   1 Pd:   -0.085155
   2 C :    0.005250
   3 C :   -0.042996
   4 C :   -0.039080
   5 C :   -0.074416
   6 C :   -0.102200
   7 C :   -0.119843
   8 C :   -0.039463
   9 C :   -0.005047
  10 N :   -0.086844
  11 C :   -0.068392
  12 C :   -0.114105
  13 C :   -0.004389
  14 H :    0.200936
  15 H :    0.197415
  16 H :    0.188042
  17 H :    0.185980
  18 H :    0.175777
  19 H :    0.190706
  20 C :   -0.059727
  21 C :   -0.094343
  22 C :   -0.115052
  23 C :   -0.114301
  24 C :   -0.059899
  25 C :   -0.126441
  26 H :    0.193744
  27 H :    0.192863
  28 H :    0.186240
  29 H :    0.169397
  30 C :   -0.024365
  31 C :   -0.074213
  32 C :   -0.115451
  33 C :   -0.033226
  34 N :   -0.075135
  35 C :   -0.028669
  36 H :    0.201323
  37 H :    0.202800
  38 H :    0.188136
  39 H :    0.180673
  40 C :   -0.006163
  41 C :   -0.030053
  42 C :   -0.041000
  43 C :   -0.076988
  44 C :   -0.104400
  45 C :   -0.116474
  46 C :   -0.040472
  47 C :    0.001537
  48 N :   -0.085226
  49 C :   -0.067754
  50 C :   -0.113328
  51 C :   -0.002511
  52 H :    0.199501
  53 H :    0.196654
  54 H :    0.189491
  55 H :    0.189972
  56 H :    0.177515
  57 H :    0.194064
  58 C :   -0.056588
  59 C :   -0.092757
  60 C :   -0.116613
  61 C :   -0.120605
  62 C :   -0.062724
  63 C :   -0.125187
  64 H :    0.194582
  65 H :    0.192595
  66 H :    0.185093
  67 H :    0.170225
  68 C :   -0.023586
  69 C :   -0.076526
  70 C :   -0.117155
  71 C :   -0.041890
  72 N :   -0.074891
  73 C :   -0.025538
  74 H :    0.202762
  75 H :    0.202123
  76 H :    0.189551
  77 H :    0.182632
  78 C :   -0.005369
  79 C :   -0.031930
  80 C :   -0.041947
  81 C :   -0.077859
  82 C :   -0.106034
  83 C :   -0.119623
  84 C :   -0.041632
  85 C :   -0.001534
  86 N :   -0.083340
  87 C :   -0.061024
  88 C :   -0.117064
  89 C :   -0.002055
  90 H :    0.199874
  91 H :    0.196241
  92 H :    0.187999
  93 H :    0.191956
  94 H :    0.173316
  95 H :    0.191631
  96 C :   -0.057556
  97 C :   -0.094040
  98 C :   -0.116484
  99 C :   -0.120099
 100 C :   -0.062080
 101 C :   -0.127241
 102 H :    0.194477
 103 H :    0.192557
 104 H :    0.185322
 105 H :    0.169728
 106 C :   -0.025157
 107 C :   -0.076331
 108 C :   -0.116567
 109 C :   -0.035230
 110 N :   -0.077511
 111 C :   -0.030275
 112 H :    0.202147
 113 H :    0.203058
 114 H :    0.187632
 115 H :    0.183379
 116 C :   -0.008204
 117 C :   -0.027308
 118 C :   -0.041385
 119 C :   -0.077069
 120 C :   -0.104670
 121 C :   -0.115839
 122 C :   -0.040909
 123 C :    0.002703
 124 N :   -0.085262
 125 C :   -0.067549
 126 C :   -0.113348
 127 C :   -0.001877
 128 H :    0.199671
 129 H :    0.196577
 130 H :    0.189918
 131 H :    0.192064
 132 H :    0.177189
 133 H :    0.194120
 134 C :   -0.056450
 135 C :   -0.093575
 136 C :   -0.116767
 137 C :   -0.123457
 138 C :   -0.064386
 139 C :   -0.126314
 140 H :    0.195084
 141 H :    0.192453
 142 H :    0.184867
 143 H :    0.169924
 144 C :   -0.025750
 145 C :   -0.075452
 146 C :   -0.117962
 147 C :   -0.042554
 148 N :   -0.077240
 149 C :   -0.025600
 150 H :    0.203799
 151 H :    0.202097
 152 H :    0.188448
 153 H :    0.183628

  Mayer bond orders larger than 0.100000
B(  0-Pd, 34-N ) :   0.5326 B(  0-Pd, 48-N ) :   0.5751 B(  0-Pd, 86-N ) :   0.4992
B(  0-Pd,124-N ) :   0.5799 B(  1-Pd, 10-N ) :   0.5302 B(  1-Pd, 71-C ) :   0.1099
B(  1-Pd, 72-N ) :   0.5419 B(  1-Pd,110-N ) :   0.5290 B(  1-Pd,147-C ) :   0.1072
B(  1-Pd,148-N ) :   0.5310 B(  2-C ,  3-C ) :   1.8773 B(  2-C ,  4-C ) :  -0.2924
B(  2-C , 20-C ) :   1.5110 B(  3-C ,  4-C ) :   1.4613 B(  3-C , 13-C ) :  -0.2077
B(  3-C , 20-C ) :  -0.3745 B(  4-C ,  5-C ) :   1.5319 B(  4-C , 12-C ) :  -0.1305
B(  4-C , 13-C ) :   1.0546 B(  5-C ,  6-C ) :   1.4179 B(  5-C , 14-H ) :   0.8538
B(  6-C ,  7-C ) :   1.6435 B(  6-C , 15-H ) :   0.8691 B(  7-C ,  8-C ) :   1.2834
B(  7-C , 13-C ) :  -0.1016 B(  7-C , 16-H ) :   0.8623 B(  8-C ,  9-C ) :   1.3183
B(  8-C , 13-C ) :   1.0692 B(  9-C , 10-N ) :   1.4607 B(  9-C , 13-C ) :  -0.1179
B(  9-C , 17-H ) :   0.8933 B( 10-N , 11-C ) :   1.2630 B( 11-C , 12-C ) :   1.4141
B( 11-C , 13-C ) :   0.1078 B( 11-C , 18-H ) :   0.9535 B( 12-C , 13-C ) :   1.4236
B( 12-C , 19-H ) :   0.8774 B( 20-C , 21-C ) :   1.3617 B( 20-C , 25-C ) :   1.4318
B( 21-C , 22-C ) :   1.5375 B( 21-C , 26-H ) :   0.8818 B( 22-C , 23-C ) :   1.5811
B( 22-C , 27-H ) :   0.8702 B( 23-C , 24-C ) :   1.3674 B( 23-C , 28-H ) :   0.8462
B( 24-C , 25-C ) :   1.3375 B( 24-C , 30-C ) :   0.9072 B( 25-C , 29-H ) :   0.8609
B( 30-C , 31-C ) :   1.4506 B( 30-C , 35-C ) :   1.3943 B( 31-C , 32-C ) :   1.5107
B( 31-C , 36-H ) :   0.8736 B( 32-C , 33-C ) :   1.4294 B( 32-C , 37-H ) :   0.8691
B( 33-C , 34-N ) :   1.3579 B( 33-C , 38-H ) :   0.9278 B( 34-N , 35-C ) :   1.3635
B( 34-N , 86-N ) :   0.1084 B( 35-C , 39-H ) :   0.9150 B( 40-C , 41-C ) :   1.8939
B( 40-C , 42-C ) :  -0.2778 B( 40-C , 58-C ) :   1.5008 B( 41-C , 42-C ) :   1.4537
B( 41-C , 51-C ) :  -0.2006 B( 41-C , 58-C ) :  -0.3943 B( 42-C , 43-C ) :   1.5164
B( 42-C , 51-C ) :   1.0698 B( 43-C , 44-C ) :   1.4082 B( 43-C , 52-H ) :   0.8581
B( 44-C , 45-C ) :   1.6460 B( 44-C , 53-H ) :   0.8722 B( 45-C , 46-C ) :   1.3061
B( 45-C , 54-H ) :   0.8628 B( 46-C , 47-C ) :   1.2626 B( 46-C , 51-C ) :   1.0771
B( 47-C , 48-N ) :   1.4998 B( 47-C , 51-C ) :  -0.1204 B( 47-C , 55-H ) :   0.9117
B( 48-N , 49-C ) :   1.2555 B( 49-C , 50-C ) :   1.4629 B( 49-C , 56-H ) :   0.9290
B( 50-C , 51-C ) :   1.3869 B( 50-C , 57-H ) :   0.8732 B( 58-C , 59-C ) :   1.3564
B( 58-C , 63-C ) :   1.3830 B( 59-C , 60-C ) :   1.5461 B( 59-C , 64-H ) :   0.8856
B( 60-C , 61-C ) :   1.5858 B( 60-C , 65-H ) :   0.8702 B( 61-C , 62-C ) :   1.3505
B( 61-C , 66-H ) :   0.8391 B( 62-C , 63-C ) :   1.3176 B( 62-C , 68-C ) :   0.9260
B( 63-C , 67-H ) :   0.8874 B( 68-C , 69-C ) :   1.4192 B( 68-C , 73-C ) :   1.3915
B( 69-C , 70-C ) :   1.5053 B( 69-C , 74-H ) :   0.8662 B( 70-C , 71-C ) :   1.4487
B( 70-C , 75-H ) :   0.8609 B( 71-C , 72-N ) :   1.2986 B( 71-C , 76-H ) :   0.9237
B( 72-N , 73-C ) :   1.4058 B( 73-C , 77-H ) :   0.9083 B( 78-C , 79-C ) :   1.8554
B( 78-C , 80-C ) :  -0.2886 B( 78-C , 96-C ) :   1.5113 B( 79-C , 80-C ) :   1.4804
B( 79-C , 89-C ) :  -0.1947 B( 79-C , 96-C ) :  -0.3902 B( 80-C , 81-C ) :   1.5220
B( 80-C , 88-C ) :  -0.1250 B( 80-C , 89-C ) :   1.0708 B( 81-C , 82-C ) :   1.4036
B( 81-C , 90-H ) :   0.8532 B( 82-C , 83-C ) :   1.6413 B( 82-C , 91-H ) :   0.8696
B( 83-C , 84-C ) :   1.2987 B( 83-C , 92-H ) :   0.8665 B( 84-C , 85-C ) :   1.2117
B( 84-C , 89-C ) :   1.0865 B( 85-C , 86-N ) :   1.4734 B( 85-C , 89-C ) :  -0.1242
B( 85-C , 93-H ) :   0.9225 B( 86-N , 87-C ) :   1.3037 B( 87-C , 88-C ) :   1.4852
B( 87-C , 89-C ) :   0.1093 B( 87-C , 94-H ) :   0.9026 B( 88-C , 89-C ) :   1.3950
B( 88-C , 95-H ) :   0.8742 B( 96-C , 97-C ) :   1.3673 B( 96-C ,101-C ) :   1.4133
B( 97-C , 98-C ) :   1.5404 B( 97-C ,102-H ) :   0.8815 B( 98-C , 99-C ) :   1.5893
B( 98-C ,103-H ) :   0.8704 B( 99-C ,100-C ) :   1.3558 B( 99-C ,104-H ) :   0.8422
B(100-C ,101-C ) :   1.3295 B(100-C ,106-C ) :   0.9235 B(101-C ,105-H ) :   0.8738
B(106-C ,107-C ) :   1.4293 B(106-C ,111-C ) :   1.3493 B(107-C ,108-C ) :   1.5247
B(107-C ,112-H ) :   0.8671 B(108-C ,109-C ) :   1.4596 B(108-C ,113-H ) :   0.8629
B(109-C ,110-N ) :   1.3443 B(109-C ,114-H ) :   0.9144 B(110-N ,111-C ) :   1.3709
B(111-C ,115-H ) :   0.9241 B(116-C ,117-C ) :   1.8867 B(116-C ,118-C ) :  -0.2797
B(116-C ,134-C ) :   1.5075 B(117-C ,118-C ) :   1.4680 B(117-C ,127-C ) :  -0.1973
B(117-C ,134-C ) :  -0.4024 B(118-C ,119-C ) :   1.5153 B(118-C ,127-C ) :   1.0821
B(119-C ,120-C ) :   1.4052 B(119-C ,128-H ) :   0.8548 B(120-C ,121-C ) :   1.6500
B(120-C ,129-H ) :   0.8720 B(121-C ,122-C ) :   1.3127 B(121-C ,130-H ) :   0.8607
B(122-C ,123-C ) :   1.2434 B(122-C ,127-C ) :   1.0784 B(123-C ,124-N ) :   1.5187
B(123-C ,127-C ) :  -0.1117 B(123-C ,131-H ) :   0.9175 B(124-N ,125-C ) :   1.2499
B(125-C ,126-C ) :   1.4692 B(125-C ,127-C ) :   0.1021 B(125-C ,132-H ) :   0.9294
B(126-C ,127-C ) :   1.3821 B(126-C ,133-H ) :   0.8752 B(134-C ,135-C ) :   1.3606
B(134-C ,139-C ) :   1.3796 B(135-C ,136-C ) :   1.5401 B(135-C ,140-H ) :   0.8838
B(136-C ,137-C ) :   1.5757 B(136-C ,141-H ) :   0.8710 B(137-C ,138-C ) :   1.3561
B(137-C ,142-H ) :   0.8429 B(138-C ,139-C ) :   1.3520 B(138-C ,144-C ) :   0.8952
B(139-C ,143-H ) :   0.8913 B(144-C ,145-C ) :   1.4222 B(144-C ,149-C ) :   1.3942
B(145-C ,146-C ) :   1.5068 B(145-C ,150-H ) :   0.8704 B(146-C ,147-C ) :   1.4552
B(146-C ,151-H ) :   0.8603 B(147-C ,148-N ) :   1.3102 B(147-C ,152-H ) :   0.9261
B(148-N ,149-C ) :   1.4104 B(149-C ,153-H ) :   0.9088

Dispersion correction           -0.592847793
FINAL SINGLE POINT ENERGY     -4078.510053686709

DIPOLE MOMENT
-------------
                                X             Y             Z
Electronic contribution:     59.14503      -3.28018     -10.52060
Nuclear contribution   :    -59.61862       2.05141      10.68913
                        -----------------------------------------
Total Dipole Moment    :     -0.47359      -1.22878       0.16853
                        -----------------------------------------
Magnitude (a.u.)       :      1.32762
Magnitude (Debye)      :      3.37454

Rotational constants in cm-1:     0.000556     0.000428     0.000413
Rotational constants in MHz :    16.660618    12.845862    12.370563

                             ****ORCA TERMINATED NORMALLY****
TOTAL RUN TIME: 0 days 0 hours 9 minutes 3 seconds 594 msec
