                         Program Version 4.2.1 -  RELEASE  -
|  1> ! DFT SP B97-3c TightSCF printbasis  Grid6 NOFINALGRID SlowConv
|  2>
|  3> %base "_s_5d3_b_B97-3c"
|  4> %maxcore 3000
|  5> %scf
|  6>    MaxIter 2000
|  7> end
|  8> %pal
|  9>    nprocs 32
| 10> end
| 11>
| 12> * xyzfile 4 1 s_5d3_b.xyz
| 13>
| 14>                          ****END OF INPUT****

CARTESIAN COORDINATES (ANGSTROEM)
---------------------------------
  Pd     0.577700    5.593400    0.083800
  Pd     0.348800   -5.239400   -0.160600
  C      7.283400   -1.481500   -0.094000
  C      6.857200   -2.612600   -0.122300
  C      6.396900   -3.943400   -0.155400
  C      7.301500   -4.990800   -0.188300
  C      6.868000   -6.321100   -0.221200
  C      5.531500   -6.625700   -0.221600
  C      4.577300   -5.586400   -0.188600
  C      3.192800   -5.837600   -0.187500
  N      2.296100   -4.875400   -0.157300
  C      2.689100   -3.577000   -0.125300
  C      4.009900   -3.225900   -0.123200
  C      5.002300   -4.227300   -0.155100
  H      8.359200   -4.775100   -0.188500
  H      7.604100   -7.109800   -0.246300
  H      5.201000   -7.651900   -0.247000
  H      2.828300   -6.861700   -0.212600
  H      1.886500   -2.840700   -0.101400
  H      4.312600   -2.191400   -0.097600
  C      7.780900   -0.161500   -0.060500
  C      9.161700    0.064400   -0.058600
  C      9.650600    1.358300   -0.025400
  C      8.785000    2.437500    0.006200
  C      7.403800    2.219700    0.004300
  C      6.902500    0.919300   -0.029000
  H      9.841100   -0.774300   -0.083200
  H     10.717300    1.527000   -0.024000
  H      9.170600    3.445400    0.032100
  H      5.837000    0.752900   -0.030400
  C      6.508800    3.309000    0.035400
  C      5.721300    4.225300    0.061100
  C      4.793900    5.284000    0.089200
  C      5.201700    6.624200    0.125100
  C      4.239100    7.618200    0.150000
  C      2.898300    7.265200    0.138500
  N      2.514400    5.985600    0.104500
  C      3.422200    5.014400    0.080600
  H      6.252700    6.867600    0.132800
  H      4.524400    8.657400    0.177600
  H      2.107700    8.013600    0.156600
  H      3.055700    3.990800    0.053600
  C     -0.049900    2.163300    6.953200
  C     -0.060500    3.322300    6.609300
  C     -0.093400    4.648800    6.136700
  C     -0.373100    5.710900    6.977500
  C     -0.436700    7.020300    6.485900
  C     -0.235100    7.287700    5.156100
  C      0.057900    6.232300    4.266300
  C      0.256700    6.436000    2.886500
  N      0.537400    5.453600    2.058900
  C      0.663100    4.184000    2.524500
  C      0.472500    3.877600    3.840600
  C      0.146300    4.898900    4.756000
  H     -0.549100    5.525800    8.026400
  H     -0.656000    7.824200    7.171900
  H     -0.297300    8.297600    4.782800
  H      0.177900    7.434100    2.465100
  H      0.928600    3.426100    1.786500
  H      0.567600    2.865300    4.198900
  C     -0.038000    0.806000    7.339000
  C     -0.097900    0.452400    8.690600
  C     -0.084300   -0.882300    9.055900
  C     -0.010900   -1.874200    8.094300
  C      0.047100   -1.528500    6.739600
  C      0.032300   -0.187400    6.363200
  H     -0.152900    1.224000    9.443600
  H     -0.130400   -1.151100   10.100800
  H      0.000400   -2.913600    8.384900
  H      0.073900    0.079800    5.319000
  C      0.129400   -2.545500    5.765500
  C      0.207300   -3.416700    4.930900
  C      0.323100   -4.503900    4.043400
  C      0.519800   -5.798300    4.545400
  C      0.646200   -6.852900    3.659700
  C      0.574200   -6.601500    2.299500
  N      0.379400   -5.366700    1.822600
  C      0.255600   -4.337200    2.656500
  H      0.573400   -5.958100    5.610900
  H      0.800400   -7.857800    4.018200
  H      0.675000   -7.404000    1.568900
  H      0.098000   -3.359200    2.211100
  C     -6.429800    2.098100   -0.055700
  C     -6.023600    3.236400   -0.028100
  C     -5.519700    4.551100    0.004200
  C     -6.370100    5.642300    0.017400
  C     -5.866900    6.948500    0.049400
  C     -4.516700    7.185000    0.068700
  C     -3.615200    6.098800    0.056000
  C     -2.219000    6.274100    0.074100
  N     -1.376300    5.262100    0.062200
  C     -1.840200    3.989300    0.031800
  C     -3.177000    3.710700    0.012100
  C     -4.112300    4.764700    0.023600
  H     -7.437700    5.482500    0.002700
  H     -6.561400    7.774500    0.058900
  H     -4.135500    8.193400    0.093300
  H     -1.792400    7.275500    0.098800
  H     -1.085400    3.207600    0.024200
  H     -3.534900    2.694200   -0.012200
  C     -6.891400    0.765100   -0.087700
  C     -8.263100    0.492900   -0.109400
  C     -8.706700   -0.817500   -0.140500
  C     -7.804100   -1.866100   -0.150400
  C     -6.430500   -1.601800   -0.129000
  C     -5.975300   -0.285300   -0.097700
  H     -8.970700    1.308300   -0.101700
  H     -9.766900   -1.022900   -0.157200
  H     -8.155100   -2.886500   -0.174700
  H     -4.916200   -0.081800   -0.081000
  C     -5.509500   -2.669700   -0.139200
  C     -4.711200   -3.577400   -0.147600
  C     -3.835600   -4.679900   -0.159400
  C     -4.338100   -5.989100   -0.179300
  C     -3.451600   -7.050100   -0.191200
  C     -2.089800   -6.791900   -0.183500
  N     -1.613300   -5.544600   -0.164600
  C     -2.448500   -4.506800   -0.152400
  H     -5.404100   -6.154900   -0.185200
  H     -3.809300   -8.066800   -0.206500
  H     -1.361000   -7.598300   -0.192500
  H     -2.002000   -3.513900   -0.136800
  C      0.041300    2.472900   -6.940000
  C      0.031200    3.615700   -6.545400
  C     -0.002600    4.920100   -6.015100
  C     -0.263200    6.019900   -6.812600
  C     -0.328300    7.306700   -6.264500
  C     -0.147400    7.513900   -4.921100
  C      0.125600    6.418600   -4.074200
  C      0.302900    6.560000   -2.683700
  N      0.565300    5.540400   -1.896100
  C      0.692300    4.292000   -2.415300
  C      0.521600    4.045000   -3.746600
  C      0.215500    5.107600   -4.621000
  H     -0.422800    5.882300   -7.871300
  H     -0.532200    8.141300   -6.917700
  H     -0.210700    8.506600   -4.504500
  H      0.222200    7.538900   -2.219800
  H      0.941700    3.500700   -1.707400
  H      0.617500    3.049000   -4.147700
  C      0.051400    1.134100   -7.385900
  C      0.008600    0.841700   -8.752700
  C      0.019500   -0.475300   -9.177300
  C      0.073400   -1.509700   -8.260300
  C      0.114400   -1.225500   -6.890700
  C      0.102400    0.097600   -6.454700
  H     -0.031500    1.646700   -9.471100
  H     -0.013500   -0.696700  -10.233800
  H      0.082500   -2.535200   -8.597000
  H      0.130800    0.317500   -5.399200
  C      0.176900   -2.285700   -5.962400
  C      0.237900   -3.194300   -5.167300
  C      0.335100   -4.321300   -4.328500
  C      0.515500   -5.595000   -4.886500
  C      0.625100   -6.689100   -4.047900
  C      0.553000   -6.496800   -2.678000
  N      0.373300   -5.281800   -2.147700
  C      0.265500   -4.215000   -2.935700
  H      0.570100   -5.708500   -5.957900
  H      0.766700   -7.679300   -4.449900
  H      0.641200   -7.332000   -1.983300
  H      0.119600   -3.255500   -2.448100

 Total Charge           Charge          ....    4
 Multiplicity           Mult            ....    1
 Number of Electrons    NEL             ....  720
 Basis Dimension        Dim             .... 2210

ORBITAL ENERGIES
----------------

  NO   OCC          E(Eh)            E(eV)
   0   2.0000     -14.337879      -390.1535
   1   2.0000     -14.337869      -390.1533
   2   2.0000     -14.336707      -390.1216
   3   2.0000     -14.332615      -390.0103
   4   2.0000     -14.331810      -389.9884
   5   2.0000     -14.328107      -389.8876
   6   2.0000     -14.327098      -389.8602
   7   2.0000     -14.327057      -389.8590
   8   2.0000     -10.231812      -278.4218
   9   2.0000     -10.231770      -278.4206
  10   2.0000     -10.230882      -278.3965
  11   2.0000     -10.230823      -278.3949
  12   2.0000     -10.228576      -278.3337
  13   2.0000     -10.227107      -278.2937
  14   2.0000     -10.227077      -278.2929
  15   2.0000     -10.226962      -278.2898
  16   2.0000     -10.226896      -278.2880
  17   2.0000     -10.226740      -278.2837
  18   2.0000     -10.225578      -278.2521
  19   2.0000     -10.221611      -278.1442
  20   2.0000     -10.221315      -278.1361
  21   2.0000     -10.218278      -278.0535
  22   2.0000     -10.217498      -278.0323
  23   2.0000     -10.217409      -278.0298
  24   2.0000     -10.214243      -277.9437
  25   2.0000     -10.214179      -277.9419
  26   2.0000     -10.213105      -277.9127
  27   2.0000     -10.209224      -277.8071
  28   2.0000     -10.194444      -277.4049
  29   2.0000     -10.194397      -277.4037
  30   2.0000     -10.193791      -277.3872
  31   2.0000     -10.193380      -277.3760
  32   2.0000     -10.192044      -277.3396
  33   2.0000     -10.191794      -277.3328
  34   2.0000     -10.190217      -277.2899
  35   2.0000     -10.190200      -277.2894
  36   2.0000     -10.190118      -277.2872
  37   2.0000     -10.189722      -277.2764
  38   2.0000     -10.189688      -277.2755
  39   2.0000     -10.189679      -277.2753
  40   2.0000     -10.188565      -277.2449
  41   2.0000     -10.188545      -277.2444
  42   2.0000     -10.188540      -277.2443
  43   2.0000     -10.188472      -277.2424
  44   2.0000     -10.186699      -277.1942
  45   2.0000     -10.185593      -277.1641
  46   2.0000     -10.185523      -277.1622
  47   2.0000     -10.185042      -277.1491
  48   2.0000     -10.184060      -277.1224
  49   2.0000     -10.183963      -277.1197
  50   2.0000     -10.183873      -277.1173
  51   2.0000     -10.183780      -277.1147
  52   2.0000     -10.168414      -276.6966
  53   2.0000     -10.168303      -276.6936
  54   2.0000     -10.168285      -276.6931
  55   2.0000     -10.166356      -276.6406
  56   2.0000     -10.166285      -276.6387
  57   2.0000     -10.165807      -276.6257
  58   2.0000     -10.165472      -276.6165
  59   2.0000     -10.165453      -276.6160
  60   2.0000     -10.165334      -276.6128
  61   2.0000     -10.164527      -276.5908
  62   2.0000     -10.164364      -276.5864
  63   2.0000     -10.163654      -276.5671
  64   2.0000     -10.163577      -276.5650
  65   2.0000     -10.163543      -276.5641
  66   2.0000     -10.163417      -276.5606
  67   2.0000     -10.163358      -276.5590
  68   2.0000     -10.162615      -276.5388
  69   2.0000     -10.161935      -276.5203
  70   2.0000     -10.161829      -276.5174
  71   2.0000     -10.159836      -276.4632
  72   2.0000     -10.159301      -276.4486
  73   2.0000     -10.159051      -276.4418
  74   2.0000     -10.157237      -276.3925
  75   2.0000     -10.157151      -276.3901
  76   2.0000     -10.154723      -276.3241
  77   2.0000     -10.154675      -276.3228
  78   2.0000     -10.154646      -276.3220
  79   2.0000     -10.154533      -276.3189
  80   2.0000     -10.154420      -276.3158
  81   2.0000     -10.154093      -276.3069
  82   2.0000     -10.153057      -276.2787
  83   2.0000     -10.151115      -276.2259
  84   2.0000     -10.146954      -276.1127
  85   2.0000     -10.146588      -276.1027
  86   2.0000     -10.145349      -276.0690
  87   2.0000     -10.145228      -276.0657
  88   2.0000     -10.144730      -276.0521
  89   2.0000     -10.144717      -276.0518
  90   2.0000     -10.144610      -276.0489
  91   2.0000     -10.143264      -276.0122
  92   2.0000     -10.142874      -276.0016
  93   2.0000     -10.142802      -275.9997
  94   2.0000     -10.142749      -275.9982
  95   2.0000     -10.141991      -275.9776
  96   2.0000     -10.141932      -275.9760
  97   2.0000     -10.141907      -275.9753
  98   2.0000     -10.140981      -275.9501
  99   2.0000     -10.140864      -275.9469
 100   2.0000     -10.134604      -275.7766
 101   2.0000     -10.134414      -275.7714
 102   2.0000     -10.134306      -275.7685
 103   2.0000     -10.132952      -275.7316
 104   2.0000      -3.646921       -99.2378
 105   2.0000      -3.641440       -99.0886
 106   2.0000      -2.377467       -64.6942
 107   2.0000      -2.377350       -64.6910
 108   2.0000      -2.372113       -64.5485
 109   2.0000      -2.371832       -64.5408
 110   2.0000      -2.335313       -63.5471
 111   2.0000      -2.329912       -63.4001
 112   2.0000      -1.200248       -32.6604
 113   2.0000      -1.194352       -32.5000
 114   2.0000      -1.194305       -32.4987
 115   2.0000      -1.193557       -32.4783
 116   2.0000      -1.189911       -32.3791
 117   2.0000      -1.188646       -32.3447
 118   2.0000      -1.185188       -32.2506
 119   2.0000      -1.185068       -32.2473
 120   2.0000      -1.073523       -29.2120
 121   2.0000      -1.072378       -29.1809
 122   2.0000      -1.070881       -29.1402
 123   2.0000      -1.070356       -29.1259
 124   2.0000      -1.050844       -28.5949
 125   2.0000      -1.050666       -28.5901
 126   2.0000      -1.050549       -28.5869
 127   2.0000      -1.048936       -28.5430
 128   2.0000      -1.045090       -28.4383
 129   2.0000      -1.043512       -28.3954
 130   2.0000      -1.043054       -28.3829
 131   2.0000      -1.039795       -28.2943
 132   2.0000      -1.013833       -27.5878
 133   2.0000      -1.012338       -27.5471
 134   2.0000      -1.010573       -27.4991
 135   2.0000      -1.010297       -27.4916
 136   2.0000      -1.009713       -27.4757
 137   2.0000      -1.009312       -27.4648
 138   2.0000      -1.007840       -27.4247
 139   2.0000      -1.004697       -27.3392
 140   2.0000      -0.993422       -27.0324
 141   2.0000      -0.992311       -27.0022
 142   2.0000      -0.990904       -26.9639
 143   2.0000      -0.989946       -26.9378
 144   2.0000      -0.981638       -26.7117
 145   2.0000      -0.980927       -26.6924
 146   2.0000      -0.980812       -26.6892
 147   2.0000      -0.980318       -26.6758
 148   2.0000      -0.968133       -26.3442
 149   2.0000      -0.967973       -26.3399
 150   2.0000      -0.966631       -26.3034
 151   2.0000      -0.966026       -26.2869
 152   2.0000      -0.951372       -25.8882
 153   2.0000      -0.950834       -25.8735
 154   2.0000      -0.950716       -25.8703
 155   2.0000      -0.950010       -25.8511
 156   2.0000      -0.930212       -25.3124
 157   2.0000      -0.929844       -25.3023
 158   2.0000      -0.928879       -25.2761
 159   2.0000      -0.926595       -25.2139
 160   2.0000      -0.910218       -24.7683
 161   2.0000      -0.909965       -24.7614
 162   2.0000      -0.909224       -24.7412
 163   2.0000      -0.909067       -24.7370
 164   2.0000      -0.885317       -24.0907
 165   2.0000      -0.884373       -24.0650
 166   2.0000      -0.884087       -24.0572
 167   2.0000      -0.882962       -24.0266
 168   2.0000      -0.881495       -23.9867
 169   2.0000      -0.880808       -23.9680
 170   2.0000      -0.880279       -23.9536
 171   2.0000      -0.878507       -23.9054
 172   2.0000      -0.872670       -23.7466
 173   2.0000      -0.869615       -23.6634
 174   2.0000      -0.869337       -23.6559
 175   2.0000      -0.866263       -23.5722
 176   2.0000      -0.859353       -23.3842
 177   2.0000      -0.858235       -23.3538
 178   2.0000      -0.856321       -23.3017
 179   2.0000      -0.854975       -23.2650
 180   2.0000      -0.843355       -22.9488
 181   2.0000      -0.842833       -22.9346
 182   2.0000      -0.841263       -22.8919
 183   2.0000      -0.841161       -22.8892
 184   2.0000      -0.821522       -22.3548
 185   2.0000      -0.820665       -22.3314
 186   2.0000      -0.820269       -22.3206
 187   2.0000      -0.818620       -22.2758
 188   2.0000      -0.812197       -22.1010
 189   2.0000      -0.811259       -22.0755
 190   2.0000      -0.811141       -22.0723
 191   2.0000      -0.810796       -22.0629
 192   2.0000      -0.797944       -21.7132
 193   2.0000      -0.791132       -21.5278
 194   2.0000      -0.789479       -21.4828
 195   2.0000      -0.786321       -21.3969
 196   2.0000      -0.777565       -21.1586
 197   2.0000      -0.775023       -21.0895
 198   2.0000      -0.773028       -21.0352
 199   2.0000      -0.770864       -20.9763
 200   2.0000      -0.762340       -20.7443
 201   2.0000      -0.761418       -20.7192
 202   2.0000      -0.758217       -20.6321
 203   2.0000      -0.758159       -20.6305
 204   2.0000      -0.755991       -20.5716
 205   2.0000      -0.755131       -20.5482
 206   2.0000      -0.754222       -20.5234
 207   2.0000      -0.753114       -20.4933
 208   2.0000      -0.746783       -20.3210
 209   2.0000      -0.745667       -20.2906
 210   2.0000      -0.745540       -20.2872
 211   2.0000      -0.744790       -20.2668
 212   2.0000      -0.743755       -20.2386
 213   2.0000      -0.742788       -20.2123
 214   2.0000      -0.740579       -20.1522
 215   2.0000      -0.737292       -20.0627
 216   2.0000      -0.734919       -19.9982
 217   2.0000      -0.732124       -19.9221
 218   2.0000      -0.730825       -19.8868
 219   2.0000      -0.728995       -19.8370
 220   2.0000      -0.708539       -19.2803
 221   2.0000      -0.707578       -19.2542
 222   2.0000      -0.706070       -19.2131
 223   2.0000      -0.704676       -19.1752
 224   2.0000      -0.702809       -19.1244
 225   2.0000      -0.702045       -19.1036
 226   2.0000      -0.699714       -19.0402
 227   2.0000      -0.698607       -19.0101
 228   2.0000      -0.698542       -19.0083
 229   2.0000      -0.696330       -18.9481
 230   2.0000      -0.692293       -18.8383
 231   2.0000      -0.691221       -18.8091
 232   2.0000      -0.689188       -18.7538
 233   2.0000      -0.686769       -18.6879
 234   2.0000      -0.685494       -18.6532
 235   2.0000      -0.684625       -18.6296
 236   2.0000      -0.682983       -18.5849
 237   2.0000      -0.682337       -18.5673
 238   2.0000      -0.682237       -18.5646
 239   2.0000      -0.682084       -18.5604
 240   2.0000      -0.681135       -18.5346
 241   2.0000      -0.678553       -18.4644
 242   2.0000      -0.677886       -18.4462
 243   2.0000      -0.677038       -18.4231
 244   2.0000      -0.674744       -18.3607
 245   2.0000      -0.673641       -18.3307
 246   2.0000      -0.671934       -18.2842
 247   2.0000      -0.671529       -18.2732
 248   2.0000      -0.671171       -18.2635
 249   2.0000      -0.670772       -18.2526
 250   2.0000      -0.668970       -18.2036
 251   2.0000      -0.668847       -18.2003
 252   2.0000      -0.668645       -18.1947
 253   2.0000      -0.665177       -18.1004
 254   2.0000      -0.662436       -18.0258
 255   2.0000      -0.660746       -17.9798
 256   2.0000      -0.660369       -17.9695
 257   2.0000      -0.659878       -17.9562
 258   2.0000      -0.657738       -17.8980
 259   2.0000      -0.656573       -17.8663
 260   2.0000      -0.655274       -17.8309
 261   2.0000      -0.654997       -17.8234
 262   2.0000      -0.654612       -17.8129
 263   2.0000      -0.653707       -17.7883
 264   2.0000      -0.644278       -17.5317
 265   2.0000      -0.639332       -17.3971
 266   2.0000      -0.636920       -17.3315
 267   2.0000      -0.633590       -17.2409
 268   2.0000      -0.632496       -17.2111
 269   2.0000      -0.630715       -17.1626
 270   2.0000      -0.629767       -17.1368
 271   2.0000      -0.629309       -17.1244
 272   2.0000      -0.628965       -17.1150
 273   2.0000      -0.628235       -17.0952
 274   2.0000      -0.627935       -17.0870
 275   2.0000      -0.626337       -17.0435
 276   2.0000      -0.624916       -17.0048
 277   2.0000      -0.624572       -16.9955
 278   2.0000      -0.621399       -16.9091
 279   2.0000      -0.619500       -16.8575
 280   2.0000      -0.616605       -16.7787
 281   2.0000      -0.616417       -16.7736
 282   2.0000      -0.608866       -16.5681
 283   2.0000      -0.606608       -16.5067
 284   2.0000      -0.603931       -16.4338
 285   2.0000      -0.601738       -16.3741
 286   2.0000      -0.601060       -16.3557
 287   2.0000      -0.598397       -16.2832
 288   2.0000      -0.597987       -16.2721
 289   2.0000      -0.594742       -16.1838
 290   2.0000      -0.592905       -16.1338
 291   2.0000      -0.591740       -16.1021
 292   2.0000      -0.583552       -15.8792
 293   2.0000      -0.583166       -15.8687
 294   2.0000      -0.582267       -15.8443
 295   2.0000      -0.581706       -15.8290
 296   2.0000      -0.581562       -15.8251
 297   2.0000      -0.580349       -15.7921
 298   2.0000      -0.579903       -15.7800
 299   2.0000      -0.578328       -15.7371
 300   2.0000      -0.572783       -15.5862
 301   2.0000      -0.568848       -15.4791
 302   2.0000      -0.568601       -15.4724
 303   2.0000      -0.568483       -15.4692
 304   2.0000      -0.567903       -15.4534
 305   2.0000      -0.567064       -15.4306
 306   2.0000      -0.565954       -15.4004
 307   2.0000      -0.564228       -15.3534
 308   2.0000      -0.564058       -15.3488
 309   2.0000      -0.563741       -15.3402
 310   2.0000      -0.563085       -15.3223
 311   2.0000      -0.561912       -15.2904
 312   2.0000      -0.559755       -15.2317
 313   2.0000      -0.557858       -15.1801
 314   2.0000      -0.555250       -15.1091
 315   2.0000      -0.554684       -15.0937
 316   2.0000      -0.554222       -15.0811
 317   2.0000      -0.552962       -15.0469
 318   2.0000      -0.546742       -14.8776
 319   2.0000      -0.545389       -14.8408
 320   2.0000      -0.544086       -14.8053
 321   2.0000      -0.543051       -14.7772
 322   2.0000      -0.541380       -14.7317
 323   2.0000      -0.539010       -14.6672
 324   2.0000      -0.538653       -14.6575
 325   2.0000      -0.537145       -14.6165
 326   2.0000      -0.535159       -14.5624
 327   2.0000      -0.533682       -14.5222
 328   2.0000      -0.530529       -14.4364
 329   2.0000      -0.528387       -14.3781
 330   2.0000      -0.518338       -14.1047
 331   2.0000      -0.516920       -14.0661
 332   2.0000      -0.515303       -14.0221
 333   2.0000      -0.509843       -13.8735
 334   2.0000      -0.509815       -13.8728
 335   2.0000      -0.506964       -13.7952
 336   2.0000      -0.506091       -13.7714
 337   2.0000      -0.505580       -13.7575
 338   2.0000      -0.504728       -13.7343
 339   2.0000      -0.504623       -13.7315
 340   2.0000      -0.503744       -13.7076
 341   2.0000      -0.503340       -13.6966
 342   2.0000      -0.502920       -13.6851
 343   2.0000      -0.500733       -13.6256
 344   2.0000      -0.492192       -13.3932
 345   2.0000      -0.492061       -13.3897
 346   2.0000      -0.491665       -13.3789
 347   2.0000      -0.491525       -13.3751
 348   2.0000      -0.488089       -13.2816
 349   2.0000      -0.487816       -13.2742
 350   2.0000      -0.485501       -13.2112
 351   2.0000      -0.485031       -13.1984
 352   2.0000      -0.461524       -12.5587
 353   2.0000      -0.460826       -12.5397
 354   2.0000      -0.459910       -12.5148
 355   2.0000      -0.458329       -12.4718
 356   2.0000      -0.443111       -12.0577
 357   2.0000      -0.442448       -12.0396
 358   2.0000      -0.442183       -12.0324
 359   2.0000      -0.441671       -12.0185
 360   0.0000      -0.370591       -10.0843
 361   0.0000      -0.366876        -9.9832
 362   0.0000      -0.366632        -9.9766
 363   0.0000      -0.366091        -9.9618
 364   0.0000      -0.362257        -9.8575

MULLIKEN ATOMIC CHARGES
-----------------------
   0 Pd:   -0.056789
   1 Pd:   -0.044667
   2 C :    0.031470
   3 C :    0.015926
   4 C :   -0.178901
   5 C :   -0.091816
   6 C :   -0.189698
   7 C :   -0.219212
   8 C :    0.193492
   9 C :   -0.239321
  10 N :   -0.064032
  11 C :   -0.198676
  12 C :    0.048273
  13 C :    0.152751
  14 H :    0.254874
  15 H :    0.226464
  16 H :    0.231715
  17 H :    0.193603
  18 H :    0.153567
  19 H :    0.183198
  20 C :   -0.100649
  21 C :   -0.140830
  22 C :   -0.128699
  23 C :   -0.137244
  24 C :   -0.081590
  25 C :   -0.188696
  26 H :    0.239974
  27 H :    0.221100
  28 H :    0.238319
  29 H :    0.186877
  30 C :    0.037953
  31 C :    0.000352
  32 C :    0.074053
  33 C :   -0.214927
  34 C :   -0.001467
  35 C :   -0.149486
  36 N :   -0.013795
  37 C :   -0.174811
  38 H :    0.250235
  39 H :    0.245200
  40 H :    0.188487
  41 H :    0.177367
  42 C :    0.018376
  43 C :    0.059779
  44 C :   -0.204571
  45 C :   -0.087922
  46 C :   -0.183175
  47 C :   -0.221859
  48 C :    0.168080
  49 C :   -0.230678
  50 N :   -0.068093
  51 C :   -0.194687
  52 C :    0.036760
  53 C :    0.169279
  54 H :    0.255488
  55 H :    0.225379
  56 H :    0.230893
  57 H :    0.200495
  58 H :    0.148166
  59 H :    0.183769
  60 C :   -0.106380
  61 C :   -0.133776
  62 C :   -0.128570
  63 C :   -0.146622
  64 C :   -0.075533
  65 C :   -0.180345
  66 H :    0.243421
  67 H :    0.221078
  68 H :    0.233166
  69 H :    0.189591
  70 C :    0.037519
  71 C :   -0.024228
  72 C :    0.080264
  73 C :   -0.223135
  74 C :   -0.008013
  75 C :   -0.138056
  76 N :   -0.036833
  77 C :   -0.151737
  78 H :    0.248426
  79 H :    0.246156
  80 H :    0.184143
  81 H :    0.185688
  82 C :    0.024675
  83 C :    0.032883
  84 C :   -0.193154
  85 C :   -0.090837
  86 C :   -0.185424
  87 C :   -0.227742
  88 C :    0.204171
  89 C :   -0.259055
  90 N :   -0.069123
  91 C :   -0.150921
  92 C :    0.036418
  93 C :    0.161392
  94 H :    0.255583
  95 H :    0.225230
  96 H :    0.230109
  97 H :    0.198896
  98 H :    0.142994
  99 H :    0.170242
 100 C :   -0.100137
 101 C :   -0.137996
 102 C :   -0.128805
 103 C :   -0.143875
 104 C :   -0.072451
 105 C :   -0.188202
 106 H :    0.242065
 107 H :    0.221071
 108 H :    0.235651
 109 H :    0.188604
 110 C :    0.034892
 111 C :   -0.014855
 112 C :    0.094545
 113 C :   -0.218983
 114 C :   -0.023136
 115 C :   -0.129312
 116 N :   -0.026518
 117 C :   -0.176922
 118 H :    0.250105
 119 H :    0.247198
 120 H :    0.183774
 121 H :    0.184074
 122 C :    0.018287
 123 C :    0.060203
 124 C :   -0.205307
 125 C :   -0.087909
 126 C :   -0.183178
 127 C :   -0.221906
 128 C :    0.168204
 129 C :   -0.230626
 130 N :   -0.069009
 131 C :   -0.193756
 132 C :    0.036549
 133 C :    0.169615
 134 H :    0.255560
 135 H :    0.225407
 136 H :    0.230887
 137 H :    0.200855
 138 H :    0.147994
 139 H :    0.183710
 140 C :   -0.106557
 141 C :   -0.133790
 142 C :   -0.128685
 143 C :   -0.146739
 144 C :   -0.075428
 145 C :   -0.180644
 146 H :    0.243346
 147 H :    0.221070
 148 H :    0.233102
 149 H :    0.189691
 150 C :    0.037486
 151 C :   -0.024585
 152 C :    0.080619
 153 C :   -0.223023
 154 C :   -0.008323
 155 C :   -0.137189
 156 N :   -0.037470
 157 C :   -0.151412
 158 H :    0.248362
 159 H :    0.246182
 160 H :    0.184032
 161 H :    0.185604
Sum of atomic charges:    4.0000000

LOEWDIN ATOMIC CHARGES
----------------------
   0 Pd:   -0.067361
   1 Pd:   -0.064263
   2 C :    0.005341
   3 C :   -0.042152
   4 C :   -0.038534
   5 C :   -0.079020
   6 C :   -0.105945
   7 C :   -0.122522
   8 C :   -0.040357
   9 C :   -0.002780
  10 N :   -0.084977
  11 C :   -0.067278
  12 C :   -0.110288
  13 C :   -0.003935
  14 H :    0.198687
  15 H :    0.195073
  16 H :    0.186807
  17 H :    0.186949
  18 H :    0.176783
  19 H :    0.195541
  20 C :   -0.063123
  21 C :   -0.092958
  22 C :   -0.121286
  23 C :   -0.097175
  24 C :   -0.068748
  25 C :   -0.104596
  26 H :    0.191749
  27 H :    0.191029
  28 H :    0.190671
  29 H :    0.174927
  30 C :    0.032760
  31 C :   -0.060146
  32 C :   -0.040096
  33 C :   -0.067295
  34 C :   -0.120153
  35 C :   -0.041090
  36 N :   -0.074869
  37 C :   -0.019323
  38 H :    0.204223
  39 H :    0.201642
  40 H :    0.187050
  41 H :    0.184213
  42 C :    0.000315
  43 C :   -0.035479
  44 C :   -0.039294
  45 C :   -0.079985
  46 C :   -0.106667
  47 C :   -0.121408
  48 C :   -0.041031
  49 C :   -0.001238
  50 N :   -0.084445
  51 C :   -0.066293
  52 C :   -0.111116
  53 C :   -0.002787
  54 H :    0.198697
  55 H :    0.194611
  56 H :    0.186963
  57 H :    0.187996
  58 H :    0.176087
  59 H :    0.196137
  60 C :   -0.061355
  61 C :   -0.091343
  62 C :   -0.121352
  63 C :   -0.099395
  64 C :   -0.070066
  65 C :   -0.104913
  66 H :    0.193083
  67 H :    0.191001
  68 H :    0.188921
  69 H :    0.175009
  70 C :    0.035598
  71 C :   -0.065059
  72 C :   -0.039988
  73 C :   -0.065851
  74 C :   -0.120969
  75 C :   -0.043516
  76 N :   -0.074356
  77 C :   -0.019780
  78 H :    0.204009
  79 H :    0.201875
  80 H :    0.185886
  81 H :    0.185855
  82 C :    0.002001
  83 C :   -0.037815
  84 C :   -0.039409
  85 C :   -0.080599
  86 C :   -0.107506
  87 C :   -0.123507
  88 C :   -0.041287
  89 C :   -0.003734
  90 N :   -0.083400
  91 C :   -0.062942
  92 C :   -0.111639
  93 C :   -0.002995
  94 H :    0.198525
  95 H :    0.194355
  96 H :    0.186144
  97 H :    0.188647
  98 H :    0.174345
  99 H :    0.195266
 100 C :   -0.062035
 101 C :   -0.092059
 102 C :   -0.121355
 103 C :   -0.098470
 104 C :   -0.069627
 105 C :   -0.104527
 106 H :    0.192512
 107 H :    0.191032
 108 H :    0.189668
 109 H :    0.175022
 110 C :    0.034627
 111 C :   -0.063433
 112 C :   -0.040174
 113 C :   -0.065771
 114 C :   -0.119711
 115 C :   -0.041616
 116 N :   -0.076273
 117 C :   -0.021691
 118 H :    0.204310
 119 H :    0.202429
 120 H :    0.184314
 121 H :    0.186735
 122 C :    0.000273
 123 C :   -0.035463
 124 C :   -0.039331
 125 C :   -0.079976
 126 C :   -0.106671
 127 C :   -0.121415
 128 C :   -0.041029
 129 C :   -0.001253
 130 N :   -0.084441
 131 C :   -0.066342
 132 C :   -0.111131
 133 C :   -0.002799
 134 H :    0.198693
 135 H :    0.194609
 136 H :    0.186972
 137 H :    0.188052
 138 H :    0.176050
 139 H :    0.196111
 140 C :   -0.061356
 141 C :   -0.091340
 142 C :   -0.121385
 143 C :   -0.099377
 144 C :   -0.070045
 145 C :   -0.104920
 146 H :    0.193083
 147 H :    0.191009
 148 H :    0.188918
 149 H :    0.175012
 150 C :    0.035516
 151 C :   -0.065004
 152 C :   -0.039971
 153 C :   -0.065912
 154 C :   -0.120998
 155 C :   -0.043476
 156 N :   -0.074381
 157 C :   -0.019804
 158 H :    0.203989
 159 H :    0.201876
 160 H :    0.185924
 161 H :    0.185841

  Mayer bond orders larger than 0.100000
B(  0-Pd, 36-N ) :   0.5308 B(  0-Pd, 50-N ) :   0.5443 B(  0-Pd, 90-N ) :   0.5269
B(  0-Pd,130-N ) :   0.5438 B(  1-Pd, 10-N ) :   0.5392 B(  1-Pd, 76-N ) :   0.5339
B(  1-Pd,116-N ) :   0.5294 B(  1-Pd,156-N ) :   0.5336 B(  2-C ,  3-C ) :   1.8495
B(  2-C ,  4-C ) :  -0.3031 B(  2-C , 20-C ) :   1.5145 B(  3-C ,  4-C ) :   1.4737
B(  3-C , 13-C ) :  -0.2060 B(  3-C , 20-C ) :  -0.3974 B(  3-C , 25-C ) :   0.1014
B(  4-C ,  5-C ) :   1.5177 B(  4-C , 12-C ) :  -0.1424 B(  4-C , 13-C ) :   1.0395
B(  5-C ,  6-C ) :   1.4135 B(  5-C , 14-H ) :   0.8598 B(  6-C ,  7-C ) :   1.6441
B(  6-C , 15-H ) :   0.8720 B(  7-C ,  8-C ) :   1.2910 B(  7-C , 16-H ) :   0.8632
B(  8-C ,  9-C ) :   1.2581 B(  8-C , 12-C ) :  -0.1016 B(  8-C , 13-C ) :   1.0689
B(  9-C , 10-N ) :   1.4660 B(  9-C , 13-C ) :  -0.1138 B(  9-C , 17-H ) :   0.9169
B( 10-N , 11-C ) :   1.2701 B( 10-N ,116-N ) :   0.1016 B( 11-C , 12-C ) :   1.4408
B( 11-C , 13-C ) :   0.1156 B( 11-C , 18-H ) :   0.9345 B( 12-C , 13-C ) :   1.4190
B( 12-C , 19-H ) :   0.8842 B( 20-C , 21-C ) :   1.3018 B( 20-C , 25-C ) :   1.2747
B( 21-C , 22-C ) :   1.5179 B( 21-C , 26-H ) :   0.8904 B( 22-C , 23-C ) :   1.5155
B( 22-C , 27-H ) :   0.8790 B( 23-C , 24-C ) :   1.2978 B( 23-C , 28-H ) :   0.8858
B( 24-C , 25-C ) :   1.2845 B( 24-C , 30-C ) :   1.4809 B( 24-C , 31-C ) :  -0.4091
B( 25-C , 29-H ) :   0.9658 B( 30-C , 31-C ) :   1.8348 B( 30-C , 32-C ) :  -0.3206
B( 31-C , 32-C ) :   1.4179 B( 32-C , 33-C ) :   1.3490 B( 32-C , 37-C ) :   1.3118
B( 33-C , 34-C ) :   1.4718 B( 33-C , 38-H ) :   0.9169 B( 34-C , 35-C ) :   1.4022
B( 34-C , 39-H ) :   0.8732 B( 35-C , 36-N ) :   1.3458 B( 35-C , 40-H ) :   0.9312
B( 36-N , 37-C ) :   1.3734 B( 36-N , 90-N ) :   0.1015 B( 37-C , 41-H ) :   0.9533
B( 42-C , 43-C ) :   1.8620 B( 42-C , 44-C ) :  -0.3062 B( 42-C , 60-C ) :   1.5019
B( 43-C , 44-C ) :   1.4771 B( 43-C , 53-C ) :  -0.1933 B( 43-C , 60-C ) :  -0.3967
B( 44-C , 45-C ) :   1.5233 B( 44-C , 52-C ) :  -0.1197 B( 44-C , 53-C ) :   1.0685
B( 45-C , 46-C ) :   1.4051 B( 45-C , 54-H ) :   0.8569 B( 46-C , 47-C ) :   1.6475
B( 46-C , 55-H ) :   0.8725 B( 47-C , 48-C ) :   1.3057 B( 47-C , 56-H ) :   0.8628
B( 48-C , 49-C ) :   1.2508 B( 48-C , 53-C ) :   1.0825 B( 49-C , 50-N ) :   1.4936
B( 49-C , 53-C ) :  -0.1156 B( 49-C , 57-H ) :   0.9208 B( 50-N , 51-C ) :   1.2547
B( 51-C , 52-C ) :   1.4735 B( 51-C , 53-C ) :   0.1177 B( 51-C , 58-H ) :   0.9302
B( 52-C , 53-C ) :   1.3855 B( 52-C , 59-H ) :   0.8811 B( 60-C , 61-C ) :   1.3147
B( 60-C , 65-C ) :   1.2794 B( 61-C , 62-C ) :   1.5149 B( 61-C , 66-H ) :   0.8861
B( 62-C , 63-C ) :   1.5215 B( 62-C , 67-H ) :   0.8789 B( 63-C , 64-C ) :   1.2925
B( 63-C , 68-H ) :   0.8895 B( 64-C , 65-C ) :   1.2989 B( 64-C , 70-C ) :   1.4830
B( 64-C , 71-C ) :  -0.3949 B( 65-C , 69-H ) :   0.9564 B( 65-C , 70-C ) :  -0.1071
B( 65-C , 71-C ) :   0.1002 B( 70-C , 71-C ) :   1.8513 B( 70-C , 72-C ) :  -0.3082
B( 71-C , 72-C ) :   1.4124 B( 72-C , 73-C ) :   1.3441 B( 72-C , 77-C ) :   1.2963
B( 73-C , 74-C ) :   1.4806 B( 73-C , 78-H ) :   0.9199 B( 74-C , 75-C ) :   1.4149
B( 74-C , 79-H ) :   0.8698 B( 75-C , 76-N ) :   1.3268 B( 75-C , 80-H ) :   0.9284
B( 76-N , 77-C ) :   1.3932 B( 77-C , 81-H ) :   0.9494 B( 82-C , 83-C ) :   1.8470
B( 82-C , 84-C ) :  -0.3030 B( 82-C ,100-C ) :   1.5129 B( 83-C , 84-C ) :   1.4761
B( 83-C , 93-C ) :  -0.1938 B( 83-C ,100-C ) :  -0.3996 B( 84-C , 85-C ) :   1.5189
B( 84-C , 92-C ) :  -0.1370 B( 84-C , 93-C ) :   1.0510 B( 85-C , 86-C ) :   1.4059
B( 85-C , 94-H ) :   0.8583 B( 86-C , 87-C ) :   1.6444 B( 86-C , 95-H ) :   0.8723
B( 87-C , 88-C ) :   1.2999 B( 87-C , 96-H ) :   0.8659 B( 88-C , 89-C ) :   1.2124
B( 88-C , 92-C ) :  -0.1034 B( 88-C , 93-C ) :   1.0835 B( 89-C , 90-N ) :   1.4695
B( 89-C , 93-C ) :  -0.1159 B( 89-C , 97-H ) :   0.9304 B( 90-N , 91-C ) :   1.2823
B( 91-C , 92-C ) :   1.4827 B( 91-C , 93-C ) :   0.1197 B( 91-C , 98-H ) :   0.9165
B( 92-C , 93-C ) :   1.3969 B( 92-C , 99-H ) :   0.8876 B(100-C ,101-C ) :   1.3080
B(100-C ,105-C ) :   1.2697 B(101-C ,102-C ) :   1.5168 B(101-C ,106-H ) :   0.8883
B(102-C ,103-C ) :   1.5182 B(102-C ,107-H ) :   0.8790 B(103-C ,104-C ) :   1.2914
B(103-C ,108-H ) :   0.8869 B(104-C ,105-C ) :   1.2946 B(104-C ,110-C ) :   1.4818
B(104-C ,111-C ) :  -0.4010 B(105-C ,109-H ) :   0.9634 B(105-C ,110-C ) :  -0.1020
B(105-C ,111-C ) :   0.1001 B(110-C ,111-C ) :   1.8469 B(110-C ,112-C ) :  -0.3148
B(111-C ,112-C ) :   1.4111 B(112-C ,113-C ) :   1.3462 B(112-C ,117-C ) :   1.2759
B(113-C ,114-C ) :   1.4868 B(113-C ,118-H ) :   0.9188 B(114-C ,115-C ) :   1.4306
B(114-C ,119-H ) :   0.8697 B(115-C ,116-N ) :   1.3491 B(115-C ,120-H ) :   0.9216
B(116-N ,117-C ) :   1.3696 B(117-C ,121-H ) :   0.9595 B(122-C ,123-C ) :   1.8616
B(122-C ,124-C ) :  -0.3060 B(122-C ,140-C ) :   1.5014 B(123-C ,124-C ) :   1.4777
B(123-C ,133-C ) :  -0.1934 B(123-C ,140-C ) :  -0.3972 B(124-C ,125-C ) :   1.5233
B(124-C ,132-C ) :  -0.1197 B(124-C ,133-C ) :   1.0684 B(125-C ,126-C ) :   1.4051
B(125-C ,134-H ) :   0.8568 B(126-C ,127-C ) :   1.6475 B(126-C ,135-H ) :   0.8725
B(127-C ,128-C ) :   1.3057 B(127-C ,136-H ) :   0.8629 B(128-C ,129-C ) :   1.2508
B(128-C ,133-C ) :   1.0820 B(129-C ,130-N ) :   1.4937 B(129-C ,133-C ) :  -0.1157
B(129-C ,137-H ) :   0.9207 B(130-N ,131-C ) :   1.2549 B(131-C ,132-C ) :   1.4739
B(131-C ,133-C ) :   0.1180 B(131-C ,138-H ) :   0.9301 B(132-C ,133-C ) :   1.3854
B(132-C ,139-H ) :   0.8810 B(140-C ,141-C ) :   1.3143 B(140-C ,145-C ) :   1.2788
B(141-C ,142-C ) :   1.5150 B(141-C ,146-H ) :   0.8862 B(142-C ,143-C ) :   1.5215
B(142-C ,147-H ) :   0.8789 B(143-C ,144-C ) :   1.2920 B(143-C ,148-H ) :   0.8897
B(144-C ,145-C ) :   1.2982 B(144-C ,150-C ) :   1.4824 B(144-C ,151-C ) :  -0.3952
B(145-C ,149-H ) :   0.9565 B(145-C ,150-C ) :  -0.1071 B(145-C ,151-C ) :   0.1006
B(150-C ,151-C ) :   1.8512 B(150-C ,152-C ) :  -0.3084 B(151-C ,152-C ) :   1.4129
B(152-C ,153-C ) :   1.3437 B(152-C ,157-C ) :   1.2963 B(153-C ,154-C ) :   1.4808
B(153-C ,158-H ) :   0.9200 B(154-C ,155-C ) :   1.4147 B(154-C ,159-H ) :   0.8697
B(155-C ,156-N ) :   1.3273 B(155-C ,160-H ) :   0.9283 B(156-N ,157-C ) :   1.3931
B(157-C ,161-H ) :   0.9493

Dispersion correction           -0.595322712
FINAL SINGLE POINT ENERGY     -4383.025200240982

DIPOLE MOMENT
-------------
                                X             Y             Z
Electronic contribution:     17.73345     -42.98121       0.53019
Nuclear contribution   :    -17.75861      41.66040      -0.56370
                        -----------------------------------------
Total Dipole Moment    :     -0.02517      -1.32081      -0.03350
                        -----------------------------------------
Magnitude (a.u.)       :      1.32148
Magnitude (Debye)      :      3.35893

Rotational constants in cm-1:     0.000410     0.000304     0.000303
Rotational constants in MHz :    12.298352     9.106254     9.074545

                             ****ORCA TERMINATED NORMALLY****
TOTAL RUN TIME: 0 days 0 hours 9 minutes 59 seconds 228 msec
