                         Program Version 4.2.1 -  RELEASE  -
|  1> ! DFT SP B97-3c TightSCF printbasis  Grid6 NOFINALGRID SlowConv
|  2>
|  3> %base "_s_5d3_a_B97-3c"
|  4> %maxcore 3000
|  5> %scf
|  6>    MaxIter 2000
|  7> end
|  8> %pal
|  9>    nprocs 32
| 10> end
| 11>
| 12> * xyzfile 4 1 s_5d3_a.xyz
| 13>
| 14>                          ****END OF INPUT****

CARTESIAN COORDINATES (ANGSTROEM)
---------------------------------
  Pd     0.991400    5.692500    0.324300
  Pd     0.373200   -4.885200   -0.113200
  C      7.855400    2.290200   -0.138100
  C      7.561000    3.461900   -0.087900
  C      7.097200    4.790300   -0.022700
  C      7.954600    5.874800   -0.034900
  C      7.458200    7.182800    0.032800
  C      6.111300    7.428000    0.113100
  C      5.202100    6.348400    0.127900
  C      3.806500    6.527900    0.208100
  N      2.962300    5.519000    0.221000
  C      3.424100    4.244700    0.156200
  C      4.756300    3.962800    0.076300
  C      5.693500    5.014700    0.059500
  H      9.019800    5.711000   -0.097200
  H      8.156800    8.005400    0.021000
  H      5.739100    8.438800    0.164900
  H      3.384800    7.528000    0.262200
  H      2.673400    3.455900    0.171800
  H      5.110600    2.946200    0.025200
  C      8.166700    0.915000   -0.192300
  C      9.493000    0.482600   -0.283100
  C      9.774900   -0.871500   -0.332600
  C      8.754700   -1.805000   -0.292000
  C      7.424000   -1.380500   -0.201800
  C      7.132100   -0.019700   -0.152900
  H     10.291700    1.208300   -0.313800
  H     10.800800   -1.201500   -0.402800
  H      8.981500   -2.859500   -0.330300
  H      6.107000    0.308300   -0.082400
  C      6.392300   -2.341900   -0.158400
  C      5.509200   -3.167000   -0.120500
  C      4.592500   -4.235600   -0.076700
  C      5.075300   -5.551600   -0.025800
  C      4.174900   -6.599600    0.012900
  C      2.818400   -6.320100   -0.002400
  N      2.357900   -5.065300   -0.051100
  C      3.207500   -4.040100   -0.086100
  H      6.138800   -5.732200   -0.017400
  H      4.517700   -7.620800    0.053100
  H      2.080900   -7.120400    0.027600
  H      2.773700   -3.044600   -0.124400
  C      1.141800    2.378700    7.244500
  C      1.207900    3.544500    6.930500
  C      1.273900    4.864700    6.443900
  C      1.398800    5.957000    7.282300
  C      1.459800    7.256500    6.763400
  C      1.397800    7.485600    5.412600
  C      1.270600    6.397500    4.522400
  C      1.202000    6.560300    3.124100
  N      1.084300    5.543600    2.297800
  C      1.023800    4.277200    2.781500
  C      1.081400    4.011500    4.118100
  C      1.207700    5.072200    5.036800
  H      1.449600    5.805900    8.349900
  H      1.557300    8.085600    7.447500
  H      1.445300    8.490000    5.023100
  H      1.246100    7.553500    2.685300
  H      0.925900    3.481300    2.044700
  H      1.032500    3.001100    4.489900
  C      1.059600    1.010400    7.579200
  C      1.110900    0.593500    8.912600
  C      1.025900   -0.753900    9.217400
  C      0.889000   -1.695700    8.213400
  C      0.837500   -1.286800    6.875700
  C      0.923800    0.067100    6.560700
  H      1.216400    1.325800    9.698800
  H      1.066000   -1.072000   10.248600
  H      0.822500   -2.744700    8.458000
  H      0.883200    0.383200    5.530300
  C      0.694700   -2.256200    5.860800
  C      0.571300   -3.088400    4.992200
  C      0.417700   -4.162800    4.094200
  C      0.237700   -5.458700    4.600000
  C      0.091000   -6.512800    3.718100
  C      0.128700   -6.259500    2.356900
  N      0.300500   -5.023900    1.874500
  C      0.441000   -3.992900    2.706000
  H      0.215700   -5.619400    5.666500
  H     -0.049400   -7.518900    4.078700
  H      0.016100   -7.065300    1.633500
  H      0.576600   -3.013700    2.254800
  C     -6.224200    3.087700    0.530700
  C     -5.795500    4.217500    0.575800
  C     -5.179900    5.483600    0.618000
  C     -5.905200    6.656100    0.721200
  C     -5.259300    7.898400    0.759000
  C     -3.892500    7.990500    0.695000
  C     -3.115200    6.817100    0.589400
  C     -1.707600    6.838500    0.519900
  N     -0.986700    5.742500    0.422100
  C     -1.594200    4.529700    0.384400
  C     -2.950600    4.399500    0.445100
  C     -3.759000    5.548700    0.550300
  H     -6.982600    6.613100    0.773000
  H     -5.857400    8.793100    0.839900
  H     -3.404800    8.951900    0.724600
  H     -1.172100    7.783700    0.546200
  H     -0.940500    3.662600    0.302300
  H     -3.421300    3.430400    0.414400
  C     -6.693400    1.758200    0.473200
  C     -8.061500    1.476800    0.533200
  C     -8.498800    0.165100    0.472600
  C     -7.593700   -0.874000    0.352000
  C     -6.222200   -0.601100    0.291900
  C     -5.774000    0.716100    0.353600
  H     -8.770700    2.285400    0.626200
  H     -9.556500   -0.048200    0.519300
  H     -7.941500   -1.894600    0.304600
  H     -4.717400    0.927500    0.306400
  C     -5.308900   -1.669000    0.166000
  C     -4.527400   -2.585300    0.057000
  C     -3.741200   -3.746300   -0.077700
  C     -4.374100   -4.988400   -0.234200
  C     -3.601900   -6.127600   -0.362300
  C     -2.222100   -6.010500   -0.329800
  N     -1.618600   -4.826300   -0.180400
  C     -2.343000   -3.715300   -0.058000
  H     -5.451300   -5.042300   -0.253000
  H     -4.061300   -7.095000   -0.484500
  H     -1.582900   -6.886300   -0.428200
  H     -1.796200   -2.783700    0.059900
  C      0.512500    2.997700   -6.845500
  C      0.579500    4.133500   -6.436100
  C      0.663300    5.407900   -5.842200
  C      0.674900    6.572300   -6.587500
  C      0.761100    7.823200   -5.963200
  C      0.836700    7.931900   -4.598100
  C      0.827500    6.767200   -3.800800
  C      0.902100    6.805700   -2.393900
  N      0.892600    5.717900   -1.654200
  C      0.808400    4.497100   -2.240700
  C      0.732300    4.350300   -3.594700
  C      0.739800    5.490300   -4.422700
  H      0.617000    6.516200   -7.664000
  H      0.767500    8.711200   -6.576600
  H      0.903100    8.899700   -4.127100
  H      0.970700    7.757800   -1.874600
  H      0.805300    3.637500   -1.572100
  H      0.665800    3.375100   -4.048600
  C      0.438100    1.661300   -7.292300
  C      0.350800    1.364300   -8.655500
  C      0.281400    0.045800   -9.070700
  C      0.298600   -0.984800   -8.148100
  C      0.385200   -0.696000   -6.781200
  C      0.454000    0.628100   -6.355300
  H      0.338300    2.166000   -9.378400
  H      0.214000   -0.179600  -10.124700
  H      0.244900   -2.010800   -8.478700
  H      0.521800    0.851500   -5.302300
  C      0.404700   -1.755600   -5.849900
  C      0.422400   -2.664900   -5.053000
  C      0.441200   -3.819900   -4.246900
  C      0.470500   -5.082100   -4.858100
  C      0.485100   -6.215000   -4.066200
  C      0.467800   -6.071400   -2.688700
  N      0.439600   -4.867900   -2.105800
  C      0.427900   -3.762900   -2.849300
  H      0.481200   -5.156300   -5.934200
  H      0.508400   -7.197600   -4.508800
  H      0.479300   -6.941400   -2.034300
  H      0.405400   -2.814900   -2.318800

 Total Charge           Charge          ....    4
 Multiplicity           Mult            ....    1
 Number of Electrons    NEL             ....  720
 Basis Dimension        Dim             .... 2210

ORBITAL ENERGIES
----------------

  NO   OCC          E(Eh)            E(eV)
   0   2.0000     -14.340444      -390.2233
   1   2.0000     -14.340435      -390.2231
   2   2.0000     -14.340432      -390.2230
   3   2.0000     -14.340421      -390.2227
   4   2.0000     -14.325920      -389.8281
   5   2.0000     -14.325901      -389.8276
   6   2.0000     -14.325890      -389.8273
   7   2.0000     -14.325881      -389.8271
   8   2.0000     -10.233970      -278.4805
   9   2.0000     -10.233966      -278.4804
  10   2.0000     -10.233961      -278.4802
  11   2.0000     -10.233945      -278.4798
  12   2.0000     -10.228968      -278.3444
  13   2.0000     -10.228955      -278.3440
  14   2.0000     -10.228938      -278.3436
  15   2.0000     -10.228933      -278.3434
  16   2.0000     -10.225679      -278.2549
  17   2.0000     -10.225675      -278.2548
  18   2.0000     -10.225655      -278.2542
  19   2.0000     -10.225636      -278.2537
  20   2.0000     -10.216185      -277.9965
  21   2.0000     -10.216180      -277.9964
  22   2.0000     -10.216176      -277.9963
  23   2.0000     -10.216173      -277.9962
  24   2.0000     -10.215979      -277.9909
  25   2.0000     -10.215954      -277.9902
  26   2.0000     -10.215945      -277.9900
  27   2.0000     -10.215901      -277.9888
  28   2.0000     -10.196141      -277.4511
  29   2.0000     -10.196140      -277.4511
  30   2.0000     -10.196134      -277.4509
  31   2.0000     -10.196123      -277.4506
  32   2.0000     -10.191349      -277.3207
  33   2.0000     -10.191346      -277.3206
  34   2.0000     -10.191338      -277.3204
  35   2.0000     -10.191324      -277.3200
  36   2.0000     -10.188836      -277.2523
  37   2.0000     -10.188826      -277.2520
  38   2.0000     -10.188805      -277.2515
  39   2.0000     -10.188786      -277.2510
  40   2.0000     -10.187434      -277.2142
  41   2.0000     -10.187426      -277.2140
  42   2.0000     -10.187418      -277.2137
  43   2.0000     -10.187380      -277.2127
  44   2.0000     -10.182687      -277.0850
  45   2.0000     -10.182684      -277.0849
  46   2.0000     -10.182675      -277.0847
  47   2.0000     -10.182641      -277.0838
  48   2.0000     -10.182273      -277.0737
  49   2.0000     -10.182257      -277.0733
  50   2.0000     -10.182241      -277.0729
  51   2.0000     -10.182217      -277.0722
  52   2.0000     -10.169116      -276.7157
  53   2.0000     -10.169115      -276.7157
  54   2.0000     -10.169102      -276.7153
  55   2.0000     -10.169095      -276.7151
  56   2.0000     -10.165706      -276.6229
  57   2.0000     -10.165701      -276.6228
  58   2.0000     -10.165694      -276.6226
  59   2.0000     -10.165681      -276.6223
  60   2.0000     -10.164964      -276.6027
  61   2.0000     -10.164963      -276.6027
  62   2.0000     -10.164957      -276.6025
  63   2.0000     -10.164950      -276.6024
  64   2.0000     -10.162586      -276.5380
  65   2.0000     -10.162580      -276.5379
  66   2.0000     -10.162574      -276.5377
  67   2.0000     -10.162527      -276.5364
  68   2.0000     -10.160828      -276.4902
  69   2.0000     -10.160821      -276.4900
  70   2.0000     -10.160803      -276.4895
  71   2.0000     -10.160780      -276.4889
  72   2.0000     -10.156213      -276.3646
  73   2.0000     -10.156200      -276.3642
  74   2.0000     -10.156188      -276.3639
  75   2.0000     -10.156148      -276.3629
  76   2.0000     -10.156044      -276.3600
  77   2.0000     -10.156041      -276.3599
  78   2.0000     -10.156039      -276.3599
  79   2.0000     -10.156033      -276.3597
  80   2.0000     -10.155072      -276.3336
  81   2.0000     -10.155070      -276.3335
  82   2.0000     -10.155067      -276.3334
  83   2.0000     -10.155055      -276.3331
  84   2.0000     -10.145306      -276.0678
  85   2.0000     -10.145300      -276.0676
  86   2.0000     -10.145287      -276.0673
  87   2.0000     -10.145267      -276.0668
  88   2.0000     -10.144569      -276.0478
  89   2.0000     -10.144562      -276.0476
  90   2.0000     -10.144540      -276.0470
  91   2.0000     -10.144540      -276.0470
  92   2.0000     -10.143087      -276.0074
  93   2.0000     -10.143083      -276.0073
  94   2.0000     -10.143082      -276.0073
  95   2.0000     -10.143064      -276.0068
  96   2.0000     -10.140423      -275.9349
  97   2.0000     -10.140423      -275.9349
  98   2.0000     -10.140403      -275.9344
  99   2.0000     -10.140397      -275.9342
 100   2.0000     -10.134799      -275.7819
 101   2.0000     -10.134791      -275.7817
 102   2.0000     -10.134781      -275.7814
 103   2.0000     -10.134763      -275.7809
 104   2.0000      -3.649764       -99.3151
 105   2.0000      -3.638663       -99.0131
 106   2.0000      -2.380187       -64.7682
 107   2.0000      -2.380183       -64.7681
 108   2.0000      -2.369181       -64.4687
 109   2.0000      -2.369179       -64.4686
 110   2.0000      -2.338058       -63.6218
 111   2.0000      -2.327093       -63.3234
 112   2.0000      -1.203073       -32.7373
 113   2.0000      -1.196259       -32.5519
 114   2.0000      -1.196251       -32.5516
 115   2.0000      -1.195682       -32.5362
 116   2.0000      -1.190882       -32.4055
 117   2.0000      -1.183759       -32.2117
 118   2.0000      -1.183733       -32.2110
 119   2.0000      -1.183242       -32.1977
 120   2.0000      -1.070377       -29.1264
 121   2.0000      -1.069426       -29.1006
 122   2.0000      -1.069297       -29.0970
 123   2.0000      -1.069285       -29.0967
 124   2.0000      -1.051827       -28.6217
 125   2.0000      -1.051292       -28.6071
 126   2.0000      -1.051238       -28.6056
 127   2.0000      -1.051235       -28.6056
 128   2.0000      -1.047146       -28.4943
 129   2.0000      -1.045458       -28.4484
 130   2.0000      -1.045132       -28.4395
 131   2.0000      -1.045126       -28.4393
 132   2.0000      -1.012307       -27.5463
 133   2.0000      -1.011126       -27.5141
 134   2.0000      -1.011119       -27.5139
 135   2.0000      -1.010278       -27.4911
 136   2.0000      -1.009865       -27.4798
 137   2.0000      -1.009448       -27.4685
 138   2.0000      -1.009426       -27.4679
 139   2.0000      -1.008520       -27.4432
 140   2.0000      -0.990759       -26.9599
 141   2.0000      -0.989424       -26.9236
 142   2.0000      -0.988980       -26.9115
 143   2.0000      -0.988969       -26.9112
 144   2.0000      -0.981776       -26.7155
 145   2.0000      -0.980905       -26.6918
 146   2.0000      -0.980898       -26.6916
 147   2.0000      -0.980699       -26.6862
 148   2.0000      -0.966982       -26.3129
 149   2.0000      -0.966092       -26.2887
 150   2.0000      -0.966081       -26.2884
 151   2.0000      -0.964845       -26.2548
 152   2.0000      -0.951391       -25.8887
 153   2.0000      -0.951039       -25.8791
 154   2.0000      -0.951038       -25.8791
 155   2.0000      -0.950642       -25.8683
 156   2.0000      -0.931866       -25.3574
 157   2.0000      -0.930971       -25.3330
 158   2.0000      -0.930967       -25.3329
 159   2.0000      -0.929955       -25.3054
 160   2.0000      -0.909071       -24.7371
 161   2.0000      -0.908823       -24.7303
 162   2.0000      -0.908811       -24.7300
 163   2.0000      -0.908448       -24.7201
 164   2.0000      -0.886894       -24.1336
 165   2.0000      -0.885735       -24.1021
 166   2.0000      -0.885730       -24.1019
 167   2.0000      -0.883004       -24.0278
 168   2.0000      -0.881899       -23.9977
 169   2.0000      -0.879072       -23.9208
 170   2.0000      -0.879051       -23.9202
 171   2.0000      -0.877381       -23.8748
 172   2.0000      -0.875388       -23.8205
 173   2.0000      -0.873128       -23.7590
 174   2.0000      -0.871186       -23.7062
 175   2.0000      -0.871179       -23.7060
 176   2.0000      -0.857149       -23.3242
 177   2.0000      -0.854336       -23.2477
 178   2.0000      -0.853853       -23.2345
 179   2.0000      -0.853836       -23.2341
 180   2.0000      -0.841010       -22.8851
 181   2.0000      -0.840478       -22.8706
 182   2.0000      -0.840466       -22.8702
 183   2.0000      -0.840178       -22.8624
 184   2.0000      -0.822743       -22.3880
 185   2.0000      -0.821683       -22.3591
 186   2.0000      -0.821097       -22.3432
 187   2.0000      -0.821088       -22.3429
 188   2.0000      -0.811684       -22.0870
 189   2.0000      -0.810649       -22.0589
 190   2.0000      -0.810633       -22.0585
 191   2.0000      -0.810616       -22.0580
 192   2.0000      -0.801486       -21.8095
 193   2.0000      -0.794565       -21.6212
 194   2.0000      -0.788023       -21.4432
 195   2.0000      -0.788016       -21.4430
 196   2.0000      -0.779317       -21.2063
 197   2.0000      -0.773407       -21.0455
 198   2.0000      -0.770376       -20.9630
 199   2.0000      -0.770360       -20.9626
 200   2.0000      -0.762041       -20.7362
 201   2.0000      -0.757172       -20.6037
 202   2.0000      -0.757126       -20.6024
 203   2.0000      -0.757102       -20.6018
 204   2.0000      -0.756927       -20.5970
 205   2.0000      -0.755910       -20.5694
 206   2.0000      -0.755907       -20.5693
 207   2.0000      -0.753842       -20.5131
 208   2.0000      -0.746975       -20.3262
 209   2.0000      -0.746819       -20.3220
 210   2.0000      -0.746817       -20.3219
 211   2.0000      -0.746077       -20.3018
 212   2.0000      -0.745194       -20.2777
 213   2.0000      -0.744218       -20.2512
 214   2.0000      -0.737765       -20.0756
 215   2.0000      -0.736765       -20.0484
 216   2.0000      -0.736757       -20.0482
 217   2.0000      -0.733041       -19.9471
 218   2.0000      -0.733038       -19.9470
 219   2.0000      -0.731696       -19.9105
 220   2.0000      -0.710012       -19.3204
 221   2.0000      -0.708129       -19.2692
 222   2.0000      -0.704087       -19.1592
 223   2.0000      -0.703785       -19.1510
 224   2.0000      -0.700514       -19.0620
 225   2.0000      -0.699880       -19.0447
 226   2.0000      -0.697752       -18.9868
 227   2.0000      -0.697735       -18.9863
 228   2.0000      -0.696410       -18.9503
 229   2.0000      -0.694799       -18.9064
 230   2.0000      -0.693146       -18.8615
 231   2.0000      -0.691227       -18.8092
 232   2.0000      -0.691204       -18.8086
 233   2.0000      -0.691121       -18.8063
 234   2.0000      -0.691116       -18.8062
 235   2.0000      -0.687922       -18.7193
 236   2.0000      -0.683246       -18.5921
 237   2.0000      -0.682658       -18.5761
 238   2.0000      -0.682643       -18.5756
 239   2.0000      -0.682105       -18.5610
 240   2.0000      -0.681682       -18.5495
 241   2.0000      -0.681666       -18.5491
 242   2.0000      -0.677606       -18.4386
 243   2.0000      -0.673769       -18.3342
 244   2.0000      -0.673753       -18.3338
 245   2.0000      -0.673199       -18.3187
 246   2.0000      -0.671317       -18.2675
 247   2.0000      -0.671113       -18.2619
 248   2.0000      -0.670426       -18.2432
 249   2.0000      -0.670421       -18.2431
 250   2.0000      -0.667513       -18.1640
 251   2.0000      -0.667499       -18.1636
 252   2.0000      -0.665107       -18.0985
 253   2.0000      -0.664205       -18.0739
 254   2.0000      -0.663254       -18.0481
 255   2.0000      -0.659680       -17.9508
 256   2.0000      -0.659678       -17.9507
 257   2.0000      -0.658674       -17.9234
 258   2.0000      -0.658668       -17.9233
 259   2.0000      -0.656165       -17.8551
 260   2.0000      -0.655188       -17.8286
 261   2.0000      -0.654966       -17.8225
 262   2.0000      -0.654961       -17.8224
 263   2.0000      -0.654952       -17.8222
 264   2.0000      -0.644748       -17.5445
 265   2.0000      -0.641332       -17.4515
 266   2.0000      -0.636920       -17.3315
 267   2.0000      -0.632542       -17.2123
 268   2.0000      -0.632537       -17.2122
 269   2.0000      -0.631474       -17.1833
 270   2.0000      -0.631453       -17.1827
 271   2.0000      -0.630361       -17.1530
 272   2.0000      -0.629780       -17.1372
 273   2.0000      -0.629238       -17.1224
 274   2.0000      -0.629227       -17.1221
 275   2.0000      -0.629137       -17.1197
 276   2.0000      -0.623156       -16.9569
 277   2.0000      -0.623012       -16.9530
 278   2.0000      -0.619591       -16.8599
 279   2.0000      -0.619394       -16.8546
 280   2.0000      -0.617588       -16.8054
 281   2.0000      -0.610433       -16.6107
 282   2.0000      -0.609575       -16.5874
 283   2.0000      -0.609567       -16.5872
 284   2.0000      -0.604059       -16.4373
 285   2.0000      -0.602083       -16.3835
 286   2.0000      -0.602082       -16.3835
 287   2.0000      -0.597191       -16.2504
 288   2.0000      -0.596980       -16.2446
 289   2.0000      -0.596975       -16.2445
 290   2.0000      -0.596410       -16.2291
 291   2.0000      -0.585977       -15.9452
 292   2.0000      -0.585969       -15.9450
 293   2.0000      -0.582127       -15.8405
 294   2.0000      -0.581785       -15.8312
 295   2.0000      -0.579224       -15.7615
 296   2.0000      -0.579207       -15.7610
 297   2.0000      -0.579177       -15.7602
 298   2.0000      -0.578535       -15.7427
 299   2.0000      -0.576261       -15.6809
 300   2.0000      -0.574400       -15.6302
 301   2.0000      -0.574397       -15.6301
 302   2.0000      -0.568958       -15.4821
 303   2.0000      -0.568949       -15.4819
 304   2.0000      -0.568886       -15.4802
 305   2.0000      -0.568858       -15.4794
 306   2.0000      -0.564566       -15.3626
 307   2.0000      -0.564551       -15.3622
 308   2.0000      -0.564540       -15.3619
 309   2.0000      -0.564512       -15.3612
 310   2.0000      -0.564081       -15.3494
 311   2.0000      -0.558832       -15.2066
 312   2.0000      -0.558821       -15.2063
 313   2.0000      -0.556753       -15.1500
 314   2.0000      -0.554236       -15.0815
 315   2.0000      -0.554229       -15.0813
 316   2.0000      -0.553682       -15.0664
 317   2.0000      -0.552147       -15.0247
 318   2.0000      -0.549433       -14.9508
 319   2.0000      -0.549430       -14.9507
 320   2.0000      -0.545145       -14.8342
 321   2.0000      -0.545139       -14.8340
 322   2.0000      -0.544251       -14.8098
 323   2.0000      -0.536881       -14.6093
 324   2.0000      -0.536878       -14.6092
 325   2.0000      -0.534247       -14.5376
 326   2.0000      -0.533967       -14.5300
 327   2.0000      -0.533959       -14.5298
 328   2.0000      -0.533240       -14.5102
 329   2.0000      -0.528775       -14.3887
 330   2.0000      -0.517778       -14.0894
 331   2.0000      -0.517774       -14.0893
 332   2.0000      -0.515156       -14.0181
 333   2.0000      -0.512874       -13.9560
 334   2.0000      -0.509512       -13.8645
 335   2.0000      -0.507114       -13.7993
 336   2.0000      -0.506289       -13.7768
 337   2.0000      -0.506280       -13.7766
 338   2.0000      -0.505386       -13.7522
 339   2.0000      -0.504720       -13.7341
 340   2.0000      -0.504705       -13.7337
 341   2.0000      -0.503210       -13.6931
 342   2.0000      -0.502953       -13.6860
 343   2.0000      -0.499923       -13.6036
 344   2.0000      -0.489770       -13.3273
 345   2.0000      -0.489720       -13.3260
 346   2.0000      -0.489709       -13.3257
 347   2.0000      -0.489678       -13.3248
 348   2.0000      -0.487583       -13.2678
 349   2.0000      -0.487012       -13.2523
 350   2.0000      -0.487003       -13.2520
 351   2.0000      -0.485553       -13.2126
 352   2.0000      -0.462773       -12.5927
 353   2.0000      -0.461639       -12.5618
 354   2.0000      -0.461636       -12.5617
 355   2.0000      -0.460389       -12.5278
 356   2.0000      -0.442252       -12.0343
 357   2.0000      -0.441743       -12.0204
 358   2.0000      -0.441733       -12.0202
 359   2.0000      -0.440999       -12.0002
 360   0.0000      -0.377372       -10.2688
 361   0.0000      -0.364565        -9.9203
 362   0.0000      -0.364223        -9.9110
 363   0.0000      -0.364213        -9.9107
 364   0.0000      -0.362680        -9.8690

MULLIKEN ATOMIC CHARGES
-----------------------
   0 Pd:   -0.062763
   1 Pd:   -0.030881
   2 C :    0.021966
   3 C :    0.050292
   4 C :   -0.202916
   5 C :   -0.087507
   6 C :   -0.182276
   7 C :   -0.224819
   8 C :    0.189496
   9 C :   -0.250444
  10 N :   -0.049555
  11 C :   -0.197175
  12 C :    0.089257
  13 C :    0.155529
  14 H :    0.256624
  15 H :    0.225129
  16 H :    0.230204
  17 H :    0.203059
  18 H :    0.136482
  19 H :    0.138197
  20 C :   -0.104202
  21 C :   -0.132725
  22 C :   -0.129984
  23 C :   -0.148289
  24 C :   -0.060792
  25 C :   -0.180884
  26 H :    0.244900
  27 H :    0.221082
  28 H :    0.231562
  29 H :    0.193877
  30 C :    0.032574
  31 C :   -0.032479
  32 C :    0.095646
  33 C :   -0.225304
  34 C :   -0.020226
  35 C :   -0.133728
  36 N :   -0.034574
  37 C :   -0.161155
  38 H :    0.248122
  39 H :    0.247104
  40 H :    0.184452
  41 H :    0.187378
  42 C :    0.021301
  43 C :    0.050306
  44 C :   -0.202616
  45 C :   -0.087526
  46 C :   -0.182227
  47 C :   -0.224984
  48 C :    0.189132
  49 C :   -0.250426
  50 N :   -0.049064
  51 C :   -0.198350
  52 C :    0.087838
  53 C :    0.155923
  54 H :    0.256698
  55 H :    0.225128
  56 H :    0.230234
  57 H :    0.203276
  58 H :    0.137599
  59 H :    0.137919
  60 C :   -0.103619
  61 C :   -0.132842
  62 C :   -0.130004
  63 C :   -0.148213
  64 C :   -0.061141
  65 C :   -0.180975
  66 H :    0.244934
  67 H :    0.221102
  68 H :    0.231600
  69 H :    0.193804
  70 C :    0.032557
  71 C :   -0.032231
  72 C :    0.095337
  73 C :   -0.225279
  74 C :   -0.019818
  75 C :   -0.133732
  76 N :   -0.034384
  77 C :   -0.161038
  78 H :    0.248083
  79 H :    0.247100
  80 H :    0.184279
  81 H :    0.187499
  82 C :    0.021912
  83 C :    0.050055
  84 C :   -0.202255
  85 C :   -0.087845
  86 C :   -0.182079
  87 C :   -0.224965
  88 C :    0.189671
  89 C :   -0.250455
  90 N :   -0.049364
  91 C :   -0.197556
  92 C :    0.089634
  93 C :    0.155406
  94 H :    0.256632
  95 H :    0.225146
  96 H :    0.230148
  97 H :    0.203007
  98 H :    0.136189
  99 H :    0.138010
 100 C :   -0.103659
 101 C :   -0.132743
 102 C :   -0.130242
 103 C :   -0.147826
 104 C :   -0.061337
 105 C :   -0.180973
 106 H :    0.244947
 107 H :    0.221050
 108 H :    0.231584
 109 H :    0.194025
 110 C :    0.032392
 111 C :   -0.032403
 112 C :    0.095978
 113 C :   -0.225563
 114 C :   -0.020577
 115 C :   -0.134317
 116 N :   -0.034443
 117 C :   -0.161296
 118 H :    0.248084
 119 H :    0.247123
 120 H :    0.184844
 121 H :    0.187514
 122 C :    0.021657
 123 C :    0.050638
 124 C :   -0.202956
 125 C :   -0.087603
 126 C :   -0.182156
 127 C :   -0.224986
 128 C :    0.189099
 129 C :   -0.250653
 130 N :   -0.049186
 131 C :   -0.197995
 132 C :    0.088197
 133 C :    0.155647
 134 H :    0.256619
 135 H :    0.225154
 136 H :    0.230201
 137 H :    0.203266
 138 H :    0.137394
 139 H :    0.138148
 140 C :   -0.104504
 141 C :   -0.132267
 142 C :   -0.130340
 143 C :   -0.148058
 144 C :   -0.061061
 145 C :   -0.180741
 146 H :    0.244926
 147 H :    0.221056
 148 H :    0.231569
 149 H :    0.194084
 150 C :    0.032149
 151 C :   -0.032059
 152 C :    0.095517
 153 C :   -0.225499
 154 C :   -0.019822
 155 C :   -0.133926
 156 N :   -0.034064
 157 C :   -0.161587
 158 H :    0.248100
 159 H :    0.247133
 160 H :    0.184396
 161 H :    0.187630
Sum of atomic charges:    4.0000000

LOEWDIN ATOMIC CHARGES
----------------------
   0 Pd:   -0.067444
   1 Pd:   -0.062608
   2 C :   -0.001484
   3 C :   -0.032420
   4 C :   -0.039423
   5 C :   -0.080514
   6 C :   -0.106941
   7 C :   -0.121781
   8 C :   -0.041212
   9 C :   -0.001313
  10 N :   -0.083406
  11 C :   -0.065256
  12 C :   -0.111332
  13 C :   -0.002058
  14 H :    0.198797
  15 H :    0.194387
  16 H :    0.186672
  17 H :    0.188791
  18 H :    0.173611
  19 H :    0.195182
  20 C :   -0.060455
  21 C :   -0.090534
  22 C :   -0.121182
  23 C :   -0.099980
  24 C :   -0.070391
  25 C :   -0.104732
  26 H :    0.193646
  27 H :    0.191088
  28 H :    0.188386
  29 H :    0.174238
  30 C :    0.036954
  31 C :   -0.066988
  32 C :   -0.039737
  33 C :   -0.064868
  34 C :   -0.120631
  35 C :   -0.043985
  36 N :   -0.074824
  37 C :   -0.021444
  38 H :    0.204143
  39 H :    0.202375
  40 H :    0.184580
  41 H :    0.186529
  42 C :   -0.001506
  43 C :   -0.032397
  44 C :   -0.039390
  45 C :   -0.080522
  46 C :   -0.106919
  47 C :   -0.121759
  48 C :   -0.041181
  49 C :   -0.001309
  50 N :   -0.083383
  51 C :   -0.065398
  52 C :   -0.111278
  53 C :   -0.002074
  54 H :    0.198799
  55 H :    0.194390
  56 H :    0.186681
  57 H :    0.188793
  58 H :    0.173602
  59 H :    0.195185
  60 C :   -0.060445
  61 C :   -0.090507
  62 C :   -0.121183
  63 C :   -0.099975
  64 C :   -0.070395
  65 C :   -0.104725
  66 H :    0.193658
  67 H :    0.191085
  68 H :    0.188381
  69 H :    0.174237
  70 C :    0.036934
  71 C :   -0.066980
  72 C :   -0.039729
  73 C :   -0.064874
  74 C :   -0.120633
  75 C :   -0.044012
  76 N :   -0.074827
  77 C :   -0.021458
  78 H :    0.204145
  79 H :    0.202370
  80 H :    0.184589
  81 H :    0.186526
  82 C :   -0.001503
  83 C :   -0.032392
  84 C :   -0.039423
  85 C :   -0.080516
  86 C :   -0.106924
  87 C :   -0.121783
  88 C :   -0.041208
  89 C :   -0.001259
  90 N :   -0.083398
  91 C :   -0.065296
  92 C :   -0.111325
  93 C :   -0.002040
  94 H :    0.198798
  95 H :    0.194384
  96 H :    0.186675
  97 H :    0.188789
  98 H :    0.173590
  99 H :    0.195188
 100 C :   -0.060440
 101 C :   -0.090503
 102 C :   -0.121185
 103 C :   -0.099988
 104 C :   -0.070387
 105 C :   -0.104722
 106 H :    0.193657
 107 H :    0.191089
 108 H :    0.188377
 109 H :    0.174243
 110 C :    0.036973
 111 C :   -0.067000
 112 C :   -0.039716
 113 C :   -0.064848
 114 C :   -0.120621
 115 C :   -0.044078
 116 N :   -0.074825
 117 C :   -0.021477
 118 H :    0.204144
 119 H :    0.202371
 120 H :    0.184565
 121 H :    0.186529
 122 C :   -0.001477
 123 C :   -0.032422
 124 C :   -0.039423
 125 C :   -0.080523
 126 C :   -0.106909
 127 C :   -0.121779
 128 C :   -0.041202
 129 C :   -0.001334
 130 N :   -0.083394
 131 C :   -0.065345
 132 C :   -0.111286
 133 C :   -0.002048
 134 H :    0.198794
 135 H :    0.194390
 136 H :    0.186678
 137 H :    0.188793
 138 H :    0.173603
 139 H :    0.195195
 140 C :   -0.060441
 141 C :   -0.090519
 142 C :   -0.121177
 143 C :   -0.099984
 144 C :   -0.070379
 145 C :   -0.104733
 146 H :    0.193659
 147 H :    0.191085
 148 H :    0.188387
 149 H :    0.174247
 150 C :    0.036943
 151 C :   -0.066978
 152 C :   -0.039728
 153 C :   -0.064867
 154 C :   -0.120623
 155 C :   -0.044030
 156 N :   -0.074798
 157 C :   -0.021483
 158 H :    0.204141
 159 H :    0.202375
 160 H :    0.184593
 161 H :    0.186529

  Mayer bond orders larger than 0.100000
B(  0-Pd, 10-N ) :   0.5312 B(  0-Pd, 50-N ) :   0.5309 B(  0-Pd, 90-N ) :   0.5314
B(  0-Pd,130-N ) :   0.5309 B(  1-Pd, 36-N ) :   0.5292 B(  1-Pd, 76-N ) :   0.5293
B(  1-Pd,116-N ) :   0.5292 B(  1-Pd,156-N ) :   0.5292 B(  2-C ,  3-C ) :   1.8535
B(  2-C ,  4-C ) :  -0.2992 B(  2-C , 20-C ) :   1.5071 B(  3-C ,  4-C ) :   1.4724
B(  3-C , 13-C ) :  -0.1805 B(  3-C , 20-C ) :  -0.3936 B(  4-C ,  5-C ) :   1.5186
B(  4-C , 12-C ) :  -0.1255 B(  4-C , 13-C ) :   1.0782 B(  5-C ,  6-C ) :   1.4015
B(  5-C , 14-H ) :   0.8565 B(  6-C ,  7-C ) :   1.6489 B(  6-C , 15-H ) :   0.8719
B(  7-C ,  8-C ) :   1.3090 B(  7-C , 16-H ) :   0.8634 B(  8-C ,  9-C ) :   1.2245
B(  8-C , 12-C ) :  -0.1055 B(  8-C , 13-C ) :   1.0883 B(  9-C , 10-N ) :   1.4950
B(  9-C , 13-C ) :  -0.1142 B(  9-C , 17-H ) :   0.9285 B( 10-N , 11-C ) :   1.2635
B( 10-N , 90-N ) :   0.1021 B( 11-C , 12-C ) :   1.4772 B( 11-C , 13-C ) :   0.1503
B( 11-C , 18-H ) :   0.9233 B( 12-C , 13-C ) :   1.3574 B( 12-C , 19-H ) :   0.8991
B( 20-C , 21-C ) :   1.3148 B( 20-C , 25-C ) :   1.2688 B( 21-C , 22-C ) :   1.5140
B( 21-C , 26-H ) :   0.8854 B( 22-C , 23-C ) :   1.5220 B( 22-C , 27-H ) :   0.8785
B( 23-C , 24-C ) :   1.2886 B( 23-C , 28-H ) :   0.8873 B( 24-C , 25-C ) :   1.3067
B( 24-C , 30-C ) :   1.4835 B( 24-C , 31-C ) :  -0.3889 B( 25-C , 29-H ) :   0.9547
B( 25-C , 30-C ) :  -0.1054 B( 25-C , 31-C ) :   0.1005 B( 30-C , 31-C ) :   1.8592
B( 30-C , 32-C ) :  -0.3040 B( 31-C , 32-C ) :   1.4094 B( 32-C , 33-C ) :   1.3475
B( 32-C , 37-C ) :   1.2811 B( 33-C , 34-C ) :   1.4896 B( 33-C , 38-H ) :   0.9202
B( 34-C , 35-C ) :   1.4318 B( 34-C , 39-H ) :   0.8683 B( 35-C , 36-N ) :   1.3278
B( 35-C , 40-H ) :   0.9215 B( 36-N , 37-C ) :   1.3939 B( 37-C , 41-H ) :   0.9524
B( 42-C , 43-C ) :   1.8547 B( 42-C , 44-C ) :  -0.2983 B( 42-C , 60-C ) :   1.5072
B( 43-C , 44-C ) :   1.4718 B( 43-C , 53-C ) :  -0.1804 B( 43-C , 60-C ) :  -0.3929
B( 44-C , 45-C ) :   1.5188 B( 44-C , 52-C ) :  -0.1255 B( 44-C , 53-C ) :   1.0780
B( 45-C , 46-C ) :   1.4019 B( 45-C , 54-H ) :   0.8564 B( 46-C , 47-C ) :   1.6486
B( 46-C , 55-H ) :   0.8719 B( 47-C , 48-C ) :   1.3093 B( 47-C , 56-H ) :   0.8634
B( 48-C , 49-C ) :   1.2253 B( 48-C , 52-C ) :  -0.1054 B( 48-C , 53-C ) :   1.0887
B( 49-C , 50-N ) :   1.4953 B( 49-C , 53-C ) :  -0.1143 B( 49-C , 57-H ) :   0.9282
B( 50-N , 51-C ) :   1.2633 B( 50-N ,130-N ) :   0.1022 B( 51-C , 52-C ) :   1.4799
B( 51-C , 53-C ) :   0.1501 B( 51-C , 58-H ) :   0.9221 B( 52-C , 53-C ) :   1.3576
B( 52-C , 59-H ) :   0.8992 B( 60-C , 61-C ) :   1.3151 B( 60-C , 65-C ) :   1.2685
B( 61-C , 62-C ) :   1.5141 B( 61-C , 66-H ) :   0.8853 B( 62-C , 63-C ) :   1.5224
B( 62-C , 67-H ) :   0.8785 B( 63-C , 64-C ) :   1.2887 B( 63-C , 68-H ) :   0.8873
B( 64-C , 65-C ) :   1.3061 B( 64-C , 70-C ) :   1.4838 B( 64-C , 71-C ) :  -0.3894
B( 65-C , 69-H ) :   0.9549 B( 65-C , 70-C ) :  -0.1056 B( 65-C , 71-C ) :   0.1007
B( 70-C , 71-C ) :   1.8587 B( 70-C , 72-C ) :  -0.3041 B( 71-C , 72-C ) :   1.4094
B( 72-C , 73-C ) :   1.3473 B( 72-C , 77-C ) :   1.2816 B( 73-C , 74-C ) :   1.4895
B( 73-C , 78-H ) :   0.9202 B( 74-C , 75-C ) :   1.4310 B( 74-C , 79-H ) :   0.8683
B( 75-C , 76-N ) :   1.3280 B( 75-C , 80-H ) :   0.9218 B( 76-N , 77-C ) :   1.3938
B( 77-C , 81-H ) :   0.9522 B( 82-C , 83-C ) :   1.8544 B( 82-C , 84-C ) :  -0.2987
B( 82-C ,100-C ) :   1.5063 B( 83-C , 84-C ) :   1.4717 B( 83-C , 93-C ) :  -0.1802
B( 83-C ,100-C ) :  -0.3928 B( 84-C , 85-C ) :   1.5186 B( 84-C , 92-C ) :  -0.1254
B( 84-C , 93-C ) :   1.0784 B( 85-C , 86-C ) :   1.4016 B( 85-C , 94-H ) :   0.8565
B( 86-C , 87-C ) :   1.6489 B( 86-C , 95-H ) :   0.8719 B( 87-C , 88-C ) :   1.3090
B( 87-C , 96-H ) :   0.8635 B( 88-C , 89-C ) :   1.2244 B( 88-C , 92-C ) :  -0.1054
B( 88-C , 93-C ) :   1.0885 B( 89-C , 90-N ) :   1.4952 B( 89-C , 93-C ) :  -0.1142
B( 89-C , 97-H ) :   0.9285 B( 90-N , 91-C ) :   1.2634 B( 91-C , 92-C ) :   1.4765
B( 91-C , 93-C ) :   0.1503 B( 91-C , 98-H ) :   0.9237 B( 92-C , 93-C ) :   1.3573
B( 92-C , 99-H ) :   0.8993 B(100-C ,101-C ) :   1.3150 B(100-C ,105-C ) :   1.2687
B(101-C ,102-C ) :   1.5141 B(101-C ,106-H ) :   0.8853 B(102-C ,103-C ) :   1.5224
B(102-C ,107-H ) :   0.8785 B(103-C ,104-C ) :   1.2886 B(103-C ,108-H ) :   0.8872
B(104-C ,105-C ) :   1.3060 B(104-C ,110-C ) :   1.4837 B(104-C ,111-C ) :  -0.3891
B(105-C ,109-H ) :   0.9546 B(105-C ,110-C ) :  -0.1057 B(105-C ,111-C ) :   0.1007
B(110-C ,111-C ) :   1.8593 B(110-C ,112-C ) :  -0.3038 B(111-C ,112-C ) :   1.4089
B(112-C ,113-C ) :   1.3474 B(112-C ,117-C ) :   1.2815 B(113-C ,114-C ) :   1.4898
B(113-C ,118-H ) :   0.9203 B(114-C ,115-C ) :   1.4326 B(114-C ,119-H ) :   0.8682
B(115-C ,116-N ) :   1.3279 B(115-C ,120-H ) :   0.9210 B(116-N ,117-C ) :   1.3939
B(117-C ,121-H ) :   0.9522 B(122-C ,123-C ) :   1.8540 B(122-C ,124-C ) :  -0.2989
B(122-C ,140-C ) :   1.5069 B(123-C ,124-C ) :   1.4719 B(123-C ,133-C ) :  -0.1806
B(123-C ,140-C ) :  -0.3935 B(124-C ,125-C ) :   1.5184 B(124-C ,132-C ) :  -0.1254
B(124-C ,133-C ) :   1.0781 B(125-C ,126-C ) :   1.4017 B(125-C ,134-H ) :   0.8565
B(126-C ,127-C ) :   1.6486 B(126-C ,135-H ) :   0.8719 B(127-C ,128-C ) :   1.3090
B(127-C ,136-H ) :   0.8634 B(128-C ,129-C ) :   1.2255 B(128-C ,132-C ) :  -0.1054
B(128-C ,133-C ) :   1.0886 B(129-C ,130-N ) :   1.4951 B(129-C ,133-C ) :  -0.1142
B(129-C ,137-H ) :   0.9281 B(130-N ,131-C ) :   1.2633 B(131-C ,132-C ) :   1.4794
B(131-C ,133-C ) :   0.1503 B(131-C ,138-H ) :   0.9222 B(132-C ,133-C ) :   1.3574
B(132-C ,139-H ) :   0.8991 B(140-C ,141-C ) :   1.3150 B(140-C ,145-C ) :   1.2686
B(141-C ,142-C ) :   1.5138 B(141-C ,146-H ) :   0.8854 B(142-C ,143-C ) :   1.5221
B(142-C ,147-H ) :   0.8786 B(143-C ,144-C ) :   1.2884 B(143-C ,148-H ) :   0.8874
B(144-C ,145-C ) :   1.3066 B(144-C ,150-C ) :   1.4838 B(144-C ,151-C ) :  -0.3894
B(145-C ,149-H ) :   0.9545 B(145-C ,150-C ) :  -0.1055 B(145-C ,151-C ) :   0.1007
B(150-C ,151-C ) :   1.8588 B(150-C ,152-C ) :  -0.3040 B(151-C ,152-C ) :   1.4091
B(152-C ,153-C ) :   1.3475 B(152-C ,157-C ) :   1.2815 B(153-C ,154-C ) :   1.4893
B(153-C ,158-H ) :   0.9202 B(154-C ,155-C ) :   1.4313 B(154-C ,159-H ) :   0.8683
B(155-C ,156-N ) :   1.3278 B(155-C ,160-H ) :   0.9217 B(156-N ,157-C ) :   1.3940
B(157-C ,161-H ) :   0.9521

Dispersion correction           -0.596628345
FINAL SINGLE POINT ENERGY     -4383.020413015445

DIPOLE MOMENT
-------------
                                X             Y             Z
Electronic contribution:     -5.51903     -87.05212      -3.44079
Nuclear contribution   :      5.37086      84.50175       3.33410
                        -----------------------------------------
Total Dipole Moment    :     -0.14817      -2.55037      -0.10669
                        -----------------------------------------
Magnitude (a.u.)       :      2.55690
Magnitude (Debye)      :      6.49912

Rotational constants in cm-1:     0.000403     0.000308     0.000308
Rotational constants in MHz :    12.093871     9.227274     9.224787

                             ****ORCA TERMINATED NORMALLY****
TOTAL RUN TIME: 0 days 0 hours 10 minutes 44 seconds 193 msec
