                         Program Version 4.2.1 -  RELEASE  -
|  1> ! DFT SP B97-3c TightSCF printbasis  Grid6 NOFINALGRID SlowConv
|  2>
|  3> %base "_s_5d1_c_B97-3c"
|  4> %maxcore 3000
|  5> %scf
|  6>    MaxIter 2000
|  7> end
|  8> %pal
|  9>    nprocs 32
| 10> end
| 11>
| 12> * xyzfile 4 1 s_5d1_c.xyz
| 13>
| 14>                          ****END OF INPUT****

CARTESIAN COORDINATES (ANGSTROEM)
---------------------------------
  Pd    -0.052400    3.661000    0.293000
  Pd    -0.737800   -5.573300    0.175500
  C      5.667800   -1.123600    0.665800
  C      5.411200   -2.305200    0.670800
  C      5.097000   -3.676000    0.753700
  C      6.061300   -4.597700    1.122800
  C      5.743900   -5.952300    1.277800
  C      4.462800   -6.402500    1.088600
  C      3.452200   -5.495600    0.703400
  C      2.114500   -5.890600    0.519200
  N      1.172700   -5.051900    0.142500
  C      1.474900   -3.751800   -0.104300
  C      2.736400   -3.261100    0.075700
  C      3.767700   -4.120500    0.507100
  H      7.072400   -4.264000    1.300400
  H      6.523500   -6.641700    1.563300
  H      4.219100   -7.443400    1.229500
  H      1.820500   -6.922800    0.693900
  H      0.648000   -3.137000   -0.453900
  H      2.966300   -2.224000   -0.109000
  C      5.946800    0.258300    0.729000
  C      7.194400    0.700300    1.177800
  C      7.437600    2.056000    1.293500
  C      6.455800    2.977900    0.971600
  C      5.208000    2.551000    0.512500
  C      4.963100    1.186800    0.388400
  H      7.958100   -0.017100    1.436300
  H      8.398800    2.399900    1.644700
  H      6.656100    4.029600    1.104000
  H      4.022100    0.831600    0.000300
  C      4.166800    3.536100    0.180900
  C      4.483600    4.773000   -0.390300
  C      3.476100    5.683500   -0.661900
  C      2.165200    5.339900   -0.379700
  N      1.857900    4.153000    0.147100
  C      2.820000    3.275500    0.430800
  H      5.507500    5.011300   -0.631700
  H      3.705300    6.643800   -1.094700
  H      1.338800    6.020600   -0.574200
  H      2.498100    2.344500    0.893000
  C     -0.051100   -0.775300    6.302300
  C     -0.135300   -1.967800    6.121500
  C     -0.154800   -3.358400    5.896100
  C      0.117400   -4.242200    6.925800
  C      0.171700   -5.622300    6.697800
  C     -0.022000   -6.137700    5.442200
  C     -0.310300   -5.270300    4.366700
  C     -0.492600   -5.734700    3.051200
  N     -0.780400   -4.931600    2.048800
  C     -0.932600   -3.599900    2.263100
  C     -0.744000   -3.044700    3.496300
  C     -0.405200   -3.866900    4.590500
  H      0.297400   -3.859000    7.918800
  H      0.383100   -6.280300    7.526600
  H      0.041900   -7.199900    5.267800
  H     -0.391900   -6.793900    2.826700
  H     -1.214200   -3.014400    1.390200
  H     -0.852000   -1.984000    3.656200
  C      0.116800    0.612700    6.494500
  C      0.596900    1.096500    7.714600
  C      0.815500    2.452000    7.873500
  C      0.565400    3.332400    6.834400
  C      0.076000    2.864500    5.613200
  C     -0.151200    1.501000    5.452900
  H      0.799300    0.410600    8.522900
  H      1.191200    2.827700    8.813300
  H      0.777200    4.381600    6.969500
  H     -0.564900    1.118200    4.533800
  C     -0.179800    3.805000    4.511200
  C     -0.657500    5.098100    4.747800
  C     -0.859800    5.962100    3.684600
  C     -0.602600    5.517900    2.399100
  N     -0.164900    4.278500    2.168600
  C      0.051600    3.443600    3.184500
  H     -0.881500    5.416700    5.753800
  H     -1.220400    6.964100    3.851700
  H     -0.745200    6.158600    1.531100
  H      0.443300    2.462600    2.923300
  C     -6.458800   -0.784000   -0.184600
  C     -6.204900    0.398100   -0.172000
  C     -5.893300    1.770600   -0.235300
  C     -6.862900    2.697300   -0.576800
  C     -6.548600    4.054600   -0.713100
  C     -5.265400    4.502800   -0.533300
  C     -4.249300    3.590600   -0.176300
  C     -2.909400    3.983500   -0.003700
  N     -1.962300    3.139700    0.347700
  C     -2.260900    1.835900    0.578800
  C     -3.524200    1.347100    0.406900
  C     -4.561300    2.212300    0.002000
  H     -7.875900    2.365700   -0.747200
  H     -7.332300    4.747900   -0.976900
  H     -5.024300    5.546100   -0.660300
  H     -2.618200    5.018400   -0.166400
  H     -1.429300    1.216500    0.908600
  H     -3.751200    0.307000    0.577900
  C     -6.735500   -2.165300   -0.269000
  C     -7.978600   -2.602200   -0.735000
  C     -8.219400   -3.956300   -0.871600
  C     -7.239700   -4.881600   -0.553400
  C     -5.996500   -4.460100   -0.077000
  C     -5.754000   -3.097500    0.067700
  H     -8.740500   -1.881800   -0.990400
  H     -9.177000   -4.296200   -1.236300
  H     -7.437800   -5.931700   -0.701800
  H     -4.816900   -2.747000    0.469500
  C     -4.958000   -5.448900    0.251600
  C     -5.279600   -6.692600    0.804900
  C     -4.274400   -7.606000    1.075100
  C     -2.961100   -7.258800    0.808900
  N     -2.649400   -6.065800    0.298700
  C     -3.609000   -5.185100    0.016800
  H     -6.305600   -6.933900    1.034200
  H     -4.507300   -8.571400    1.494400
  H     -2.136300   -7.941600    1.002800
  H     -3.283200   -4.248500   -0.431100
  C     -0.746800   -1.140500   -5.833400
  C     -0.680700    0.052800   -5.650400
  C     -0.681600    1.443100   -5.422400
  C     -0.981400    2.323900   -6.447000
  C     -1.055500    3.702600   -6.215800
  C     -0.853600    4.219100   -4.961900
  C     -0.537300    3.354900   -3.891800
  C     -0.344200    3.820400   -2.578200
  N     -0.031200    3.020300   -1.581000
  C      0.137800    1.691300   -1.799000
  C     -0.057900    1.135100   -3.030600
  C     -0.423200    1.953500   -4.119200
  H     -1.167800    1.939500   -7.438300
  H     -1.288500    4.358300   -7.040500
  H     -0.932400    5.279900   -4.784800
  H     -0.457800    4.877600   -2.350800
  H      0.438900    1.108900   -0.930600
  H      0.064500    0.076300   -3.193600
  C     -0.893300   -2.530600   -6.027800
  C     -1.354900   -3.020900   -7.252400
  C     -1.552700   -4.379400   -7.413300
  C     -1.300300   -5.256300   -6.371900
  C     -0.829300   -4.781700   -5.145900
  C     -0.622600   -3.415200   -4.983700
  H     -1.559200   -2.337900   -8.062600
  H     -1.914100   -4.760200   -8.356700
  H     -1.496200   -6.308300   -6.509000
  H     -0.223500   -3.026700   -4.060700
  C     -0.571800   -5.718600   -4.041300
  C     -0.076000   -7.005900   -4.272800
  C      0.126700   -7.866900   -3.207300
  C     -0.147900   -7.425500   -1.924400
  N     -0.602400   -6.191300   -1.698600
  C     -0.819700   -5.359600   -2.716900
  H      0.161400   -7.322000   -5.276400
  H      0.500800   -8.864700   -3.370600
  H     -0.005600   -8.064100   -1.054900
  H     -1.226000   -4.383400   -2.459800

 Total Charge           Charge          ....    4
 Multiplicity           Mult            ....    1
 Number of Electrons    NEL             ....  672
 Basis Dimension        Dim             .... 2058

ORBITAL ENERGIES
----------------

  NO   OCC          E(Eh)            E(eV)
   0   2.0000     -14.347963      -390.4279
   1   2.0000     -14.347962      -390.4279
   2   2.0000     -14.347934      -390.4271
   3   2.0000     -14.347934      -390.4271
   4   2.0000     -14.346132      -390.3781
   5   2.0000     -14.346131      -390.3781
   6   2.0000     -14.346119      -390.3777
   7   2.0000     -14.346117      -390.3777
   8   2.0000     -10.246868      -278.8315
   9   2.0000     -10.246862      -278.8313
  10   2.0000     -10.246857      -278.8312
  11   2.0000     -10.246847      -278.8309
  12   2.0000     -10.240506      -278.6583
  13   2.0000     -10.240497      -278.6581
  14   2.0000     -10.240477      -278.6575
  15   2.0000     -10.240470      -278.6573
  16   2.0000     -10.238207      -278.5958
  17   2.0000     -10.238207      -278.5958
  18   2.0000     -10.238192      -278.5954
  19   2.0000     -10.238172      -278.5948
  20   2.0000     -10.237876      -278.5868
  21   2.0000     -10.237870      -278.5866
  22   2.0000     -10.237855      -278.5862
  23   2.0000     -10.237850      -278.5860
  24   2.0000     -10.213260      -277.9169
  25   2.0000     -10.213252      -277.9167
  26   2.0000     -10.213248      -277.9166
  27   2.0000     -10.213246      -277.9166
  28   2.0000     -10.210880      -277.8522
  29   2.0000     -10.210879      -277.8521
  30   2.0000     -10.210876      -277.8521
  31   2.0000     -10.210864      -277.8517
  32   2.0000     -10.208200      -277.7792
  33   2.0000     -10.208196      -277.7791
  34   2.0000     -10.208193      -277.7791
  35   2.0000     -10.208183      -277.7788
  36   2.0000     -10.205817      -277.7144
  37   2.0000     -10.205810      -277.7142
  38   2.0000     -10.205808      -277.7142
  39   2.0000     -10.205797      -277.7139
  40   2.0000     -10.203888      -277.6619
  41   2.0000     -10.203882      -277.6618
  42   2.0000     -10.203880      -277.6617
  43   2.0000     -10.203869      -277.6614
  44   2.0000     -10.203627      -277.6548
  45   2.0000     -10.203622      -277.6547
  46   2.0000     -10.203615      -277.6545
  47   2.0000     -10.203610      -277.6543
  48   2.0000     -10.200190      -277.5613
  49   2.0000     -10.200183      -277.5611
  50   2.0000     -10.200177      -277.5609
  51   2.0000     -10.200171      -277.5608
  52   2.0000     -10.185933      -277.1733
  53   2.0000     -10.185929      -277.1732
  54   2.0000     -10.185925      -277.1731
  55   2.0000     -10.185921      -277.1730
  56   2.0000     -10.183121      -277.0968
  57   2.0000     -10.183115      -277.0967
  58   2.0000     -10.183105      -277.0964
  59   2.0000     -10.183103      -277.0963
  60   2.0000     -10.182938      -277.0918
  61   2.0000     -10.182937      -277.0918
  62   2.0000     -10.182930      -277.0916
  63   2.0000     -10.182919      -277.0913
  64   2.0000     -10.181462      -277.0517
  65   2.0000     -10.181451      -277.0514
  66   2.0000     -10.181439      -277.0510
  67   2.0000     -10.181430      -277.0508
  68   2.0000     -10.176048      -276.9044
  69   2.0000     -10.176046      -276.9043
  70   2.0000     -10.176032      -276.9039
  71   2.0000     -10.176023      -276.9037
  72   2.0000     -10.174293      -276.8566
  73   2.0000     -10.174289      -276.8565
  74   2.0000     -10.174274      -276.8561
  75   2.0000     -10.174266      -276.8558
  76   2.0000     -10.165858      -276.6271
  77   2.0000     -10.165836      -276.6265
  78   2.0000     -10.165834      -276.6264
  79   2.0000     -10.165831      -276.6263
  80   2.0000     -10.163728      -276.5691
  81   2.0000     -10.163727      -276.5691
  82   2.0000     -10.163724      -276.5690
  83   2.0000     -10.163722      -276.5689
  84   2.0000     -10.161717      -276.5144
  85   2.0000     -10.161698      -276.5138
  86   2.0000     -10.161695      -276.5138
  87   2.0000     -10.161692      -276.5137
  88   2.0000     -10.160983      -276.4944
  89   2.0000     -10.160982      -276.4944
  90   2.0000     -10.160976      -276.4942
  91   2.0000     -10.160974      -276.4941
  92   2.0000     -10.154371      -276.3145
  93   2.0000     -10.154363      -276.3143
  94   2.0000     -10.154357      -276.3141
  95   2.0000     -10.154353      -276.3140
  96   2.0000      -3.660010       -99.5939
  97   2.0000      -3.660006       -99.5938
  98   2.0000      -2.390586       -65.0512
  99   2.0000      -2.390582       -65.0510
 100   2.0000      -2.390401       -65.0461
 101   2.0000      -2.390398       -65.0460
 102   2.0000      -2.348572       -63.9079
 103   2.0000      -2.348568       -63.9078
 104   2.0000      -1.212383       -32.9906
 105   2.0000      -1.212383       -32.9906
 106   2.0000      -1.205361       -32.7996
 107   2.0000      -1.205352       -32.7993
 108   2.0000      -1.205140       -32.7935
 109   2.0000      -1.205137       -32.7934
 110   2.0000      -1.203931       -32.7606
 111   2.0000      -1.203924       -32.7604
 112   2.0000      -1.090739       -29.6805
 113   2.0000      -1.090697       -29.6794
 114   2.0000      -1.090106       -29.6633
 115   2.0000      -1.090099       -29.6631
 116   2.0000      -1.076163       -29.2839
 117   2.0000      -1.076058       -29.2810
 118   2.0000      -1.075906       -29.2769
 119   2.0000      -1.075883       -29.2763
 120   2.0000      -1.044446       -28.4208
 121   2.0000      -1.044289       -28.4166
 122   2.0000      -1.043676       -28.3999
 123   2.0000      -1.043625       -28.3985
 124   2.0000      -1.031479       -28.0680
 125   2.0000      -1.031409       -28.0661
 126   2.0000      -1.030143       -28.0316
 127   2.0000      -1.030044       -28.0289
 128   2.0000      -1.019052       -27.7298
 129   2.0000      -1.018971       -27.7276
 130   2.0000      -1.018155       -27.7054
 131   2.0000      -1.017881       -27.6979
 132   2.0000      -1.009836       -27.4790
 133   2.0000      -1.009707       -27.4755
 134   2.0000      -1.008896       -27.4535
 135   2.0000      -1.008768       -27.4500
 136   2.0000      -0.991462       -26.9790
 137   2.0000      -0.991166       -26.9710
 138   2.0000      -0.990374       -26.9494
 139   2.0000      -0.989635       -26.9293
 140   2.0000      -0.976834       -26.5810
 141   2.0000      -0.976300       -26.5665
 142   2.0000      -0.976128       -26.5618
 143   2.0000      -0.975514       -26.5451
 144   2.0000      -0.956476       -26.0270
 145   2.0000      -0.956449       -26.0263
 146   2.0000      -0.955979       -26.0135
 147   2.0000      -0.955949       -26.0127
 148   2.0000      -0.930271       -25.3140
 149   2.0000      -0.930041       -25.3077
 150   2.0000      -0.929930       -25.3047
 151   2.0000      -0.929681       -25.2979
 152   2.0000      -0.902032       -24.5455
 153   2.0000      -0.901984       -24.5442
 154   2.0000      -0.899586       -24.4790
 155   2.0000      -0.898892       -24.4601
 156   2.0000      -0.891589       -24.2614
 157   2.0000      -0.891569       -24.2608
 158   2.0000      -0.889857       -24.2142
 159   2.0000      -0.889352       -24.2005
 160   2.0000      -0.883454       -24.0400
 161   2.0000      -0.882603       -24.0169
 162   2.0000      -0.882210       -24.0061
 163   2.0000      -0.881858       -23.9966
 164   2.0000      -0.876904       -23.8618
 165   2.0000      -0.876073       -23.8392
 166   2.0000      -0.875418       -23.8213
 167   2.0000      -0.874999       -23.8099
 168   2.0000      -0.860689       -23.4205
 169   2.0000      -0.860268       -23.4091
 170   2.0000      -0.859948       -23.4004
 171   2.0000      -0.859654       -23.3924
 172   2.0000      -0.831080       -22.6148
 173   2.0000      -0.830197       -22.5908
 174   2.0000      -0.830142       -22.5893
 175   2.0000      -0.829567       -22.5737
 176   2.0000      -0.823864       -22.4185
 177   2.0000      -0.823041       -22.3961
 178   2.0000      -0.822614       -22.3845
 179   2.0000      -0.822178       -22.3726
 180   2.0000      -0.804181       -21.8829
 181   2.0000      -0.797699       -21.7065
 182   2.0000      -0.797665       -21.7056
 183   2.0000      -0.793739       -21.5987
 184   2.0000      -0.792049       -21.5528
 185   2.0000      -0.789370       -21.4799
 186   2.0000      -0.786127       -21.3916
 187   2.0000      -0.786124       -21.3915
 188   2.0000      -0.779477       -21.2107
 189   2.0000      -0.778842       -21.1934
 190   2.0000      -0.776386       -21.1265
 191   2.0000      -0.776363       -21.1259
 192   2.0000      -0.762968       -20.7614
 193   2.0000      -0.762657       -20.7530
 194   2.0000      -0.762171       -20.7397
 195   2.0000      -0.761421       -20.7193
 196   2.0000      -0.753919       -20.5152
 197   2.0000      -0.753414       -20.5014
 198   2.0000      -0.752727       -20.4828
 199   2.0000      -0.752128       -20.4664
 200   2.0000      -0.751943       -20.4614
 201   2.0000      -0.751787       -20.4572
 202   2.0000      -0.751121       -20.4391
 203   2.0000      -0.750930       -20.4338
 204   2.0000      -0.726772       -19.7765
 205   2.0000      -0.725623       -19.7452
 206   2.0000      -0.724384       -19.7115
 207   2.0000      -0.723816       -19.6960
 208   2.0000      -0.721886       -19.6435
 209   2.0000      -0.721802       -19.6412
 210   2.0000      -0.718525       -19.5521
 211   2.0000      -0.717528       -19.5249
 212   2.0000      -0.717307       -19.5189
 213   2.0000      -0.717025       -19.5112
 214   2.0000      -0.713281       -19.4094
 215   2.0000      -0.712585       -19.3904
 216   2.0000      -0.711608       -19.3638
 217   2.0000      -0.710168       -19.3247
 218   2.0000      -0.701084       -19.0775
 219   2.0000      -0.700857       -19.0713
 220   2.0000      -0.700846       -19.0710
 221   2.0000      -0.699875       -19.0446
 222   2.0000      -0.697604       -18.9828
 223   2.0000      -0.697440       -18.9783
 224   2.0000      -0.696173       -18.9438
 225   2.0000      -0.694898       -18.9091
 226   2.0000      -0.693233       -18.8638
 227   2.0000      -0.692243       -18.8369
 228   2.0000      -0.691321       -18.8118
 229   2.0000      -0.691019       -18.8036
 230   2.0000      -0.688267       -18.7287
 231   2.0000      -0.688198       -18.7268
 232   2.0000      -0.687657       -18.7121
 233   2.0000      -0.686559       -18.6822
 234   2.0000      -0.685005       -18.6399
 235   2.0000      -0.684367       -18.6226
 236   2.0000      -0.683939       -18.6109
 237   2.0000      -0.683052       -18.5868
 238   2.0000      -0.679747       -18.4969
 239   2.0000      -0.678014       -18.4497
 240   2.0000      -0.676258       -18.4019
 241   2.0000      -0.675880       -18.3916
 242   2.0000      -0.675515       -18.3817
 243   2.0000      -0.675241       -18.3742
 244   2.0000      -0.674698       -18.3595
 245   2.0000      -0.673901       -18.3378
 246   2.0000      -0.671413       -18.2701
 247   2.0000      -0.670272       -18.2390
 248   2.0000      -0.656385       -17.8611
 249   2.0000      -0.656008       -17.8509
 250   2.0000      -0.653588       -17.7850
 251   2.0000      -0.653136       -17.7727
 252   2.0000      -0.651264       -17.7218
 253   2.0000      -0.650874       -17.7112
 254   2.0000      -0.650858       -17.7107
 255   2.0000      -0.650803       -17.7092
 256   2.0000      -0.640258       -17.4223
 257   2.0000      -0.640220       -17.4213
 258   2.0000      -0.638996       -17.3880
 259   2.0000      -0.638989       -17.3878
 260   2.0000      -0.634594       -17.2682
 261   2.0000      -0.633252       -17.2317
 262   2.0000      -0.631653       -17.1882
 263   2.0000      -0.631384       -17.1808
 264   2.0000      -0.630426       -17.1548
 265   2.0000      -0.630200       -17.1486
 266   2.0000      -0.624945       -17.0056
 267   2.0000      -0.623487       -16.9659
 268   2.0000      -0.616939       -16.7878
 269   2.0000      -0.615410       -16.7462
 270   2.0000      -0.613220       -16.6866
 271   2.0000      -0.612209       -16.6591
 272   2.0000      -0.609666       -16.5898
 273   2.0000      -0.608568       -16.5600
 274   2.0000      -0.607568       -16.5328
 275   2.0000      -0.607469       -16.5301
 276   2.0000      -0.600183       -16.3318
 277   2.0000      -0.600139       -16.3306
 278   2.0000      -0.599557       -16.3148
 279   2.0000      -0.599537       -16.3142
 280   2.0000      -0.597033       -16.2461
 281   2.0000      -0.594234       -16.1699
 282   2.0000      -0.588143       -16.0042
 283   2.0000      -0.586770       -15.9668
 284   2.0000      -0.586477       -15.9588
 285   2.0000      -0.585965       -15.9449
 286   2.0000      -0.585779       -15.9399
 287   2.0000      -0.584804       -15.9133
 288   2.0000      -0.583677       -15.8827
 289   2.0000      -0.583440       -15.8762
 290   2.0000      -0.581838       -15.8326
 291   2.0000      -0.581338       -15.8190
 292   2.0000      -0.576209       -15.6794
 293   2.0000      -0.576159       -15.6781
 294   2.0000      -0.575342       -15.6559
 295   2.0000      -0.573815       -15.6143
 296   2.0000      -0.572008       -15.5651
 297   2.0000      -0.571419       -15.5491
 298   2.0000      -0.565847       -15.3975
 299   2.0000      -0.563136       -15.3237
 300   2.0000      -0.563091       -15.3225
 301   2.0000      -0.559070       -15.2131
 302   2.0000      -0.558599       -15.2002
 303   2.0000      -0.557427       -15.1684
 304   2.0000      -0.556079       -15.1317
 305   2.0000      -0.555849       -15.1254
 306   2.0000      -0.552519       -15.0348
 307   2.0000      -0.552224       -15.0268
 308   2.0000      -0.551462       -15.0060
 309   2.0000      -0.547651       -14.9023
 310   2.0000      -0.541892       -14.7456
 311   2.0000      -0.541191       -14.7266
 312   2.0000      -0.537681       -14.6311
 313   2.0000      -0.535819       -14.5804
 314   2.0000      -0.527528       -14.3548
 315   2.0000      -0.527361       -14.3502
 316   2.0000      -0.527050       -14.3418
 317   2.0000      -0.525722       -14.3056
 318   2.0000      -0.521346       -14.1865
 319   2.0000      -0.521239       -14.1836
 320   2.0000      -0.512665       -13.9503
 321   2.0000      -0.512339       -13.9415
 322   2.0000      -0.511942       -13.9306
 323   2.0000      -0.511847       -13.9281
 324   2.0000      -0.508450       -13.8356
 325   2.0000      -0.508251       -13.8302
 326   2.0000      -0.507045       -13.7974
 327   2.0000      -0.506127       -13.7724
 328   2.0000      -0.492374       -13.3982
 329   2.0000      -0.492240       -13.3945
 330   2.0000      -0.491881       -13.3848
 331   2.0000      -0.491528       -13.3752
 332   2.0000      -0.463410       -12.6100
 333   2.0000      -0.463079       -12.6010
 334   2.0000      -0.462583       -12.5875
 335   2.0000      -0.462018       -12.5721
 336   0.0000      -0.385893       -10.5007
 337   0.0000      -0.385805       -10.4983
 338   0.0000      -0.385716       -10.4959
 339   0.0000      -0.385562       -10.4917
 340   0.0000      -0.376217       -10.2374

MULLIKEN ATOMIC CHARGES
-----------------------
   0 Pd:   -0.041768
   1 Pd:   -0.041719
   2 C :   -0.003335
   3 C :    0.041572
   4 C :   -0.182723
   5 C :   -0.091799
   6 C :   -0.187770
   7 C :   -0.220538
   8 C :    0.171957
   9 C :   -0.222106
  10 N :   -0.081676
  11 C :   -0.169138
  12 C :    0.025185
  13 C :    0.170674
  14 H :    0.257401
  15 H :    0.229977
  16 H :    0.234445
  17 H :    0.198525
  18 H :    0.142843
  19 H :    0.176958
  20 C :   -0.162292
  21 C :   -0.125469
  22 C :   -0.167749
  23 C :   -0.136288
  24 C :   -0.025381
  25 C :   -0.144765
  26 H :    0.240949
  27 H :    0.225154
  28 H :    0.246037
  29 H :    0.216422
  30 C :    0.015475
  31 C :   -0.166353
  32 C :   -0.053096
  33 C :   -0.135030
  34 N :   -0.045314
  35 C :   -0.144702
  36 H :    0.264248
  37 H :    0.247668
  38 H :    0.187718
  39 H :    0.193301
  40 C :   -0.003073
  41 C :    0.041592
  42 C :   -0.182614
  43 C :   -0.091822
  44 C :   -0.187441
  45 C :   -0.220733
  46 C :    0.172319
  47 C :   -0.221710
  48 N :   -0.082460
  49 C :   -0.166376
  50 C :    0.026071
  51 C :    0.168908
  52 H :    0.257387
  53 H :    0.230023
  54 H :    0.234433
  55 H :    0.198251
  56 H :    0.141427
  57 H :    0.176386
  58 C :   -0.163396
  59 C :   -0.125574
  60 C :   -0.167644
  61 C :   -0.136432
  62 C :   -0.025663
  63 C :   -0.144321
  64 H :    0.240906
  65 H :    0.225113
  66 H :    0.245981
  67 H :    0.217305
  68 C :    0.016804
  69 C :   -0.166625
  70 C :   -0.052844
  71 C :   -0.136559
  72 N :   -0.045228
  73 C :   -0.144608
  74 H :    0.264254
  75 H :    0.247666
  76 H :    0.188463
  77 H :    0.192555
  78 C :   -0.003043
  79 C :    0.041746
  80 C :   -0.182772
  81 C :   -0.091847
  82 C :   -0.187456
  83 C :   -0.220627
  84 C :    0.172080
  85 C :   -0.222110
  86 N :   -0.081568
  87 C :   -0.166311
  88 C :    0.026065
  89 C :    0.169105
  90 H :    0.257426
  91 H :    0.230033
  92 H :    0.234421
  93 H :    0.198446
  94 H :    0.141029
  95 H :    0.176321
  96 C :   -0.163176
  97 C :   -0.125598
  98 C :   -0.167624
  99 C :   -0.136482
 100 C :   -0.025668
 101 C :   -0.144484
 102 H :    0.240925
 103 H :    0.225113
 104 H :    0.245954
 105 H :    0.217186
 106 C :    0.015719
 107 C :   -0.166455
 108 C :   -0.052771
 109 C :   -0.136529
 110 N :   -0.044999
 111 C :   -0.144059
 112 H :    0.264299
 113 H :    0.247652
 114 H :    0.188311
 115 H :    0.192818
 116 C :   -0.003689
 117 C :    0.041867
 118 C :   -0.182820
 119 C :   -0.091819
 120 C :   -0.187736
 121 C :   -0.220554
 122 C :    0.172221
 123 C :   -0.221833
 124 N :   -0.082532
 125 C :   -0.169280
 126 C :    0.024902
 127 C :    0.170879
 128 H :    0.257405
 129 H :    0.230016
 130 H :    0.234426
 131 H :    0.198303
 132 H :    0.143270
 133 H :    0.177104
 134 C :   -0.162414
 135 C :   -0.125391
 136 C :   -0.167752
 137 C :   -0.136363
 138 C :   -0.025060
 139 C :   -0.144748
 140 H :    0.240986
 141 H :    0.225132
 142 H :    0.246004
 143 H :    0.216428
 144 C :    0.016394
 145 C :   -0.166505
 146 C :   -0.053157
 147 C :   -0.135215
 148 N :   -0.045463
 149 C :   -0.145154
 150 H :    0.264244
 151 H :    0.247646
 152 H :    0.187869
 153 H :    0.193106
Sum of atomic charges:    4.0000000

LOEWDIN ATOMIC CHARGES
----------------------
   0 Pd:   -0.066227
   1 Pd:   -0.066229
   2 C :   -0.000838
   3 C :   -0.036180
   4 C :   -0.040231
   5 C :   -0.076550
   6 C :   -0.104277
   7 C :   -0.119266
   8 C :   -0.040694
   9 C :   -0.001093
  10 N :   -0.085236
  11 C :   -0.067381
  12 C :   -0.114681
  13 C :   -0.003083
  14 H :    0.199893
  15 H :    0.196664
  16 H :    0.188238
  17 H :    0.188684
  18 H :    0.173171
  19 H :    0.192244
  20 C :   -0.058255
  21 C :   -0.094072
  22 C :   -0.116124
  23 C :   -0.117838
  24 C :   -0.061322
  25 C :   -0.125469
  26 H :    0.193845
  27 H :    0.192595
  28 H :    0.185886
  29 H :    0.169191
  30 C :   -0.025817
  31 C :   -0.074803
  32 C :   -0.117124
  33 C :   -0.036316
  34 N :   -0.076199
  35 C :   -0.028231
  36 H :    0.201984
  37 H :    0.202740
  38 H :    0.186105
  39 H :    0.182931
  40 C :   -0.000854
  41 C :   -0.036157
  42 C :   -0.040199
  43 C :   -0.076555
  44 C :   -0.104240
  45 C :   -0.119250
  46 C :   -0.040732
  47 C :   -0.001055
  48 N :   -0.085326
  49 C :   -0.067347
  50 C :   -0.114646
  51 C :   -0.003069
  52 H :    0.199910
  53 H :    0.196682
  54 H :    0.188261
  55 H :    0.188688
  56 H :    0.173142
  57 H :    0.192211
  58 C :   -0.058262
  59 C :   -0.094117
  60 C :   -0.116171
  61 C :   -0.117901
  62 C :   -0.061378
  63 C :   -0.125481
  64 H :    0.193817
  65 H :    0.192576
  66 H :    0.185875
  67 H :    0.169354
  68 C :   -0.025824
  69 C :   -0.074773
  70 C :   -0.117131
  71 C :   -0.036429
  72 N :   -0.076218
  73 C :   -0.028121
  74 H :    0.202012
  75 H :    0.202755
  76 H :    0.186157
  77 H :    0.182902
  78 C :   -0.000866
  79 C :   -0.036138
  80 C :   -0.040206
  81 C :   -0.076552
  82 C :   -0.104236
  83 C :   -0.119251
  84 C :   -0.040728
  85 C :   -0.001107
  86 N :   -0.085278
  87 C :   -0.067301
  88 C :   -0.114661
  89 C :   -0.003076
  90 H :    0.199912
  91 H :    0.196676
  92 H :    0.188256
  93 H :    0.188690
  94 H :    0.173115
  95 H :    0.192214
  96 C :   -0.058263
  97 C :   -0.094097
  98 C :   -0.116195
  99 C :   -0.117873
 100 C :   -0.061386
 101 C :   -0.125462
 102 H :    0.193819
 103 H :    0.192580
 104 H :    0.185871
 105 H :    0.169342
 106 C :   -0.025796
 107 C :   -0.074805
 108 C :   -0.117120
 109 C :   -0.036447
 110 N :   -0.076190
 111 C :   -0.028144
 112 H :    0.202010
 113 H :    0.202751
 114 H :    0.186159
 115 H :    0.182891
 116 C :   -0.000854
 117 C :   -0.036180
 118 C :   -0.040200
 119 C :   -0.076566
 120 C :   -0.104258
 121 C :   -0.119274
 122 C :   -0.040699
 123 C :   -0.001046
 124 N :   -0.085267
 125 C :   -0.067463
 126 C :   -0.114637
 127 C :   -0.003086
 128 H :    0.199891
 129 H :    0.196661
 130 H :    0.188239
 131 H :    0.188685
 132 H :    0.173200
 133 H :    0.192257
 134 C :   -0.058240
 135 C :   -0.094062
 136 C :   -0.116122
 137 C :   -0.117835
 138 C :   -0.061333
 139 C :   -0.125465
 140 H :    0.193847
 141 H :    0.192598
 142 H :    0.185883
 143 H :    0.169186
 144 C :   -0.025818
 145 C :   -0.074814
 146 C :   -0.117120
 147 C :   -0.036346
 148 N :   -0.076195
 149 C :   -0.028199
 150 H :    0.201983
 151 H :    0.202747
 152 H :    0.186110
 153 H :    0.182947

  Mayer bond orders larger than 0.100000
B(  0-Pd, 34-N ) :   0.5366 B(  0-Pd, 72-N ) :   0.5364 B(  0-Pd, 86-N ) :   0.5347
B(  0-Pd,124-N ) :   0.5347 B(  1-Pd, 10-N ) :   0.5346 B(  1-Pd, 48-N ) :   0.5349
B(  1-Pd,110-N ) :   0.5364 B(  1-Pd,148-N ) :   0.5367 B(  2-C ,  3-C ) :   1.8707
B(  2-C ,  4-C ) :  -0.2885 B(  2-C , 20-C ) :   1.5100 B(  3-C ,  4-C ) :   1.4519
B(  3-C , 13-C ) :  -0.1959 B(  3-C , 20-C ) :  -0.3889 B(  4-C ,  5-C ) :   1.5171
B(  4-C , 12-C ) :  -0.1263 B(  4-C , 13-C ) :   1.0541 B(  5-C ,  6-C ) :   1.4101
B(  5-C , 14-H ) :   0.8582 B(  6-C ,  7-C ) :   1.6442 B(  6-C , 15-H ) :   0.8707
B(  7-C ,  8-C ) :   1.2917 B(  7-C , 16-H ) :   0.8644 B(  8-C ,  9-C ) :   1.2526
B(  8-C , 13-C ) :   1.0770 B(  9-C , 10-N ) :   1.4708 B(  9-C , 13-C ) :  -0.1186
B(  9-C , 17-H ) :   0.9182 B( 10-N , 11-C ) :   1.2831 B( 11-C , 12-C ) :   1.4590
B( 11-C , 13-C ) :   0.1023 B( 11-C , 18-H ) :   0.9336 B( 12-C , 13-C ) :   1.4119
B( 12-C , 19-H ) :   0.8793 B( 20-C , 21-C ) :   1.3512 B( 20-C , 25-C ) :   1.3980
B( 21-C , 22-C ) :   1.5422 B( 21-C , 26-H ) :   0.8862 B( 22-C , 23-C ) :   1.5784
B( 22-C , 27-H ) :   0.8700 B( 23-C , 24-C ) :   1.3558 B( 23-C , 28-H ) :   0.8410
B( 24-C , 25-C ) :   1.3260 B( 24-C , 30-C ) :   0.9127 B( 25-C , 29-H ) :   0.8837
B( 30-C , 31-C ) :   1.4413 B( 30-C , 35-C ) :   1.3851 B( 31-C , 32-C ) :   1.5142
B( 31-C , 36-H ) :   0.8714 B( 32-C , 33-C ) :   1.4496 B( 32-C , 37-H ) :   0.8654
B( 33-C , 34-N ) :   1.3534 B( 33-C , 38-H ) :   0.9238 B( 34-N , 35-C ) :   1.3769
B( 35-C , 39-H ) :   0.9143 B( 40-C , 41-C ) :   1.8710 B( 40-C , 42-C ) :  -0.2881
B( 40-C , 58-C ) :   1.5111 B( 41-C , 42-C ) :   1.4515 B( 41-C , 51-C ) :  -0.1953
B( 41-C , 58-C ) :  -0.3885 B( 42-C , 43-C ) :   1.5170 B( 42-C , 50-C ) :  -0.1259
B( 42-C , 51-C ) :   1.0553 B( 43-C , 44-C ) :   1.4100 B( 43-C , 52-H ) :   0.8582
B( 44-C , 45-C ) :   1.6443 B( 44-C , 53-H ) :   0.8707 B( 45-C , 46-C ) :   1.2916
B( 45-C , 54-H ) :   0.8644 B( 46-C , 47-C ) :   1.2521 B( 46-C , 51-C ) :   1.0774
B( 47-C , 48-N ) :   1.4712 B( 47-C , 51-C ) :  -0.1187 B( 47-C , 55-H ) :   0.9181
B( 48-N , 49-C ) :   1.2832 B( 49-C , 50-C ) :   1.4590 B( 49-C , 51-C ) :   0.1032
B( 49-C , 56-H ) :   0.9335 B( 50-C , 51-C ) :   1.4116 B( 50-C , 57-H ) :   0.8792
B( 58-C , 59-C ) :   1.3521 B( 58-C , 63-C ) :   1.3989 B( 59-C , 60-C ) :   1.5422
B( 59-C , 64-H ) :   0.8861 B( 60-C , 61-C ) :   1.5783 B( 60-C , 65-H ) :   0.8700
B( 61-C , 62-C ) :   1.3564 B( 61-C , 66-H ) :   0.8411 B( 62-C , 63-C ) :   1.3259
B( 62-C , 68-C ) :   0.9121 B( 63-C , 67-H ) :   0.8830 B( 68-C , 69-C ) :   1.4416
B( 68-C , 73-C ) :   1.3833 B( 69-C , 70-C ) :   1.5142 B( 69-C , 74-H ) :   0.8715
B( 70-C , 71-C ) :   1.4498 B( 70-C , 75-H ) :   0.8655 B( 71-C , 72-N ) :   1.3533
B( 71-C , 76-H ) :   0.9234 B( 72-N , 73-C ) :   1.3770 B( 73-C , 77-H ) :   0.9153
B( 78-C , 79-C ) :   1.8710 B( 78-C , 80-C ) :  -0.2881 B( 78-C , 96-C ) :   1.5108
B( 79-C , 80-C ) :   1.4513 B( 79-C , 89-C ) :  -0.1952 B( 79-C , 96-C ) :  -0.3885
B( 80-C , 81-C ) :   1.5170 B( 80-C , 88-C ) :  -0.1258 B( 80-C , 89-C ) :   1.0554
B( 81-C , 82-C ) :   1.4101 B( 81-C , 90-H ) :   0.8581 B( 82-C , 83-C ) :   1.6442
B( 82-C , 91-H ) :   0.8707 B( 83-C , 84-C ) :   1.2918 B( 83-C , 92-H ) :   0.8644
B( 84-C , 85-C ) :   1.2525 B( 84-C , 89-C ) :   1.0775 B( 85-C , 86-N ) :   1.4713
B( 85-C , 89-C ) :  -0.1187 B( 85-C , 93-H ) :   0.9179 B( 86-N , 87-C ) :   1.2831
B( 87-C , 88-C ) :   1.4588 B( 87-C , 89-C ) :   0.1031 B( 87-C , 94-H ) :   0.9338
B( 88-C , 89-C ) :   1.4115 B( 88-C , 95-H ) :   0.8792 B( 96-C , 97-C ) :   1.3520
B( 96-C ,101-C ) :   1.3985 B( 97-C , 98-C ) :   1.5423 B( 97-C ,102-H ) :   0.8861
B( 98-C , 99-C ) :   1.5784 B( 98-C ,103-H ) :   0.8700 B( 99-C ,100-C ) :   1.3562
B( 99-C ,104-H ) :   0.8411 B(100-C ,101-C ) :   1.3259 B(100-C ,106-C ) :   0.9123
B(101-C ,105-H ) :   0.8831 B(106-C ,107-C ) :   1.4417 B(106-C ,111-C ) :   1.3847
B(107-C ,108-C ) :   1.5143 B(107-C ,112-H ) :   0.8714 B(108-C ,109-C ) :   1.4494
B(108-C ,113-H ) :   0.8655 B(109-C ,110-N ) :   1.3534 B(109-C ,114-H ) :   0.9237
B(110-N ,111-C ) :   1.3769 B(111-C ,115-H ) :   0.9146 B(116-C ,117-C ) :   1.8707
B(116-C ,118-C ) :  -0.2885 B(116-C ,134-C ) :   1.5105 B(117-C ,118-C ) :   1.4522
B(117-C ,127-C ) :  -0.1959 B(117-C ,134-C ) :  -0.3891 B(118-C ,119-C ) :   1.5171
B(118-C ,126-C ) :  -0.1262 B(118-C ,127-C ) :   1.0541 B(119-C ,120-C ) :   1.4101
B(119-C ,128-H ) :   0.8582 B(120-C ,121-C ) :   1.6442 B(120-C ,129-H ) :   0.8707
B(121-C ,122-C ) :   1.2917 B(121-C ,130-H ) :   0.8644 B(122-C ,123-C ) :   1.2522
B(122-C ,127-C ) :   1.0769 B(123-C ,124-N ) :   1.4707 B(123-C ,127-C ) :  -0.1187
B(123-C ,131-H ) :   0.9184 B(124-N ,125-C ) :   1.2832 B(125-C ,126-C ) :   1.4594
B(125-C ,127-C ) :   0.1023 B(125-C ,132-H ) :   0.9334 B(126-C ,127-C ) :   1.4116
B(126-C ,133-H ) :   0.8794 B(134-C ,135-C ) :   1.3515 B(134-C ,139-C ) :   1.3982
B(135-C ,136-C ) :   1.5420 B(135-C ,140-H ) :   0.8862 B(136-C ,137-C ) :   1.5787
B(136-C ,141-H ) :   0.8700 B(137-C ,138-C ) :   1.3557 B(137-C ,142-H ) :   0.8409
B(138-C ,139-C ) :   1.3260 B(138-C ,144-C ) :   0.9126 B(139-C ,143-H ) :   0.8837
B(144-C ,145-C ) :   1.4412 B(144-C ,149-C ) :   1.3837 B(145-C ,146-C ) :   1.5143
B(145-C ,150-H ) :   0.8715 B(146-C ,147-C ) :   1.4501 B(146-C ,151-H ) :   0.8654
B(147-C ,148-N ) :   1.3532 B(147-C ,152-H ) :   0.9236 B(148-N ,149-C ) :   1.3772
B(149-C ,153-H ) :   0.9149

Dispersion correction           -0.586622899
FINAL SINGLE POINT ENERGY     -4078.544829134221

DIPOLE MOMENT
-------------
                                X             Y             Z
Electronic contribution:      0.10052      -0.01906      -0.18388
Nuclear contribution   :     -0.09925       0.01924       0.18231
                        -----------------------------------------
Total Dipole Moment    :      0.00127       0.00018      -0.00157
                        -----------------------------------------
Magnitude (a.u.)       :      0.00203
Magnitude (Debye)      :      0.00515

Rotational constants in cm-1:     0.000552     0.000433     0.000394
Rotational constants in MHz :    16.547852    12.969529    11.796969

                             ****ORCA TERMINATED NORMALLY****
TOTAL RUN TIME: 0 days 0 hours 8 minutes 59 seconds 494 msec
