                         Program Version 4.2.1 -  RELEASE  -
|  1> ! DFT SP B97-3c TightSCF printbasis  Grid6 NOFINALGRID SlowConv
|  2>
|  3> %base "_s_5d3_d_B97-3c"
|  4> %maxcore 3000
|  5> %scf
|  6>    MaxIter 2000
|  7> end
|  8> %pal
|  9>    nprocs 32
| 10> end
| 11>
| 12> * xyzfile 4 1 s_5d3_d.xyz
| 13>
| 14>                          ****END OF INPUT****

CARTESIAN COORDINATES (ANGSTROEM)
---------------------------------
  Pd    -0.481200    5.245300    0.060600
  Pd    -0.575600   -5.553200   -0.342500
  C      6.423600   -2.255900   -0.150100
  C      6.039200   -3.401100   -0.200400
  C      5.544900   -4.718600   -0.258400
  C      6.399600   -5.806000   -0.297400
  C      5.900600   -7.112700   -0.355000
  C      4.550800   -7.354100   -0.374600
  C      3.645900   -6.272100   -0.336200
  C      2.248800   -6.452500   -0.353900
  N      1.404300   -5.446300   -0.318600
  C      1.864900   -4.169000   -0.262300
  C      3.200100   -3.886400   -0.240800
  C      4.138800   -4.938000   -0.277500
  H      7.466600   -5.642800   -0.283100
  H      6.597700   -7.936000   -0.384200
  H      4.173200   -8.363200   -0.419000
  H      1.830800   -7.453700   -0.398500
  H      1.104100   -3.386000   -0.235400
  H      3.556600   -2.870000   -0.196100
  C      6.860800   -0.915600   -0.091400
  C      8.227100   -0.618200   -0.063800
  C      8.645900    0.699400   -0.005800
  C      7.723500    1.730200    0.025500
  C      6.355000    1.440900   -0.001800
  C      5.924900    0.117000   -0.060300
  H      8.949900   -1.419900   -0.088000
  H      9.701900    0.924400    0.015400
  H      8.055300    2.756400    0.070800
  H      4.869800   -0.105800   -0.081500
  C      5.416100    2.493000    0.030000
  C      4.605600    3.389400    0.056700
  C      3.725500    4.487900    0.090900
  C      4.225600    5.796000    0.151800
  C      3.337200    6.856000    0.183700
  C      1.976700    6.596700    0.154500
  N      1.502400    5.346500    0.096300
  C      2.338100    4.313000    0.065000
  H      5.291100    5.963200    0.173100
  H      3.694800    7.871900    0.230600
  H      1.241700    7.402700    0.177800
  H      1.896900    3.322100    0.018100
  C     -0.616300    1.624900    6.900200
  C     -0.604100    2.787400    6.568400
  C     -0.589000    4.127500    6.135400
  C     -0.597600    5.175200    7.039100
  C     -0.582200    6.504600    6.600900
  C     -0.558100    6.808300    5.263900
  C     -0.548500    5.768400    4.310100
  C     -0.523700    6.013400    2.923100
  N     -0.514800    5.046400    2.033200
  C     -0.529600    3.748100    2.434400
  C     -0.553800    3.403900    3.755000
  C     -0.564000    4.411800    4.741000
  H     -0.616400    4.962600    8.097300
  H     -0.589700    7.295500    7.335200
  H     -0.546400    7.834700    4.933200
  H     -0.511300    7.033600    2.551700
  H     -0.520900    3.000400    1.638500
  H     -0.565200    2.371200    4.064200
  C     -0.629900    0.264700    7.275200
  C     -0.648800   -0.096100    8.626300
  C     -0.661600   -1.432800    8.983900
  C     -0.655900   -2.420500    8.015100
  C     -0.637100   -2.067800    6.661300
  C     -0.624200   -0.724200    6.292700
  H     -0.653200    0.671800    9.385200
  H     -0.676100   -1.706700   10.028400
  H     -0.665900   -3.461800    8.299200
  H     -0.609800   -0.452500    5.249100
  C     -0.631100   -3.076000    5.675100
  C     -0.625700   -3.934800    4.824400
  C     -0.620500   -4.992100    3.894600
  C     -0.633500   -6.323200    4.333800
  C     -0.628200   -7.341600    3.397500
  C     -0.610200   -7.019100    2.050400
  N     -0.597700   -5.747000    1.634300
  C     -0.602400   -4.752700    2.516700
  H     -0.647600   -6.540000    5.390500
  H     -0.638000   -8.373900    3.707900
  H     -0.605400   -7.790600    1.279100
  H     -0.591800   -3.741400    2.121800
  C     -7.516100   -2.128800   -0.274100
  C     -7.151600   -3.280900   -0.311000
  C     -6.680400   -4.607500   -0.353400
  C     -7.554000   -5.679600   -0.394600
  C     -7.078000   -6.995500   -0.436600
  C     -5.732600   -7.261100   -0.438000
  C     -4.808900   -6.195300   -0.396700
  C     -3.415200   -6.400900   -0.395400
  N     -2.553100   -5.409800   -0.356800
  C     -2.991300   -4.124100   -0.316100
  C     -4.321300   -3.817400   -0.313600
  C     -5.278300   -4.852200   -0.353900
  H     -8.618000   -5.497200   -0.394300
  H     -7.789500   -7.806400   -0.468100
  H     -5.372800   -8.277200   -0.470400
  H     -3.014900   -7.409800   -0.427000
  H     -2.216800   -3.354600   -0.286000
  H     -4.659900   -2.794400   -0.281100
  C     -7.929800   -0.780500   -0.230900
  C     -9.290800   -0.458200   -0.230600
  C     -9.686400    0.867200   -0.188300
  C     -8.746200    1.881300   -0.146100
  C     -7.382800    1.567000   -0.146000
  C     -6.975900    0.235200   -0.188400
  H    -10.027400   -1.246700   -0.263500
  H    -10.738400    1.111400   -0.188300
  H     -9.059900    2.913500   -0.113200
  H     -5.924900   -0.006800   -0.188400
  C     -6.425700    2.602100   -0.102600
  C     -5.599600    3.483900   -0.065300
  C     -4.700300    4.566300   -0.019900
  C     -5.177300    5.883800    0.017500
  C     -4.270500    6.927500    0.062700
  C     -2.914700    6.643000    0.069900
  N     -2.462500    5.383800    0.034000
  C     -3.316200    4.365600   -0.009900
  H     -6.239800    6.070700    0.011000
  H     -4.610200    7.950200    0.092000
  H     -2.165700    7.435500    0.105200
  H     -2.892600    3.366400   -0.037800
  C     -0.368000    2.143400   -7.029400
  C     -0.364500    3.278100   -6.611900
  C     -0.361200    4.582300   -6.080200
  C     -0.328600    5.694100   -6.903000
  C     -0.325200    6.987200   -6.366900
  C     -0.353900    7.190700   -5.011100
  C     -0.387500    6.082900   -4.137700
  C     -0.417100    6.224100   -2.736400
  N     -0.448000    5.193800   -1.921200
  C     -0.452900    3.929000   -2.418300
  C     -0.425800    3.683800   -3.760800
  C     -0.391600    4.762200   -4.668600
  H     -0.305500    5.560800   -7.974000
  H     -0.299400    7.830400   -7.040000
  H     -0.351000    8.189600   -4.604700
  H     -0.414700    7.213900   -2.289900
  H     -0.480000    3.124300   -1.680400
  H     -0.429700    2.677000   -4.146200
  C     -0.372800    0.814900   -7.504500
  C     -0.344800    0.555300   -8.878500
  C     -0.349900   -0.751200   -9.334600
  C     -0.382800   -1.808000   -8.442200
  C     -0.410700   -1.556600   -7.066200
  C     -0.405600   -0.244100   -6.598600
  H     -0.319200    1.377300   -9.578000
  H     -0.328200   -0.946900  -10.396500
  H     -0.386700   -2.825200   -8.803100
  H     -0.427200   -0.050600   -5.537800
  C     -0.444200   -2.635100   -6.158000
  C     -0.472900   -3.554700   -5.373800
  C     -0.505100   -4.678100   -4.525600
  C     -0.516900   -5.972600   -5.063200
  C     -0.547800   -7.057800   -4.205700
  C     -0.565700   -6.836500   -2.838300
  N     -0.554500   -5.599100   -2.328300
  C     -0.525400   -4.541900   -3.133800
  H     -0.501900   -6.110000   -6.133100
  H     -0.557500   -8.064000   -4.592400
  H     -0.589700   -7.663300   -2.126900
  H     -0.517700   -3.563000   -2.664400

 Total Charge           Charge          ....    4
 Multiplicity           Mult            ....    1
 Number of Electrons    NEL             ....  720
 Basis Dimension        Dim             .... 2210

ORBITAL ENERGIES
----------------

  NO   OCC          E(Eh)            E(eV)
   0   2.0000     -14.335471      -390.0880
   1   2.0000     -14.335465      -390.0878
   2   2.0000     -14.335457      -390.0876
   3   2.0000     -14.335457      -390.0876
   4   2.0000     -14.328798      -389.9064
   5   2.0000     -14.328798      -389.9064
   6   2.0000     -14.328790      -389.9062
   7   2.0000     -14.328789      -389.9062
   8   2.0000     -10.229702      -278.3644
   9   2.0000     -10.229683      -278.3638
  10   2.0000     -10.229666      -278.3634
  11   2.0000     -10.229648      -278.3629
  12   2.0000     -10.228013      -278.3184
  13   2.0000     -10.227993      -278.3178
  14   2.0000     -10.227991      -278.3178
  15   2.0000     -10.227989      -278.3177
  16   2.0000     -10.225076      -278.2385
  17   2.0000     -10.225045      -278.2376
  18   2.0000     -10.225041      -278.2375
  19   2.0000     -10.225027      -278.2371
  20   2.0000     -10.218923      -278.0710
  21   2.0000     -10.218912      -278.0707
  22   2.0000     -10.218904      -278.0705
  23   2.0000     -10.218884      -278.0700
  24   2.0000     -10.212318      -277.8913
  25   2.0000     -10.212294      -277.8907
  26   2.0000     -10.212285      -277.8904
  27   2.0000     -10.212254      -277.8896
  28   2.0000     -10.192667      -277.3566
  29   2.0000     -10.192639      -277.3558
  30   2.0000     -10.192638      -277.3558
  31   2.0000     -10.192597      -277.3547
  32   2.0000     -10.190943      -277.3097
  33   2.0000     -10.190935      -277.3094
  34   2.0000     -10.190922      -277.3091
  35   2.0000     -10.190902      -277.3085
  36   2.0000     -10.189275      -277.2643
  37   2.0000     -10.189263      -277.2639
  38   2.0000     -10.189250      -277.2636
  39   2.0000     -10.189231      -277.2631
  40   2.0000     -10.187958      -277.2284
  41   2.0000     -10.187929      -277.2277
  42   2.0000     -10.187927      -277.2276
  43   2.0000     -10.187902      -277.2269
  44   2.0000     -10.185327      -277.1568
  45   2.0000     -10.185308      -277.1563
  46   2.0000     -10.185304      -277.1562
  47   2.0000     -10.185283      -277.1556
  48   2.0000     -10.184332      -277.1298
  49   2.0000     -10.184322      -277.1295
  50   2.0000     -10.184304      -277.1290
  51   2.0000     -10.184288      -277.1286
  52   2.0000     -10.167550      -276.6731
  53   2.0000     -10.167532      -276.6726
  54   2.0000     -10.167518      -276.6722
  55   2.0000     -10.167500      -276.6717
  56   2.0000     -10.164933      -276.6019
  57   2.0000     -10.164917      -276.6015
  58   2.0000     -10.164894      -276.6008
  59   2.0000     -10.164883      -276.6005
  60   2.0000     -10.163981      -276.5760
  61   2.0000     -10.163972      -276.5757
  62   2.0000     -10.163960      -276.5754
  63   2.0000     -10.163938      -276.5748
  64   2.0000     -10.162242      -276.5287
  65   2.0000     -10.162218      -276.5280
  66   2.0000     -10.162193      -276.5273
  67   2.0000     -10.162191      -276.5273
  68   2.0000     -10.161915      -276.5198
  69   2.0000     -10.161901      -276.5194
  70   2.0000     -10.161897      -276.5193
  71   2.0000     -10.161878      -276.5187
  72   2.0000     -10.157545      -276.4009
  73   2.0000     -10.157523      -276.4003
  74   2.0000     -10.157517      -276.4001
  75   2.0000     -10.157510      -276.3999
  76   2.0000     -10.153862      -276.3006
  77   2.0000     -10.153848      -276.3002
  78   2.0000     -10.153836      -276.2999
  79   2.0000     -10.153805      -276.2991
  80   2.0000     -10.153395      -276.2879
  81   2.0000     -10.153388      -276.2877
  82   2.0000     -10.153384      -276.2876
  83   2.0000     -10.153353      -276.2868
  84   2.0000     -10.145469      -276.0722
  85   2.0000     -10.145441      -276.0715
  86   2.0000     -10.145437      -276.0714
  87   2.0000     -10.145390      -276.0701
  88   2.0000     -10.143978      -276.0317
  89   2.0000     -10.143954      -276.0310
  90   2.0000     -10.143937      -276.0305
  91   2.0000     -10.143913      -276.0299
  92   2.0000     -10.142351      -275.9874
  93   2.0000     -10.142327      -275.9867
  94   2.0000     -10.142322      -275.9866
  95   2.0000     -10.142292      -275.9858
  96   2.0000     -10.140940      -275.9490
  97   2.0000     -10.140918      -275.9484
  98   2.0000     -10.140911      -275.9482
  99   2.0000     -10.140866      -275.9470
 100   2.0000     -10.133789      -275.7544
 101   2.0000     -10.133765      -275.7538
 102   2.0000     -10.133758      -275.7536
 103   2.0000     -10.133731      -275.7529
 104   2.0000      -3.643605       -99.1475
 105   2.0000      -3.643601       -99.1474
 106   2.0000      -2.374181       -64.6048
 107   2.0000      -2.374179       -64.6047
 108   2.0000      -2.374118       -64.6030
 109   2.0000      -2.374113       -64.6029
 110   2.0000      -2.332039       -63.4580
 111   2.0000      -2.332035       -63.4579
 112   2.0000      -1.197232       -32.5783
 113   2.0000      -1.197229       -32.5783
 114   2.0000      -1.192291       -32.4439
 115   2.0000      -1.192290       -32.4439
 116   2.0000      -1.187903       -32.3245
 117   2.0000      -1.187892       -32.3242
 118   2.0000      -1.186373       -32.2828
 119   2.0000      -1.186359       -32.2825
 120   2.0000      -1.071535       -29.1580
 121   2.0000      -1.071530       -29.1578
 122   2.0000      -1.070912       -29.1410
 123   2.0000      -1.070908       -29.1409
 124   2.0000      -1.049964       -28.5710
 125   2.0000      -1.049916       -28.5697
 126   2.0000      -1.049803       -28.5666
 127   2.0000      -1.049790       -28.5662
 128   2.0000      -1.043223       -28.3875
 129   2.0000      -1.043163       -28.3859
 130   2.0000      -1.041808       -28.3490
 131   2.0000      -1.041801       -28.3489
 132   2.0000      -1.011572       -27.5263
 133   2.0000      -1.011449       -27.5229
 134   2.0000      -1.011383       -27.5211
 135   2.0000      -1.011376       -27.5210
 136   2.0000      -1.007454       -27.4142
 137   2.0000      -1.007453       -27.4142
 138   2.0000      -1.007354       -27.4115
 139   2.0000      -1.007169       -27.4065
 140   2.0000      -0.991653       -26.9843
 141   2.0000      -0.991593       -26.9826
 142   2.0000      -0.990422       -26.9508
 143   2.0000      -0.990411       -26.9504
 144   2.0000      -0.980840       -26.6900
 145   2.0000      -0.980459       -26.6796
 146   2.0000      -0.980445       -26.6793
 147   2.0000      -0.980414       -26.6784
 148   2.0000      -0.967082       -26.3156
 149   2.0000      -0.966836       -26.3089
 150   2.0000      -0.966826       -26.3087
 151   2.0000      -0.966272       -26.2936
 152   2.0000      -0.950605       -25.8673
 153   2.0000      -0.950363       -25.8607
 154   2.0000      -0.950358       -25.8606
 155   2.0000      -0.950102       -25.8536
 156   2.0000      -0.928619       -25.2690
 157   2.0000      -0.928592       -25.2683
 158   2.0000      -0.928573       -25.2678
 159   2.0000      -0.928462       -25.2647
 160   2.0000      -0.909299       -24.7433
 161   2.0000      -0.909145       -24.7391
 162   2.0000      -0.909142       -24.7390
 163   2.0000      -0.908883       -24.7320
 164   2.0000      -0.884158       -24.0592
 165   2.0000      -0.882994       -24.0275
 166   2.0000      -0.882911       -24.0252
 167   2.0000      -0.882898       -24.0249
 168   2.0000      -0.881106       -23.9761
 169   2.0000      -0.881092       -23.9757
 170   2.0000      -0.880878       -23.9699
 171   2.0000      -0.879947       -23.9446
 172   2.0000      -0.870575       -23.6895
 173   2.0000      -0.870523       -23.6881
 174   2.0000      -0.867439       -23.6042
 175   2.0000      -0.867438       -23.6042
 176   2.0000      -0.857530       -23.3346
 177   2.0000      -0.857519       -23.3343
 178   2.0000      -0.855702       -23.2848
 179   2.0000      -0.855691       -23.2845
 180   2.0000      -0.841655       -22.9026
 181   2.0000      -0.841645       -22.9023
 182   2.0000      -0.841494       -22.8982
 183   2.0000      -0.841483       -22.8979
 184   2.0000      -0.820416       -22.3246
 185   2.0000      -0.820178       -22.3182
 186   2.0000      -0.819340       -22.2954
 187   2.0000      -0.819328       -22.2950
 188   2.0000      -0.811362       -22.0783
 189   2.0000      -0.811066       -22.0702
 190   2.0000      -0.810600       -22.0575
 191   2.0000      -0.810591       -22.0573
 192   2.0000      -0.795425       -21.6446
 193   2.0000      -0.794701       -21.6249
 194   2.0000      -0.784524       -21.3480
 195   2.0000      -0.784523       -21.3480
 196   2.0000      -0.778007       -21.1706
 197   2.0000      -0.776196       -21.1214
 198   2.0000      -0.771173       -20.9847
 199   2.0000      -0.771169       -20.9846
 200   2.0000      -0.761325       -20.7167
 201   2.0000      -0.760549       -20.6956
 202   2.0000      -0.759042       -20.6546
 203   2.0000      -0.759038       -20.6545
 204   2.0000      -0.754896       -20.5418
 205   2.0000      -0.754148       -20.5214
 206   2.0000      -0.754142       -20.5213
 207   2.0000      -0.753950       -20.5160
 208   2.0000      -0.747638       -20.3443
 209   2.0000      -0.747354       -20.3365
 210   2.0000      -0.744130       -20.2488
 211   2.0000      -0.744117       -20.2485
 212   2.0000      -0.742891       -20.2151
 213   2.0000      -0.742668       -20.2090
 214   2.0000      -0.737779       -20.0760
 215   2.0000      -0.737770       -20.0757
 216   2.0000      -0.732201       -19.9242
 217   2.0000      -0.731923       -19.9166
 218   2.0000      -0.730681       -19.8828
 219   2.0000      -0.730676       -19.8827
 220   2.0000      -0.706489       -19.2245
 221   2.0000      -0.705606       -19.2005
 222   2.0000      -0.704133       -19.1604
 223   2.0000      -0.704131       -19.1604
 224   2.0000      -0.700431       -19.0597
 225   2.0000      -0.699665       -19.0388
 226   2.0000      -0.699162       -19.0252
 227   2.0000      -0.699159       -19.0251
 228   2.0000      -0.697080       -18.9685
 229   2.0000      -0.696990       -18.9661
 230   2.0000      -0.693110       -18.8605
 231   2.0000      -0.693104       -18.8603
 232   2.0000      -0.687599       -18.7105
 233   2.0000      -0.687576       -18.7099
 234   2.0000      -0.687245       -18.7009
 235   2.0000      -0.687243       -18.7008
 236   2.0000      -0.682331       -18.5672
 237   2.0000      -0.681847       -18.5540
 238   2.0000      -0.681839       -18.5538
 239   2.0000      -0.681122       -18.5343
 240   2.0000      -0.676914       -18.4198
 241   2.0000      -0.675886       -18.3918
 242   2.0000      -0.675838       -18.3905
 243   2.0000      -0.675791       -18.3892
 244   2.0000      -0.675121       -18.3710
 245   2.0000      -0.675032       -18.3686
 246   2.0000      -0.671757       -18.2794
 247   2.0000      -0.671747       -18.2792
 248   2.0000      -0.670725       -18.2513
 249   2.0000      -0.670689       -18.2504
 250   2.0000      -0.669221       -18.2104
 251   2.0000      -0.669212       -18.2102
 252   2.0000      -0.665882       -18.1196
 253   2.0000      -0.665752       -18.1160
 254   2.0000      -0.661351       -17.9963
 255   2.0000      -0.661346       -17.9962
 256   2.0000      -0.658545       -17.9199
 257   2.0000      -0.658525       -17.9194
 258   2.0000      -0.655848       -17.8465
 259   2.0000      -0.655847       -17.8465
 260   2.0000      -0.654995       -17.8233
 261   2.0000      -0.654837       -17.8190
 262   2.0000      -0.654138       -17.8000
 263   2.0000      -0.654126       -17.7997
 264   2.0000      -0.645694       -17.5702
 265   2.0000      -0.645687       -17.5700
 266   2.0000      -0.633156       -17.2290
 267   2.0000      -0.633147       -17.2288
 268   2.0000      -0.630877       -17.1670
 269   2.0000      -0.630649       -17.1608
 270   2.0000      -0.629237       -17.1224
 271   2.0000      -0.629236       -17.1224
 272   2.0000      -0.628679       -17.1072
 273   2.0000      -0.628372       -17.0989
 274   2.0000      -0.627964       -17.0878
 275   2.0000      -0.627963       -17.0877
 276   2.0000      -0.625510       -17.0210
 277   2.0000      -0.625419       -17.0185
 278   2.0000      -0.617023       -16.7901
 279   2.0000      -0.616122       -16.7655
 280   2.0000      -0.614408       -16.7189
 281   2.0000      -0.614400       -16.7187
 282   2.0000      -0.609640       -16.5891
 283   2.0000      -0.609636       -16.5890
 284   2.0000      -0.602782       -16.4025
 285   2.0000      -0.602767       -16.4021
 286   2.0000      -0.602063       -16.3830
 287   2.0000      -0.598945       -16.2981
 288   2.0000      -0.598932       -16.2978
 289   2.0000      -0.598420       -16.2838
 290   2.0000      -0.586924       -15.9710
 291   2.0000      -0.583804       -15.8861
 292   2.0000      -0.583789       -15.8857
 293   2.0000      -0.581505       -15.8236
 294   2.0000      -0.581022       -15.8104
 295   2.0000      -0.581014       -15.8102
 296   2.0000      -0.580483       -15.7957
 297   2.0000      -0.580477       -15.7956
 298   2.0000      -0.579989       -15.7823
 299   2.0000      -0.579982       -15.7821
 300   2.0000      -0.572864       -15.5884
 301   2.0000      -0.572849       -15.5880
 302   2.0000      -0.567980       -15.4555
 303   2.0000      -0.567977       -15.4554
 304   2.0000      -0.567919       -15.4539
 305   2.0000      -0.567909       -15.4536
 306   2.0000      -0.563617       -15.3368
 307   2.0000      -0.563615       -15.3367
 308   2.0000      -0.563487       -15.3333
 309   2.0000      -0.563475       -15.3329
 310   2.0000      -0.562514       -15.3068
 311   2.0000      -0.560815       -15.2606
 312   2.0000      -0.560791       -15.2599
 313   2.0000      -0.555953       -15.1283
 314   2.0000      -0.555028       -15.1031
 315   2.0000      -0.554957       -15.1011
 316   2.0000      -0.553543       -15.0627
 317   2.0000      -0.551303       -15.0017
 318   2.0000      -0.544737       -14.8231
 319   2.0000      -0.544669       -14.8212
 320   2.0000      -0.541008       -14.7216
 321   2.0000      -0.540982       -14.7209
 322   2.0000      -0.540284       -14.7019
 323   2.0000      -0.540238       -14.7006
 324   2.0000      -0.539771       -14.6879
 325   2.0000      -0.537780       -14.6337
 326   2.0000      -0.534647       -14.5485
 327   2.0000      -0.534597       -14.5471
 328   2.0000      -0.529325       -14.4037
 329   2.0000      -0.528894       -14.3919
 330   2.0000      -0.517845       -14.0913
 331   2.0000      -0.517835       -14.0910
 332   2.0000      -0.512484       -13.9454
 333   2.0000      -0.509383       -13.8610
 334   2.0000      -0.506542       -13.7837
 335   2.0000      -0.506360       -13.7788
 336   2.0000      -0.506110       -13.7720
 337   2.0000      -0.505125       -13.7451
 338   2.0000      -0.505091       -13.7442
 339   2.0000      -0.503467       -13.7000
 340   2.0000      -0.503453       -13.6996
 341   2.0000      -0.502813       -13.6822
 342   2.0000      -0.502188       -13.6652
 343   2.0000      -0.501908       -13.6576
 344   2.0000      -0.490558       -13.3488
 345   2.0000      -0.490488       -13.3469
 346   2.0000      -0.490469       -13.3463
 347   2.0000      -0.490444       -13.3457
 348   2.0000      -0.487536       -13.2665
 349   2.0000      -0.487415       -13.2632
 350   2.0000      -0.487405       -13.2630
 351   2.0000      -0.486696       -13.2437
 352   2.0000      -0.460160       -12.5216
 353   2.0000      -0.459792       -12.5116
 354   2.0000      -0.459785       -12.5114
 355   2.0000      -0.459257       -12.4970
 356   2.0000      -0.442229       -12.0337
 357   2.0000      -0.441896       -12.0246
 358   2.0000      -0.441895       -12.0246
 359   2.0000      -0.441339       -12.0095
 360   0.0000      -0.367802       -10.0084
 361   0.0000      -0.367778       -10.0077
 362   0.0000      -0.364004        -9.9050
 363   0.0000      -0.364002        -9.9050
 364   0.0000      -0.362916        -9.8754

MULLIKEN ATOMIC CHARGES
-----------------------
   0 Pd:   -0.059761
   1 Pd:   -0.059799
   2 C :    0.027768
   3 C :    0.040563
   4 C :   -0.196993
   5 C :   -0.090291
   6 C :   -0.183851
   7 C :   -0.217769
   8 C :    0.170463
   9 C :   -0.224690
  10 N :   -0.060899
  11 C :   -0.215589
  12 C :    0.086912
  13 C :    0.145122
  14 H :    0.255776
  15 H :    0.226101
  16 H :    0.231713
  17 H :    0.199764
  18 H :    0.147460
  19 H :    0.167780
  20 C :   -0.099934
  21 C :   -0.137662
  22 C :   -0.128485
  23 C :   -0.145645
  24 C :   -0.072950
  25 C :   -0.185854
  26 H :    0.242653
  27 H :    0.220888
  28 H :    0.234293
  29 H :    0.188580
  30 C :    0.033138
  31 C :   -0.014678
  32 C :    0.070098
  33 C :   -0.222838
  34 C :    0.000803
  35 C :   -0.144597
  36 N :   -0.034927
  37 C :   -0.144469
  38 H :    0.248255
  39 H :    0.245248
  40 H :    0.185915
  41 H :    0.182524
  42 C :    0.027786
  43 C :    0.040302
  44 C :   -0.196645
  45 C :   -0.090267
  46 C :   -0.183846
  47 C :   -0.217984
  48 C :    0.170359
  49 C :   -0.224798
  50 N :   -0.060677
  51 C :   -0.215080
  52 C :    0.086729
  53 C :    0.144999
  54 H :    0.255762
  55 H :    0.226083
  56 H :    0.231637
  57 H :    0.199883
  58 H :    0.147121
  59 H :    0.167826
  60 C :   -0.099571
  61 C :   -0.137746
  62 C :   -0.128259
  63 C :   -0.145800
  64 C :   -0.072738
  65 C :   -0.185865
  66 H :    0.242685
  67 H :    0.220884
  68 H :    0.234299
  69 H :    0.188541
  70 C :    0.033037
  71 C :   -0.014701
  72 C :    0.070465
  73 C :   -0.223023
  74 C :    0.001123
  75 C :   -0.144585
  76 N :   -0.034630
  77 C :   -0.145084
  78 H :    0.248227
  79 H :    0.245260
  80 H :    0.185663
  81 H :    0.182637
  82 C :    0.027844
  83 C :    0.040352
  84 C :   -0.196591
  85 C :   -0.090305
  86 C :   -0.183773
  87 C :   -0.217949
  88 C :    0.170681
  89 C :   -0.225091
  90 N :   -0.060486
  91 C :   -0.215202
  92 C :    0.087061
  93 C :    0.144813
  94 H :    0.255774
  95 H :    0.226101
  96 H :    0.231650
  97 H :    0.199651
  98 H :    0.147103
  99 H :    0.167831
 100 C :   -0.100026
 101 C :   -0.137487
 102 C :   -0.128566
 103 C :   -0.145644
 104 C :   -0.072891
 105 C :   -0.185810
 106 H :    0.242735
 107 H :    0.220838
 108 H :    0.234374
 109 H :    0.188558
 110 C :    0.033199
 111 C :   -0.014560
 112 C :    0.070539
 113 C :   -0.223101
 114 C :    0.001266
 115 C :   -0.144725
 116 N :   -0.034469
 117 C :   -0.145262
 118 H :    0.248222
 119 H :    0.245262
 120 H :    0.185688
 121 H :    0.182463
 122 C :    0.028021
 123 C :    0.039976
 124 C :   -0.196563
 125 C :   -0.090207
 126 C :   -0.183679
 127 C :   -0.218051
 128 C :    0.170634
 129 C :   -0.224601
 130 N :   -0.060950
 131 C :   -0.215353
 132 C :    0.086861
 133 C :    0.144815
 134 H :    0.255762
 135 H :    0.226108
 136 H :    0.231653
 137 H :    0.199587
 138 H :    0.147478
 139 H :    0.167797
 140 C :   -0.099897
 141 C :   -0.137545
 142 C :   -0.128597
 143 C :   -0.145584
 144 C :   -0.073186
 145 C :   -0.185849
 146 H :    0.242690
 147 H :    0.220853
 148 H :    0.234340
 149 H :    0.188690
 150 C :    0.033480
 151 C :   -0.014703
 152 C :    0.070034
 153 C :   -0.222751
 154 C :    0.000802
 155 C :   -0.144639
 156 N :   -0.034894
 157 C :   -0.144609
 158 H :    0.248247
 159 H :    0.245269
 160 H :    0.185983
 161 H :    0.182366
Sum of atomic charges:    4.0000000

LOEWDIN ATOMIC CHARGES
----------------------
   0 Pd:   -0.073261
   1 Pd:   -0.073264
   2 C :    0.001538
   3 C :   -0.036902
   4 C :   -0.039045
   5 C :   -0.079490
   6 C :   -0.105933
   7 C :   -0.121157
   8 C :   -0.040780
   9 C :   -0.000980
  10 N :   -0.084626
  11 C :   -0.068134
  12 C :   -0.110617
  13 C :   -0.003255
  14 H :    0.198792
  15 H :    0.194942
  16 H :    0.187305
  17 H :    0.187555
  18 H :    0.177568
  19 H :    0.195681
  20 C :   -0.061735
  21 C :   -0.091726
  22 C :   -0.121455
  23 C :   -0.098957
  24 C :   -0.069681
  25 C :   -0.104657
  26 H :    0.192768
  27 H :    0.190950
  28 H :    0.189251
  29 H :    0.174844
  30 C :    0.034388
  31 C :   -0.063620
  32 C :   -0.040380
  33 C :   -0.066892
  34 C :   -0.121703
  35 C :   -0.043369
  36 N :   -0.073271
  37 C :   -0.018457
  38 H :    0.203778
  39 H :    0.201386
  40 H :    0.187735
  41 H :    0.184881
  42 C :    0.001568
  43 C :   -0.036930
  44 C :   -0.039022
  45 C :   -0.079489
  46 C :   -0.105948
  47 C :   -0.121143
  48 C :   -0.040779
  49 C :   -0.001039
  50 N :   -0.084623
  51 C :   -0.068062
  52 C :   -0.110630
  53 C :   -0.003243
  54 H :    0.198790
  55 H :    0.194948
  56 H :    0.187296
  57 H :    0.187549
  58 H :    0.177556
  59 H :    0.195678
  60 C :   -0.061734
  61 C :   -0.091718
  62 C :   -0.121458
  63 C :   -0.098931
  64 C :   -0.069689
  65 C :   -0.104642
  66 H :    0.192766
  67 H :    0.190949
  68 H :    0.189248
  69 H :    0.174844
  70 C :    0.034384
  71 C :   -0.063605
  72 C :   -0.040376
  73 C :   -0.066900
  74 C :   -0.121694
  75 C :   -0.043350
  76 N :   -0.073257
  77 C :   -0.018482
  78 H :    0.203782
  79 H :    0.201386
  80 H :    0.187728
  81 H :    0.184888
  82 C :    0.001548
  83 C :   -0.036918
  84 C :   -0.039021
  85 C :   -0.079488
  86 C :   -0.105911
  87 C :   -0.121180
  88 C :   -0.040787
  89 C :   -0.001027
  90 N :   -0.084626
  91 C :   -0.068029
  92 C :   -0.110615
  93 C :   -0.003243
  94 H :    0.198793
  95 H :    0.194947
  96 H :    0.187293
  97 H :    0.187514
  98 H :    0.177558
  99 H :    0.195691
 100 C :   -0.061706
 101 C :   -0.091719
 102 C :   -0.121441
 103 C :   -0.098956
 104 C :   -0.069668
 105 C :   -0.104655
 106 H :    0.192766
 107 H :    0.190946
 108 H :    0.189256
 109 H :    0.174845
 110 C :    0.034405
 111 C :   -0.063621
 112 C :   -0.040371
 113 C :   -0.066898
 114 C :   -0.121670
 115 C :   -0.043329
 116 N :   -0.073263
 117 C :   -0.018495
 118 H :    0.203791
 119 H :    0.201392
 120 H :    0.187728
 121 H :    0.184876
 122 C :    0.001570
 123 C :   -0.036916
 124 C :   -0.039026
 125 C :   -0.079497
 126 C :   -0.105939
 127 C :   -0.121143
 128 C :   -0.040795
 129 C :   -0.000990
 130 N :   -0.084643
 131 C :   -0.068063
 132 C :   -0.110616
 133 C :   -0.003235
 134 H :    0.198791
 135 H :    0.194952
 136 H :    0.187295
 137 H :    0.187520
 138 H :    0.177566
 139 H :    0.195689
 140 C :   -0.061752
 141 C :   -0.091711
 142 C :   -0.121443
 143 C :   -0.098955
 144 C :   -0.069685
 145 C :   -0.104637
 146 H :    0.192769
 147 H :    0.190950
 148 H :    0.189252
 149 H :    0.174845
 150 C :    0.034388
 151 C :   -0.063615
 152 C :   -0.040382
 153 C :   -0.066894
 154 C :   -0.121679
 155 C :   -0.043380
 156 N :   -0.073256
 157 C :   -0.018464
 158 H :    0.203792
 159 H :    0.201386
 160 H :    0.187741
 161 H :    0.184868

  Mayer bond orders larger than 0.100000
B(  0-Pd, 36-N ) :   0.5320 B(  0-Pd, 50-N ) :   0.5393 B(  0-Pd,116-N ) :   0.5324
B(  0-Pd,130-N ) :   0.5395 B(  1-Pd, 10-N ) :   0.5393 B(  1-Pd, 76-N ) :   0.5321
B(  1-Pd, 90-N ) :   0.5395 B(  1-Pd,156-N ) :   0.5323 B(  2-C ,  3-C ) :   1.8483
B(  2-C ,  4-C ) :  -0.3066 B(  2-C , 20-C ) :   1.5090 B(  3-C ,  4-C ) :   1.4767
B(  3-C , 13-C ) :  -0.1918 B(  3-C , 20-C ) :  -0.3973 B(  4-C ,  5-C ) :   1.5202
B(  4-C , 12-C ) :  -0.1326 B(  4-C , 13-C ) :   1.0622 B(  5-C ,  6-C ) :   1.4077
B(  5-C , 14-H ) :   0.8580 B(  6-C ,  7-C ) :   1.6468 B(  6-C , 15-H ) :   0.8720
B(  7-C ,  8-C ) :   1.3072 B(  7-C , 16-H ) :   0.8606 B(  8-C ,  9-C ) :   1.2659
B(  8-C , 12-C ) :  -0.1044 B(  8-C , 13-C ) :   1.0769 B(  9-C , 10-N ) :   1.4937
B(  9-C , 13-C ) :  -0.1150 B(  9-C , 17-H ) :   0.9144 B( 10-N , 11-C ) :   1.2487
B( 10-N , 90-N ) :   0.1001 B( 11-C , 12-C ) :   1.4338 B( 11-C , 13-C ) :   0.1440
B( 11-C , 18-H ) :   0.9354 B( 12-C , 13-C ) :   1.3815 B( 12-C , 19-H ) :   0.8919
B( 20-C , 21-C ) :   1.3095 B( 20-C , 25-C ) :   1.2671 B( 21-C , 22-C ) :   1.5168
B( 21-C , 26-H ) :   0.8877 B( 22-C , 23-C ) :   1.5184 B( 22-C , 27-H ) :   0.8791
B( 23-C , 24-C ) :   1.2916 B( 23-C , 28-H ) :   0.8875 B( 24-C , 25-C ) :   1.2959
B( 24-C , 30-C ) :   1.4843 B( 24-C , 31-C ) :  -0.4053 B( 25-C , 29-H ) :   0.9629
B( 25-C , 30-C ) :  -0.1041 B( 25-C , 31-C ) :   0.1017 B( 30-C , 31-C ) :   1.8390
B( 30-C , 32-C ) :  -0.3126 B( 31-C , 32-C ) :   1.4157 B( 32-C , 33-C ) :   1.3430
B( 32-C , 37-C ) :   1.3080 B( 33-C , 34-C ) :   1.4737 B( 33-C , 38-H ) :   0.9197
B( 34-C , 35-C ) :   1.4021 B( 34-C , 39-H ) :   0.8718 B( 35-C , 36-N ) :   1.3241
B( 35-C , 40-H ) :   0.9315 B( 36-N , 37-C ) :   1.3959 B( 37-C , 41-H ) :   0.9459
B( 42-C , 43-C ) :   1.8484 B( 42-C , 44-C ) :  -0.3069 B( 42-C , 60-C ) :   1.5099
B( 43-C , 44-C ) :   1.4764 B( 43-C , 53-C ) :  -0.1919 B( 43-C , 60-C ) :  -0.3971
B( 44-C , 45-C ) :   1.5200 B( 44-C , 52-C ) :  -0.1327 B( 44-C , 53-C ) :   1.0618
B( 45-C , 46-C ) :   1.4077 B( 45-C , 54-H ) :   0.8580 B( 46-C , 47-C ) :   1.6470
B( 46-C , 55-H ) :   0.8720 B( 47-C , 48-C ) :   1.3071 B( 47-C , 56-H ) :   0.8607
B( 48-C , 49-C ) :   1.2659 B( 48-C , 52-C ) :  -0.1044 B( 48-C , 53-C ) :   1.0771
B( 49-C , 50-N ) :   1.4936 B( 49-C , 53-C ) :  -0.1151 B( 49-C , 57-H ) :   0.9143
B( 50-N , 51-C ) :   1.2488 B( 50-N ,130-N ) :   0.1001 B( 51-C , 52-C ) :   1.4335
B( 51-C , 53-C ) :   0.1438 B( 51-C , 58-H ) :   0.9356 B( 52-C , 53-C ) :   1.3817
B( 52-C , 59-H ) :   0.8918 B( 60-C , 61-C ) :   1.3097 B( 60-C , 65-C ) :   1.2673
B( 61-C , 62-C ) :   1.5167 B( 61-C , 66-H ) :   0.8877 B( 62-C , 63-C ) :   1.5185
B( 62-C , 67-H ) :   0.8791 B( 63-C , 64-C ) :   1.2917 B( 63-C , 68-H ) :   0.8875
B( 64-C , 65-C ) :   1.2962 B( 64-C , 70-C ) :   1.4846 B( 64-C , 71-C ) :  -0.4051
B( 65-C , 69-H ) :   0.9628 B( 65-C , 70-C ) :  -0.1042 B( 65-C , 71-C ) :   0.1016
B( 70-C , 71-C ) :   1.8391 B( 70-C , 72-C ) :  -0.3126 B( 71-C , 72-C ) :   1.4155
B( 72-C , 73-C ) :   1.3430 B( 72-C , 77-C ) :   1.3078 B( 73-C , 74-C ) :   1.4736
B( 73-C , 78-H ) :   0.9197 B( 74-C , 75-C ) :   1.4018 B( 74-C , 79-H ) :   0.8719
B( 75-C , 76-N ) :   1.3240 B( 75-C , 80-H ) :   0.9317 B( 76-N , 77-C ) :   1.3961
B( 77-C , 81-H ) :   0.9459 B( 82-C , 83-C ) :   1.8484 B( 82-C , 84-C ) :  -0.3069
B( 82-C ,100-C ) :   1.5096 B( 83-C , 84-C ) :   1.4767 B( 83-C , 93-C ) :  -0.1919
B( 83-C ,100-C ) :  -0.3972 B( 84-C , 85-C ) :   1.5202 B( 84-C , 92-C ) :  -0.1327
B( 84-C , 93-C ) :   1.0620 B( 85-C , 86-C ) :   1.4076 B( 85-C , 94-H ) :   0.8580
B( 86-C , 87-C ) :   1.6469 B( 86-C , 95-H ) :   0.8720 B( 87-C , 88-C ) :   1.3071
B( 87-C , 96-H ) :   0.8607 B( 88-C , 89-C ) :   1.2662 B( 88-C , 92-C ) :  -0.1045
B( 88-C , 93-C ) :   1.0770 B( 89-C , 90-N ) :   1.4936 B( 89-C , 93-C ) :  -0.1150
B( 89-C , 97-H ) :   0.9143 B( 90-N , 91-C ) :   1.2487 B( 91-C , 92-C ) :   1.4334
B( 91-C , 93-C ) :   0.1440 B( 91-C , 98-H ) :   0.9357 B( 92-C , 93-C ) :   1.3815
B( 92-C , 99-H ) :   0.8918 B(100-C ,101-C ) :   1.3097 B(100-C ,105-C ) :   1.2671
B(101-C ,102-C ) :   1.5167 B(101-C ,106-H ) :   0.8876 B(102-C ,103-C ) :   1.5186
B(102-C ,107-H ) :   0.8791 B(103-C ,104-C ) :   1.2916 B(103-C ,108-H ) :   0.8874
B(104-C ,105-C ) :   1.2960 B(104-C ,110-C ) :   1.4841 B(104-C ,111-C ) :  -0.4051
B(105-C ,109-H ) :   0.9629 B(105-C ,110-C ) :  -0.1041 B(105-C ,111-C ) :   0.1017
B(110-C ,111-C ) :   1.8392 B(110-C ,112-C ) :  -0.3125 B(111-C ,112-C ) :   1.4152
B(112-C ,113-C ) :   1.3431 B(112-C ,117-C ) :   1.3080 B(113-C ,114-C ) :   1.4737
B(113-C ,118-H ) :   0.9197 B(114-C ,115-C ) :   1.4016 B(114-C ,119-H ) :   0.8719
B(115-C ,116-N ) :   1.3241 B(115-C ,120-H ) :   0.9317 B(116-N ,117-C ) :   1.3958
B(117-C ,121-H ) :   0.9461 B(122-C ,123-C ) :   1.8485 B(122-C ,124-C ) :  -0.3067
B(122-C ,140-C ) :   1.5087 B(123-C ,124-C ) :   1.4766 B(123-C ,133-C ) :  -0.1918
B(123-C ,140-C ) :  -0.3970 B(124-C ,125-C ) :   1.5205 B(124-C ,132-C ) :  -0.1327
B(124-C ,133-C ) :   1.0622 B(125-C ,126-C ) :   1.4077 B(125-C ,134-H ) :   0.8580
B(126-C ,127-C ) :   1.6470 B(126-C ,135-H ) :   0.8719 B(127-C ,128-C ) :   1.3072
B(127-C ,136-H ) :   0.8606 B(128-C ,129-C ) :   1.2661 B(128-C ,132-C ) :  -0.1044
B(128-C ,133-C ) :   1.0770 B(129-C ,130-N ) :   1.4936 B(129-C ,133-C ) :  -0.1151
B(129-C ,137-H ) :   0.9144 B(130-N ,131-C ) :   1.2487 B(131-C ,132-C ) :   1.4335
B(131-C ,133-C ) :   0.1438 B(131-C ,138-H ) :   0.9355 B(132-C ,133-C ) :   1.3819
B(132-C ,139-H ) :   0.8918 B(140-C ,141-C ) :   1.3094 B(140-C ,145-C ) :   1.2670
B(141-C ,142-C ) :   1.5167 B(141-C ,146-H ) :   0.8877 B(142-C ,143-C ) :   1.5185
B(142-C ,147-H ) :   0.8791 B(143-C ,144-C ) :   1.2916 B(143-C ,148-H ) :   0.8875
B(144-C ,145-C ) :   1.2959 B(144-C ,150-C ) :   1.4838 B(144-C ,151-C ) :  -0.4051
B(145-C ,149-H ) :   0.9627 B(145-C ,150-C ) :  -0.1041 B(145-C ,151-C ) :   0.1018
B(150-C ,151-C ) :   1.8391 B(150-C ,152-C ) :  -0.3126 B(151-C ,152-C ) :   1.4153
B(152-C ,153-C ) :   1.3431 B(152-C ,157-C ) :   1.3079 B(153-C ,154-C ) :   1.4737
B(153-C ,158-H ) :   0.9198 B(154-C ,155-C ) :   1.4019 B(154-C ,159-H ) :   0.8718
B(155-C ,156-N ) :   1.3241 B(155-C ,160-H ) :   0.9315 B(156-N ,157-C ) :   1.3959
B(157-C ,161-H ) :   0.9461

Dispersion correction           -0.594406913
FINAL SINGLE POINT ENERGY     -4383.021393400802

DIPOLE MOMENT
-------------
                                X             Y             Z
Electronic contribution:     -0.71978       0.01511      -0.20219
Nuclear contribution   :      0.72324      -0.01518       0.20319
                        -----------------------------------------
Total Dipole Moment    :      0.00346      -0.00007       0.00100
                        -----------------------------------------
Magnitude (a.u.)       :      0.00361
Magnitude (Debye)      :      0.00917

Rotational constants in cm-1:     0.000404     0.000303     0.000301
Rotational constants in MHz :    12.102181     9.075201     9.026791

                             ****ORCA TERMINATED NORMALLY****
TOTAL RUN TIME: 0 days 0 hours 10 minutes 54 seconds 55 msec
