 Gaussian 16, Revision C.01,
 Gaussian 16:  ES64L-G16RevC.01  3-Jul-2019

 ----------------------------------------------------------------------
 #P PBE1PBE/Def2SVP SP SCF=(YQC,MaxCycle=900) int=(Grid=Superfinegrid)
 EmpiricalDispersion=GD3BJ SCRF=(PCM,Solvent=DiMethylSulfoxide)
 ----------------------------------------------------------------------

 --------
 _s_5d3_c
 --------
 Symbolic Z-matrix:
 Charge =  4 Multiplicity = 1

                         Standard orientation:
 ---------------------------------------------------------------------
 Center     Atomic      Atomic             Coordinates (Angstroms)
 Number     Number       Type             X           Y           Z
 ---------------------------------------------------------------------
      1         46           0       -5.314756    1.198772   -0.002225
      2         46           0        5.311956   -1.213752   -0.002066
      3          6           0        2.756609    4.551064   -4.670337
      4          6           0        3.816434    4.053704   -4.368859
      5          6           0        5.053181    3.490225   -3.999112
      6          6           0        6.240141    4.023404   -4.470379
      7          6           0        7.475199    3.485054   -4.090396
      8          6           0        7.545232    2.417054   -3.233758
      9          6           0        6.357165    1.841739   -2.733936
     10          6           0        6.363496    0.751830   -1.843804
     11          7           0        5.258457    0.207344   -1.380321
     12          6           0        4.049069    0.686324   -1.763891
     13          6           0        3.933225    1.748979   -2.614424
     14          6           0        5.092737    2.369980   -3.121934
     15          1           0        6.211003    4.870183   -5.139327
     16          1           0        8.379164    3.927662   -4.479692
     17          1           0        8.499329    2.010636   -2.938239
     18          1           0        7.307276    0.325881   -1.510052
     19          1           0        3.183146    0.170020   -1.354406
     20          1           0        2.966914    2.125242   -2.909517
     21          6           0        1.517452    5.130206   -5.017056
     22          6           0        1.461493    6.145209   -5.978075
     23          6           0        0.244797    6.711782   -6.314520
     24          6           0       -0.922881    6.283030   -5.708564
     25          6           0       -0.874689    5.269823   -4.745550
     26          6           0        0.346652    4.694307   -4.399790
     27          1           0        2.370005    6.481771   -6.454357
     28          1           0        0.206723    7.495015   -7.057246
     29          1           0       -1.869890    6.727415   -5.974597
     30          1           0        0.383375    3.914379   -3.655857
     31          6           0       -2.062101    4.824240   -4.128809
     32          6           0       -3.072104    4.426883   -3.596905
     33          6           0       -4.269535    3.969761   -3.014419
     34          6           0       -5.515391    4.418284   -3.475085
     35          6           0       -6.666752    3.925458   -2.887766
     36          6           0       -6.559492    3.000226   -1.861214
     37          7           0       -5.370518    2.580957   -1.419217
     38          6           0       -4.249491    3.043771   -1.967482
     39          1           0       -5.564730    5.135374   -4.279615
     40          1           0       -7.637946    4.251323   -3.223304
     41          1           0       -7.439198    2.580650   -1.377528
     42          1           0       -3.310311    2.670689   -1.563970
     43          6           0        2.752049    4.540926    4.675940
     44          6           0        3.811923    4.042573    4.376188
     45          6           0        5.048990    3.478417    4.008399
     46          6           0        6.235229    4.008946    4.484236
     47          6           0        7.470736    3.470480    4.105793
     48          6           0        7.541795    2.405009    3.246211
     49          6           0        6.354544    1.832196    2.741824
     50          6           0        6.361996    0.744934    1.848503
     51          7           0        5.257570    0.202776    1.380742
     52          6           0        4.047741    0.681684    1.763035
     53          6           0        3.930721    1.741985    2.616398
     54          6           0        5.089502    2.360465    3.128315
     55          1           0        6.205296    4.853902    5.155563
     56          1           0        8.374175    3.911031    4.498624
     57          1           0        8.496270    1.998518    2.951804
     58          1           0        7.306183    0.319107    1.515610
     59          1           0        3.182267    0.167293    1.350128
     60          1           0        2.964122    2.118136    2.910390
     61          6           0        1.513419    5.122426    5.020518
     62          6           0        1.457901    6.137087    5.981846
     63          6           0        0.241934    6.706497    6.316165
     64          6           0       -0.925513    6.280877    5.707549
     65          6           0       -0.877812    5.268071    4.744107
     66          6           0        0.342787    4.689571    4.400707
     67          1           0        2.366277    6.471119    6.460253
     68          1           0        0.204230    7.489442    7.059134
     69          1           0       -1.871964    6.727615    5.971670
     70          1           0        0.379110    3.909881    3.656541
     71          6           0       -2.065004    4.825473    4.124837
     72          6           0       -3.074747    4.430503    3.590739
     73          6           0       -4.271636    3.975530    3.005541
     74          6           0       -5.517837    4.427987    3.461502
     75          6           0       -6.668573    3.936276    2.872041
     76          6           0       -6.560418    3.008105    1.848075
     77          7           0       -5.371163    2.585291    1.410445
     78          6           0       -4.250706    3.047071    1.960757
     79          1           0       -5.567931    5.147066    4.264149
     80          1           0       -7.640033    4.265051    3.203911
     81          1           0       -7.439698    2.589282    1.363050
     82          1           0       -3.311171    2.671081    1.560773
     83          6           0       -2.751064   -4.529909    4.706592
     84          6           0       -3.811431   -4.035393    4.402353
     85          6           0       -5.048970   -3.475430    4.029718
     86          6           0       -6.234857   -4.004546    4.508182
     87          6           0       -7.470729   -3.470290    4.125185
     88          6           0       -7.542559   -2.410459    3.258623
     89          6           0       -6.355689   -1.839327    2.751463
     90          6           0       -6.363892   -0.757419    1.851683
     91          7           0       -5.259848   -0.216565    1.381558
     92          6           0       -4.049614   -0.691916    1.767166
     93          6           0       -3.931953   -1.746855    2.627071
     94          6           0       -5.090342   -2.363504    3.142195
     95          1           0       -6.204267   -4.845013    5.184978
     96          1           0       -8.373911   -3.909461    4.520061
     97          1           0       -8.497272   -2.007147    2.960774
     98          1           0       -7.308434   -0.334759    1.515673
     99          1           0       -3.184499   -0.179279    1.351328
    100          1           0       -2.965023   -2.120099    2.923860
    101          6           0       -1.511258   -5.106238    5.055792
    102          6           0       -1.452697   -6.108538    6.029877
    103          6           0       -0.235425   -6.672649    6.368599
    104          6           0        0.930274   -6.253934    5.751780
    105          6           0        0.879396   -5.253336    4.775765
    106          6           0       -0.342445   -4.680366    4.427945
    107          1           0       -2.359629   -6.437205    6.514670
    108          1           0       -0.195380   -7.446010    7.121344
    109          1           0        1.877654   -6.696403    6.019534
    110          1           0       -0.381246   -3.910364    3.673779
    111          6           0        2.064991   -4.817451    4.148650
    112          6           0        3.073245   -4.427886    3.607873
    113          6           0        4.269397   -3.978733    3.016604
    114          6           0        5.515833   -4.430911    3.472371
    115          6           0        6.666130   -3.944397    2.877852
    116          6           0        6.557311   -3.021400    1.849271
    117          7           0        5.367856   -2.599017    1.411696
    118          6           0        4.247768   -3.056155    1.966682
    119          1           0        5.566372   -5.145541    4.278912
    120          1           0        7.637738   -4.273132    3.209454
    121          1           0        7.436391   -2.606297    1.360608
    122          1           0        3.308108   -2.681079    1.566281
    123          6           0       -2.754062   -4.539615   -4.701081
    124          6           0       -3.814356   -4.045885   -4.395469
    125          6           0       -5.051854   -3.486772   -4.021241
    126          6           0       -6.238185   -4.018405   -4.495632
    127          6           0       -7.473753   -3.484357   -4.111468
    128          6           0       -7.544891   -2.422248   -3.247682
    129          6           0       -6.357498   -1.848557   -2.744662
    130          6           0       -6.364868   -0.764059   -1.847930
    131          7           0       -5.260350   -0.220797   -1.381614
    132          6           0       -4.050539   -0.696321   -1.768114
    133          6           0       -3.933531   -1.753590   -2.625179
    134          6           0       -5.092439   -2.372533   -3.136448
    135          1           0       -6.208207   -4.860481   -5.170371
    136          1           0       -8.377397   -3.925630   -4.503079
    137          1           0       -8.499449   -2.019114   -2.948930
    138          1           0       -7.309140   -0.341243   -1.511339
    139          1           0       -3.185030   -0.181796   -1.355352
    140          1           0       -2.966896   -2.126935   -2.922792
    141          6           0       -1.513972   -5.114197   -5.051912
    142          6           0       -1.455344   -6.118078   -6.024377
    143          6           0       -0.237619   -6.680126   -6.364743
    144          6           0        0.928515   -6.257794   -5.751322
    145          6           0        0.877721   -5.255700   -4.776817
    146          6           0       -0.344588   -4.684790   -4.427291
    147          1           0       -2.362721   -6.449595   -6.506441
    148          1           0       -0.197629   -7.454654   -7.116251
    149          1           0        1.876239   -6.698702   -6.020396
    150          1           0       -0.383298   -3.913490   -3.674447
    151          6           0        2.063613   -4.816750   -4.152519
    152          6           0        3.072250   -4.425124   -3.614034
    153          6           0        4.268698   -3.973802   -3.024987
    154          6           0        5.515044   -4.422885   -3.484018
    155          6           0        6.665664   -3.935269   -2.891040
    156          6           0        6.557250   -3.014140   -1.860783
    157          7           0        5.367867   -2.594633   -1.420156
    158          6           0        4.247475   -3.052950   -1.973614
    159          1           0        5.565251   -5.136311   -4.291786
    160          1           0        7.637142   -4.261565   -3.225178
    161          1           0        7.436569   -2.598378   -1.373046
    162          1           0        3.307962   -2.680089   -1.570845
 ---------------------------------------------------------------------

 SCF Done:  E(RPBE1PBE) =  -4377.38174233     a.u. after   34 cycles
 SCF Done:  E(RPBE1PBE) =  -4377.38176994     A.U. after    9 cycles

 The electronic state is 1-A.
 Alpha  occ. eigenvalues --  -14.49079 -14.49079 -14.49074 -14.49074 -14.48666
 Alpha  occ. eigenvalues --  -14.48664 -14.48659 -14.48657 -10.32583 -10.32583
 Alpha  occ. eigenvalues --  -10.32582 -10.32581 -10.32546 -10.32544 -10.32543
 Alpha  occ. eigenvalues --  -10.32542 -10.32081 -10.32080 -10.32078 -10.32078
 Alpha  occ. eigenvalues --  -10.31265 -10.31265 -10.31262 -10.31261 -10.30873
 Alpha  occ. eigenvalues --  -10.30873 -10.30873 -10.30872 -10.29550 -10.29550
 Alpha  occ. eigenvalues --  -10.29549 -10.29548 -10.29417 -10.29417 -10.29416
 Alpha  occ. eigenvalues --  -10.29416 -10.29387 -10.29386 -10.29386 -10.29385
 Alpha  occ. eigenvalues --  -10.28956 -10.28956 -10.28955 -10.28954 -10.28571
 Alpha  occ. eigenvalues --  -10.28571 -10.28570 -10.28569 -10.28523 -10.28522
 Alpha  occ. eigenvalues --  -10.28522 -10.28522 -10.28295 -10.28295 -10.28295
 Alpha  occ. eigenvalues --  -10.28294 -10.27994 -10.27993 -10.27993 -10.27993
 Alpha  occ. eigenvalues --  -10.27634 -10.27633 -10.27633 -10.27632 -10.27437
 Alpha  occ. eigenvalues --  -10.27436 -10.27436 -10.27436 -10.27028 -10.27028
 Alpha  occ. eigenvalues --  -10.27027 -10.27027 -10.26931 -10.26930 -10.26929
 Alpha  occ. eigenvalues --  -10.26928 -10.26861 -10.26860 -10.26860 -10.26859
 Alpha  occ. eigenvalues --  -10.26551 -10.26551 -10.26551 -10.26551 -10.26520
 Alpha  occ. eigenvalues --  -10.26520 -10.26520 -10.26520 -10.26481 -10.26480
 Alpha  occ. eigenvalues --  -10.26479 -10.26478 -10.26342 -10.26341 -10.26341
 Alpha  occ. eigenvalues --  -10.26340 -10.26034 -10.26033 -10.26033 -10.26033
 Alpha  occ. eigenvalues --  -10.25923 -10.25923 -10.25923 -10.25921  -3.57574
 Alpha  occ. eigenvalues --   -3.57574  -2.25506  -2.25506  -2.25475  -2.25475
 Alpha  occ. eigenvalues --   -2.21287  -2.21286  -1.04414  -1.04412  -1.03837
 Alpha  occ. eigenvalues --   -1.03837  -1.03580  -1.03578  -1.03313  -1.03312
 Alpha  occ. eigenvalues --   -0.92907  -0.92905  -0.92849  -0.92849  -0.92021
 Alpha  occ. eigenvalues --   -0.92018  -0.92018  -0.92018  -0.88828  -0.88823
 Alpha  occ. eigenvalues --   -0.88711  -0.88709  -0.85708  -0.85706  -0.85658
 Alpha  occ. eigenvalues --   -0.85650  -0.84838  -0.84789  -0.84770  -0.84722
 Alpha  occ. eigenvalues --   -0.84278  -0.84219  -0.84173  -0.84143  -0.83465
 Alpha  occ. eigenvalues --   -0.83443  -0.83397  -0.83361  -0.81676  -0.81648
 Alpha  occ. eigenvalues --   -0.81614  -0.81561  -0.80629  -0.80612  -0.80541
 Alpha  occ. eigenvalues --   -0.80518  -0.77617  -0.77600  -0.77546  -0.77523
 Alpha  occ. eigenvalues --   -0.76123  -0.76107  -0.76098  -0.76072  -0.71684
 Alpha  occ. eigenvalues --   -0.71630  -0.71555  -0.71544  -0.71503  -0.71482
 Alpha  occ. eigenvalues --   -0.71217  -0.71159  -0.69628  -0.69626  -0.69429
 Alpha  occ. eigenvalues --   -0.69425  -0.69144  -0.69140  -0.69070  -0.69064
 Alpha  occ. eigenvalues --   -0.68313  -0.68311  -0.68280  -0.68271  -0.66522
 Alpha  occ. eigenvalues --   -0.66515  -0.66488  -0.66476  -0.65568  -0.65562
 Alpha  occ. eigenvalues --   -0.65527  -0.65523  -0.62070  -0.61771  -0.61630
 Alpha  occ. eigenvalues --   -0.61460  -0.60847  -0.60501  -0.60228  -0.60192
 Alpha  occ. eigenvalues --   -0.59291  -0.59031  -0.58945  -0.58901  -0.58407
 Alpha  occ. eigenvalues --   -0.58404  -0.58095  -0.58087  -0.56765  -0.56708
 Alpha  occ. eigenvalues --   -0.56689  -0.56627  -0.56536  -0.56485  -0.56345
 Alpha  occ. eigenvalues --   -0.56313  -0.55024  -0.55022  -0.54685  -0.54675
 Alpha  occ. eigenvalues --   -0.52838  -0.52831  -0.52815  -0.52805  -0.52093
 Alpha  occ. eigenvalues --   -0.52068  -0.52058  -0.51972  -0.51948  -0.51946
 Alpha  occ. eigenvalues --   -0.51765  -0.51729  -0.51718  -0.51672  -0.51230
 Alpha  occ. eigenvalues --   -0.51224  -0.51201  -0.51191  -0.50074  -0.50066
 Alpha  occ. eigenvalues --   -0.50037  -0.49938  -0.49749  -0.49715  -0.49656
 Alpha  occ. eigenvalues --   -0.49621  -0.49497  -0.49351  -0.49321  -0.49207
 Alpha  occ. eigenvalues --   -0.49094  -0.49029  -0.48987  -0.48975  -0.48793
 Alpha  occ. eigenvalues --   -0.48760  -0.48630  -0.48583  -0.47921  -0.47913
 Alpha  occ. eigenvalues --   -0.47680  -0.47674  -0.47241  -0.47228  -0.46618
 Alpha  occ. eigenvalues --   -0.46616  -0.46616  -0.46614  -0.45149  -0.45145
 Alpha  occ. eigenvalues --   -0.44806  -0.44804  -0.44276  -0.44047  -0.43868
 Alpha  occ. eigenvalues --   -0.43853  -0.43849  -0.43747  -0.43565  -0.43556
 Alpha  occ. eigenvalues --   -0.43550  -0.43378  -0.43305  -0.43301  -0.43231
 Alpha  occ. eigenvalues --   -0.42989  -0.42332  -0.42135  -0.40935  -0.40892
 Alpha  occ. eigenvalues --   -0.40808  -0.40771  -0.40571  -0.40322  -0.40321
 Alpha  occ. eigenvalues --   -0.40317  -0.40312  -0.40080  -0.39658  -0.39655
 Alpha  occ. eigenvalues --   -0.39606  -0.39577  -0.39541  -0.39533  -0.39485
 Alpha  occ. eigenvalues --   -0.39483  -0.39296  -0.39038  -0.38134  -0.37513
 Alpha  occ. eigenvalues --   -0.37385  -0.37058  -0.36858  -0.36769  -0.36722
 Alpha  occ. eigenvalues --   -0.36601  -0.36415  -0.36242  -0.34935  -0.34922
 Alpha  occ. eigenvalues --   -0.34786  -0.34312  -0.34286  -0.34276  -0.34271
 Alpha  occ. eigenvalues --   -0.34191  -0.33803  -0.33677  -0.33610  -0.33087
 Alpha  occ. eigenvalues --   -0.32398  -0.32317  -0.32142  -0.32122  -0.31762
 Alpha  occ. eigenvalues --   -0.31728  -0.31719  -0.31660  -0.31536  -0.31506
 Alpha  occ. eigenvalues --   -0.31207  -0.31149  -0.31103  -0.31068  -0.31062
 Alpha  occ. eigenvalues --   -0.30963  -0.29728  -0.29720  -0.29464  -0.29450
 Alpha  occ. eigenvalues --   -0.29071  -0.29064  -0.26624  -0.26563  -0.26503
 Alpha  occ. eigenvalues --   -0.26390  -0.24923  -0.24873  -0.24824  -0.24751
 Alpha virt. eigenvalues --   -0.10355  -0.10287  -0.09969  -0.09837  -0.09266
 Alpha virt. eigenvalues --   -0.09201  -0.08906  -0.08605  -0.07436  -0.07408
 Alpha virt. eigenvalues --   -0.07259  -0.07169  -0.07101  -0.07093  -0.06518

 Mulliken charges:
               1
     1  Pd   0.493837
     2  Pd   0.493800
     3  C    0.019793
     4  C   -0.069547
     5  C   -0.022370
     6  C    0.020546
     7  C   -0.001080
     8  C    0.021008
     9  C   -0.059718
    10  C    0.178844
    11  N   -0.320354
    12  C    0.151375
    13  C   -0.013010
    14  C    0.071129
    15  H    0.044442
    16  H    0.054961
    17  H    0.044553
    18  H    0.091105
    19  H    0.093214
    20  H    0.050533
    21  C   -0.068170
    22  C    0.021905
    23  C   -0.011810
    24  C    0.021492
    25  C   -0.070142
    26  C    0.019960
    27  H    0.038602
    28  H    0.048180
    29  H    0.038774
    30  H    0.033269
    31  C    0.018727
    32  C   -0.013796
    33  C   -0.121407
    34  C    0.106299
    35  C   -0.032507
    36  C    0.150750
    37  N   -0.310028
    38  C    0.189402
    39  H    0.064451
    40  H    0.072015
    41  H    0.107543
    42  H    0.094123
    43  C    0.019817
    44  C   -0.069579
    45  C   -0.022321
    46  C    0.020456
    47  C   -0.001070
    48  C    0.020951
    49  C   -0.059648
    50  C    0.178847
    51  N   -0.320427
    52  C    0.151353
    53  C   -0.012955
    54  C    0.071139
    55  H    0.044485
    56  H    0.054959
    57  H    0.044575
    58  H    0.091151
    59  H    0.093244
    60  H    0.050459
    61  C   -0.068147
    62  C    0.021828
    63  C   -0.011768
    64  C    0.021474
    65  C   -0.070130
    66  C    0.020005
    67  H    0.038622
    68  H    0.048153
    69  H    0.038780
    70  H    0.033234
    71  C    0.018730
    72  C   -0.013781
    73  C   -0.121439
    74  C    0.106368
    75  C   -0.032527
    76  C    0.150805
    77  N   -0.310008
    78  C    0.189353
    79  H    0.064418
    80  H    0.071998
    81  H    0.107575
    82  H    0.094066
    83  C    0.019721
    84  C   -0.069531
    85  C   -0.022417
    86  C    0.020559
    87  C   -0.001036
    88  C    0.020954
    89  C   -0.059713
    90  C    0.178898
    91  N   -0.320331
    92  C    0.151359
    93  C   -0.013005
    94  C    0.071154
    95  H    0.044444
    96  H    0.054938
    97  H    0.044550
    98  H    0.091134
    99  H    0.093298
   100  H    0.050491
   101  C   -0.068090
   102  C    0.021858
   103  C   -0.011780
   104  C    0.021498
   105  C   -0.070052
   106  C    0.019909
   107  H    0.038609
   108  H    0.048126
   109  H    0.038762
   110  H    0.033250
   111  C    0.018841
   112  C   -0.013988
   113  C   -0.121434
   114  C    0.106380
   115  C   -0.032538
   116  C    0.150792
   117  N   -0.309966
   118  C    0.189494
   119  H    0.064400
   120  H    0.072023
   121  H    0.107547
   122  H    0.094035
   123  C    0.019687
   124  C   -0.069488
   125  C   -0.022357
   126  C    0.020589
   127  C   -0.001082
   128  C    0.020935
   129  C   -0.059719
   130  C    0.178836
   131  N   -0.320284
   132  C    0.151371
   133  C   -0.012946
   134  C    0.071066
   135  H    0.044403
   136  H    0.054962
   137  H    0.044580
   138  H    0.091105
   139  H    0.093289
   140  H    0.050517
   141  C   -0.068160
   142  C    0.021870
   143  C   -0.011750
   144  C    0.021514
   145  C   -0.070057
   146  C    0.019872
   147  H    0.038616
   148  H    0.048107
   149  H    0.038745
   150  H    0.033268
   151  C    0.018825
   152  C   -0.013937
   153  C   -0.121410
   154  C    0.106297
   155  C   -0.032497
   156  C    0.150742
   157  N   -0.309972
   158  C    0.189531
   159  H    0.064469
   160  H    0.071984
   161  H    0.107532
   162  H    0.094066
 Sum of Mulliken charges =   4.00000

 Dipole moment (field-independent basis, Debye):
    X=             -0.0056    Y=             -0.0371    Z=             -0.0192  Tot=              0.0421
 Quadrupole moment (field-independent basis, Debye-Ang):
   XX=            137.5017   YY=           -364.0690   ZZ=           -400.9843
   XY=            -80.2459   XZ=              0.0393   YZ=             -0.0071

 Normal termination of Gaussian 16 at Fri Feb 26 18:08:45 2021.
