 Gaussian 16, Revision C.01,
 Gaussian 16:  ES64L-G16RevC.01  3-Jul-2019

 ----------------------------------------------------------------------
 #P PBE1PBE/Def2SVP SP SCF=(YQC,MaxCycle=900) int=(Grid=Superfinegrid)
 EmpiricalDispersion=GD3BJ SCRF=(PCM,Solvent=DiMethylSulfoxide)
 ----------------------------------------------------------------------

 --------
 _s_5d1_b
 --------
 Symbolic Z-matrix:
 Charge =  4 Multiplicity = 1

                         Standard orientation:
 ---------------------------------------------------------------------
 Center     Atomic      Atomic             Coordinates (Angstroms)
 Number     Number       Type             X           Y           Z
 ---------------------------------------------------------------------
      1         46           0       -4.592608   -0.113110    0.113897
      2         46           0        4.481577    0.862699   -0.514362
      3          6           0       -1.309765    6.047484   -1.839391
      4          6           0       -0.106571    5.998543   -1.731796
      5          6           0        1.300821    6.006860   -1.656547
      6          6           0        1.993966    7.182419   -1.889746
      7          6           0        3.392111    7.220705   -1.847777
      8          6           0        4.117380    6.088263   -1.582664
      9          6           0        3.447689    4.869834   -1.341250
     10          6           0        4.141144    3.674911   -1.078083
     11          7           0        3.530102    2.534347   -0.848451
     12          6           0        2.175372    2.468711   -0.851172
     13          6           0        1.408734    3.572332   -1.107533
     14          6           0        2.024314    4.815697   -1.367032
     15          1           0        1.443148    8.084688   -2.108449
     16          1           0        3.895422    8.157101   -2.032674
     17          1           0        5.194949    6.118603   -1.557851
     18          1           0        5.227463    3.681758   -1.058653
     19          1           0        1.750013    1.486531   -0.641191
     20          1           0        0.331866    3.516135   -1.120609
     21          6           0       -2.711972    6.015461   -1.999579
     22          6           0       -3.361730    6.965369   -2.791547
     23          6           0       -4.728367    6.874711   -2.980894
     24          6           0       -5.456060    5.846108   -2.405352
     25          6           0       -4.820892    4.894253   -1.606035
     26          6           0       -3.448505    4.997234   -1.396862
     27          1           0       -2.796231    7.758780   -3.255691
     28          1           0       -5.232886    7.606518   -3.593608
     29          1           0       -6.514133    5.772975   -2.602555
     30          1           0       -2.938355    4.311662   -0.739446
     31          6           0       -5.573677    3.774153   -1.023090
     32          6           0       -6.906428    3.885762   -0.614138
     33          6           0       -7.559419    2.779798   -0.094050
     34          6           0       -6.870412    1.584353    0.036177
     35          7           0       -5.596501    1.483904   -0.340524
     36          6           0       -4.965230    2.529691   -0.864368
     37          1           0       -7.419952    4.831306   -0.689795
     38          1           0       -8.589193    2.848947    0.217336
     39          1           0       -7.337269    0.689277    0.442755
     40          1           0       -3.942112    2.364134   -1.195823
     41          6           0        0.062575    1.147556    5.866934
     42          6           0       -1.132424    0.967118    5.827804
     43          6           0       -2.501781    0.657300    5.712831
     44          6           0       -3.244910    0.272412    6.814894
     45          6           0       -4.577917   -0.132678    6.678084
     46          6           0       -5.176504   -0.190613    5.445241
     47          6           0       -4.455798    0.204130    4.298597
     48          6           0       -4.990234    0.119613    2.998048
     49          7           0       -4.322464    0.511301    1.937615
     50          6           0       -3.082680    1.048667    2.061310
     51          6           0       -2.455981    1.128475    3.271360
     52          6           0       -3.117372    0.671037    4.430199
     53          1           0       -2.786312    0.274742    7.792097
     54          1           0       -5.128617   -0.421035    7.560326
     55          1           0       -6.193648   -0.533780    5.342903
     56          1           0       -5.984033   -0.285127    2.835724
     57          1           0       -2.626188    1.428720    1.144794
     58          1           0       -1.461441    1.534793    3.364182
     59          6           0        1.466149    1.274983    5.938298
     60          6           0        2.112758    1.114773    7.167051
     61          6           0        3.492271    1.170700    7.225756
     62          6           0        4.235512    1.385052    6.077908
     63          6           0        3.602641    1.561760    4.844693
     64          6           0        2.213448    1.507237    4.782703
     65          1           0        1.532388    0.941928    8.060370
     66          1           0        3.994923    1.039620    8.172085
     67          1           0        5.312258    1.387047    6.142307
     68          1           0        1.698713    1.670768    3.849379
     69          6           0        4.416783    1.783219    3.639347
     70          6           0        5.612876    2.505274    3.701854
     71          6           0        6.398236    2.642893    2.569161
     72          6           0        5.967827    2.073391    1.383439
     73          7           0        4.807076    1.420493    1.315575
     74          6           0        4.048027    1.266685    2.396333
     75          1           0        5.920202    2.963072    4.628844
     76          1           0        7.329017    3.185333    2.609712
     77          1           0        6.571378    2.137441    0.474659
     78          1           0        3.134017    0.698993    2.258249
     79          6           0        0.954864   -5.295984    1.831689
     80          6           0       -0.253435   -5.318221    1.793829
     81          6           0       -1.661506   -5.268981    1.762938
     82          6           0       -2.430608   -6.358524    2.128798
     83          6           0       -3.829427   -6.287693    2.121625
     84          6           0       -4.478045   -5.135321    1.759712
     85          6           0       -3.729561   -4.000423    1.378642
     86          6           0       -4.331184   -2.786757    1.001326
     87          7           0       -3.627345   -1.735886    0.636997
     88          6           0       -2.274081   -1.784315    0.618092
     89          6           0       -1.594869   -2.911032    0.978067
     90          6           0       -2.306507   -4.061674    1.370976
     91          1           0       -1.945347   -7.276076    2.425317
     92          1           0       -4.396685   -7.158693    2.411713
     93          1           0       -5.555117   -5.086221    1.762994
     94          1           0       -5.414650   -2.679656    0.999215
     95          1           0       -1.771445   -0.875929    0.303505
     96          1           0       -0.517397   -2.940638    0.969658
     97          6           0        2.361310   -5.229067    1.934455
     98          6           0        3.045784   -6.109505    2.776053
     99          6           0        4.415502   -5.990935    2.918155
    100          6           0        5.111823   -5.008969    2.234409
    101          6           0        4.443360   -4.131160    1.377363
    102          6           0        3.064557   -4.250892    1.230148
    103          1           0        2.502194   -6.869782    3.315621
    104          1           0        4.946717   -6.664570    3.573427
    105          1           0        6.174675   -4.912547    2.391715
    106          1           0        2.526312   -3.614376    0.546160
    107          6           0        5.199412   -3.084396    0.671126
    108          6           0        6.512396   -3.302810    0.238000
    109          6           0        7.221000   -2.277852   -0.364820
    110          6           0        6.605817   -1.050629   -0.542265
    111          7           0        5.345420   -0.852042   -0.161986
    112          6           0        4.651926   -1.824794    0.429082
    113          1           0        6.968789   -4.271952    0.363954
    114          1           0        8.236297   -2.429481   -0.693351
    115          1           0        7.124652   -0.212775   -0.999927
    116          1           0        3.637119   -1.571859    0.733557
    117          6           0       -0.468088   -3.191130   -5.176253
    118          6           0       -1.654068   -3.314787   -4.975408
    119          6           0       -3.010231   -3.420524   -4.609563
    120          6           0       -3.826466   -4.423503   -5.100112
    121          6           0       -5.149381   -4.551869   -4.659583
    122          6           0       -5.665906   -3.707608   -3.709524
    123          6           0       -4.867328   -2.667788   -3.188790
    124          6           0       -5.309218   -1.804026   -2.165647
    125          7           0       -4.562002   -0.833035   -1.694357
    126          6           0       -3.328082   -0.600406   -2.210132
    127          6           0       -2.791412   -1.405205   -3.172711
    128          6           0       -3.537799   -2.495512   -3.665525
    129          1           0       -3.436458   -5.120652   -5.826145
    130          1           0       -5.760106   -5.342438   -5.068003
    131          1           0       -6.677386   -3.830050   -3.356052
    132          1           0       -6.295150   -1.925893   -1.729556
    133          1           0       -2.792455    0.274731   -1.832809
    134          1           0       -1.802432   -1.230560   -3.565040
    135          6           0        0.920882   -3.081100   -5.399719
    136          6           0        1.567340   -3.982824   -6.248986
    137          6           0        2.932072   -3.881801   -6.443411
    138          6           0        3.659310   -2.888305   -5.810842
    139          6           0        3.024737   -1.977551   -4.963049
    140          6           0        1.654068   -2.082375   -4.755532
    141          1           0        0.998020   -4.752448   -6.747338
    142          1           0        3.434273   -4.580935   -7.094922
    143          1           0        4.726767   -2.837606   -5.959850
    144          1           0        1.141753   -1.372338   -4.125718
    145          6           0        3.819267   -0.918955   -4.318652
    146          6           0        4.831727   -0.265989   -5.027543
    147          6           0        5.601591    0.698373   -4.398777
    148          6           0        5.349459    0.992456   -3.070063
    149          7           0        4.370054    0.382628   -2.399482
    150          6           0        3.618310   -0.543362   -2.990590
    151          1           0        5.003528   -0.505811   -6.065182
    152          1           0        6.386733    1.209081   -4.932560
    153          1           0        5.941064    1.742052   -2.540305
    154          1           0        2.855496   -1.004073   -2.372394
 ---------------------------------------------------------------------

 SCF Done:  E(RPBE1PBE) =  -4073.31970189     a.u. after   20 cycles
 SCF Done:  E(RPBE1PBE) =  -4073.31975463     A.U. after    9 cycles

 The electronic state is 1-A.
 Alpha  occ. eigenvalues --  -14.48911 -14.48854 -14.48816 -14.48752 -14.48705
 Alpha  occ. eigenvalues --  -14.48623 -14.48447 -14.48323 -10.32721 -10.32712
 Alpha  occ. eigenvalues --  -10.32650 -10.32611 -10.32222 -10.32201 -10.32173
 Alpha  occ. eigenvalues --  -10.31991 -10.31962 -10.31944 -10.31864 -10.31723
 Alpha  occ. eigenvalues --  -10.31388 -10.31387 -10.31348 -10.31341 -10.29670
 Alpha  occ. eigenvalues --  -10.29631 -10.29590 -10.29561 -10.29551 -10.29513
 Alpha  occ. eigenvalues --  -10.29512 -10.29507 -10.29490 -10.29478 -10.29460
 Alpha  occ. eigenvalues --  -10.29377 -10.29044 -10.29035 -10.29032 -10.29024
 Alpha  occ. eigenvalues --  -10.28952 -10.28946 -10.28940 -10.28896 -10.28524
 Alpha  occ. eigenvalues --  -10.28524 -10.28521 -10.28456 -10.28170 -10.28134
 Alpha  occ. eigenvalues --  -10.28127 -10.28124 -10.28052 -10.28047 -10.28043
 Alpha  occ. eigenvalues --  -10.27983 -10.27845 -10.27841 -10.27792 -10.27762
 Alpha  occ. eigenvalues --  -10.27714 -10.27685 -10.27683 -10.27683 -10.27508
 Alpha  occ. eigenvalues --  -10.27501 -10.27481 -10.27473 -10.26935 -10.26923
 Alpha  occ. eigenvalues --  -10.26922 -10.26914 -10.26912 -10.26901 -10.26897
 Alpha  occ. eigenvalues --  -10.26788 -10.26417 -10.26415 -10.26408 -10.26388
 Alpha  occ. eigenvalues --  -10.26384 -10.26375 -10.26373 -10.26365 -10.26359
 Alpha  occ. eigenvalues --  -10.26357 -10.26344 -10.26341 -10.26097 -10.26095
 Alpha  occ. eigenvalues --  -10.26092 -10.26066 -10.25899 -10.25891 -10.25888
 Alpha  occ. eigenvalues --  -10.25879  -3.57880  -3.57852  -2.25912  -2.25909
 Alpha  occ. eigenvalues --   -2.25805  -2.25754  -2.21656  -2.21633  -1.04680
 Alpha  occ. eigenvalues --   -1.04570  -1.03888  -1.03792  -1.03739  -1.03628
 Alpha  occ. eigenvalues --   -1.03550  -1.03384  -0.93036  -0.92952  -0.92934
 Alpha  occ. eigenvalues --   -0.92927  -0.92258  -0.92227  -0.92221  -0.92202
 Alpha  occ. eigenvalues --   -0.88004  -0.87798  -0.87784  -0.87754  -0.85823
 Alpha  occ. eigenvalues --   -0.85701  -0.85668  -0.85648  -0.84564  -0.84449
 Alpha  occ. eigenvalues --   -0.84422  -0.84372  -0.84074  -0.83980  -0.83897
 Alpha  occ. eigenvalues --   -0.83852  -0.82479  -0.82377  -0.82359  -0.82286
 Alpha  occ. eigenvalues --   -0.80903  -0.80764  -0.80747  -0.80625  -0.79157
 Alpha  occ. eigenvalues --   -0.79111  -0.79009  -0.78940  -0.76258  -0.76220
 Alpha  occ. eigenvalues --   -0.76200  -0.76171  -0.71905  -0.71620  -0.71587
 Alpha  occ. eigenvalues --   -0.71435  -0.71050  -0.70967  -0.70753  -0.70698
 Alpha  occ. eigenvalues --   -0.69999  -0.69856  -0.69799  -0.69654  -0.69391
 Alpha  occ. eigenvalues --   -0.69236  -0.69126  -0.69066  -0.68004  -0.67895
 Alpha  occ. eigenvalues --   -0.67887  -0.67882  -0.65335  -0.65258  -0.65240
 Alpha  occ. eigenvalues --   -0.65213  -0.64686  -0.64564  -0.64522  -0.64480
 Alpha  occ. eigenvalues --   -0.61607  -0.61021  -0.60703  -0.60458  -0.60450
 Alpha  occ. eigenvalues --   -0.59912  -0.59617  -0.59552  -0.58855  -0.58483
 Alpha  occ. eigenvalues --   -0.58324  -0.58280  -0.57286  -0.57041  -0.56995
 Alpha  occ. eigenvalues --   -0.56858  -0.56840  -0.56614  -0.56371  -0.56316
 Alpha  occ. eigenvalues --   -0.55960  -0.55942  -0.55816  -0.55777  -0.53305
 Alpha  occ. eigenvalues --   -0.53165  -0.52908  -0.52771  -0.52700  -0.52547
 Alpha  occ. eigenvalues --   -0.52498  -0.52400  -0.51964  -0.51953  -0.51732
 Alpha  occ. eigenvalues --   -0.51683  -0.51581  -0.51474  -0.50861  -0.50652
 Alpha  occ. eigenvalues --   -0.50554  -0.50493  -0.50428  -0.50294  -0.50144
 Alpha  occ. eigenvalues --   -0.50125  -0.50076  -0.49983  -0.49890  -0.49782
 Alpha  occ. eigenvalues --   -0.49274  -0.49221  -0.49144  -0.49038  -0.48968
 Alpha  occ. eigenvalues --   -0.48864  -0.48798  -0.48766  -0.48512  -0.48306
 Alpha  occ. eigenvalues --   -0.48181  -0.48066  -0.48034  -0.47973  -0.47624
 Alpha  occ. eigenvalues --   -0.47135  -0.47024  -0.46770  -0.46547  -0.46489
 Alpha  occ. eigenvalues --   -0.46455  -0.46309  -0.45911  -0.45055  -0.45030
 Alpha  occ. eigenvalues --   -0.44814  -0.44322  -0.43987  -0.43813  -0.43660
 Alpha  occ. eigenvalues --   -0.43588  -0.43457  -0.43378  -0.43277  -0.43037
 Alpha  occ. eigenvalues --   -0.42906  -0.42758  -0.42649  -0.42437  -0.42259
 Alpha  occ. eigenvalues --   -0.42080  -0.41770  -0.41710  -0.40975  -0.40852
 Alpha  occ. eigenvalues --   -0.40307  -0.39910  -0.39898  -0.39879  -0.39822
 Alpha  occ. eigenvalues --   -0.39741  -0.39531  -0.39498  -0.39481  -0.39372
 Alpha  occ. eigenvalues --   -0.39286  -0.39215  -0.38953  -0.38892  -0.38319
 Alpha  occ. eigenvalues --   -0.37615  -0.37391  -0.37356  -0.36988  -0.36838
 Alpha  occ. eigenvalues --   -0.36536  -0.36481  -0.36316  -0.35751  -0.35417
 Alpha  occ. eigenvalues --   -0.35195  -0.34741  -0.34664  -0.34539  -0.34359
 Alpha  occ. eigenvalues --   -0.34161  -0.34053  -0.33815  -0.33680  -0.33073
 Alpha  occ. eigenvalues --   -0.32847  -0.32765  -0.32673  -0.32392  -0.31903
 Alpha  occ. eigenvalues --   -0.31783  -0.31595  -0.31300  -0.31293  -0.31187
 Alpha  occ. eigenvalues --   -0.30975  -0.30689  -0.29760  -0.29709  -0.29300
 Alpha  occ. eigenvalues --   -0.29174  -0.29120  -0.29040  -0.28397  -0.28287
 Alpha  occ. eigenvalues --   -0.28166  -0.28066  -0.25153  -0.25058  -0.24971
 Alpha  occ. eigenvalues --   -0.24857
 Alpha virt. eigenvalues --   -0.10561  -0.10440  -0.10136  -0.09638  -0.08379
 Alpha virt. eigenvalues --   -0.08281  -0.08054  -0.07834  -0.07618  -0.07340
 Alpha virt. eigenvalues --   -0.07023  -0.06941  -0.06713  -0.06618  -0.06362

 Mulliken charges:
               1
     1  Pd   0.456326
     2  Pd   0.468220
     3  C    0.004595
     4  C   -0.060617
     5  C   -0.026536
     6  C    0.021138
     7  C    0.000192
     8  C    0.020800
     9  C   -0.064500
    10  C    0.176267
    11  N   -0.319098
    12  C    0.157026
    13  C   -0.012409
    14  C    0.077283
    15  H    0.044803
    16  H    0.055173
    17  H    0.045552
    18  H    0.078301
    19  H    0.106180
    20  H    0.050037
    21  C   -0.069531
    22  C    0.021827
    23  C   -0.011946
    24  C   -0.020253
    25  C    0.040482
    26  C   -0.024230
    27  H    0.036503
    28  H    0.045358
    29  H    0.038917
    30  H    0.034633
    31  C   -0.025367
    32  C    0.064001
    33  C   -0.032597
    34  C    0.155120
    35  N   -0.301514
    36  C    0.149741
    37  H    0.062545
    38  H    0.068065
    39  H    0.111481
    40  H    0.080898
    41  C    0.013720
    42  C   -0.065823
    43  C   -0.022870
    44  C    0.022230
    45  C   -0.001389
    46  C    0.023009
    47  C   -0.064247
    48  C    0.185210
    49  N   -0.325268
    50  C    0.134179
    51  C   -0.002299
    52  C    0.067782
    53  H    0.044708
    54  H    0.055479
    55  H    0.044939
    56  H    0.084605
    57  H    0.103016
    58  H    0.049970
    59  C   -0.072321
    60  C    0.020344
    61  C   -0.010478
    62  C   -0.023930
    63  C    0.038360
    64  C   -0.013263
    65  H    0.037234
    66  H    0.045501
    67  H    0.040968
    68  H    0.033985
    69  C   -0.030857
    70  C    0.057205
    71  C   -0.022528
    72  C    0.137581
    73  N   -0.319748
    74  C    0.158094
    75  H    0.064693
    76  H    0.068097
    77  H    0.121669
    78  H    0.082560
    79  C    0.003286
    80  C   -0.056030
    81  C   -0.020792
    82  C    0.022395
    83  C   -0.001570
    84  C    0.021400
    85  C   -0.050671
    86  C    0.177616
    87  N   -0.334432
    88  C    0.166097
    89  C   -0.009453
    90  C    0.067299
    91  H    0.044491
    92  H    0.055307
    93  H    0.044232
    94  H    0.100439
    95  H    0.085191
    96  H    0.046355
    97  C   -0.072460
    98  C    0.021795
    99  C   -0.011093
   100  C   -0.023707
   101  C    0.039276
   102  C   -0.017113
   103  H    0.037045
   104  H    0.045495
   105  H    0.040333
   106  H    0.034134
   107  C   -0.022666
   108  C    0.057446
   109  C   -0.027088
   110  C    0.151442
   111  N   -0.317113
   112  C    0.152207
   113  H    0.064391
   114  H    0.068113
   115  H    0.106234
   116  H    0.092122
   117  C    0.012577
   118  C   -0.065255
   119  C   -0.019883
   120  C    0.022685
   121  C   -0.001707
   122  C    0.022200
   123  C   -0.063254
   124  C    0.179868
   125  N   -0.319386
   126  C    0.128581
   127  C    0.000329
   128  C    0.065231
   129  H    0.044388
   130  H    0.055412
   131  H    0.044892
   132  H    0.087008
   133  H    0.105523
   134  H    0.047732
   135  C   -0.071913
   136  C    0.020887
   137  C   -0.011059
   138  C   -0.018895
   139  C    0.028304
   140  C   -0.008566
   141  H    0.037098
   142  H    0.045611
   143  H    0.040564
   144  H    0.033375
   145  C   -0.040313
   146  C    0.063900
   147  C   -0.021589
   148  C    0.136903
   149  N   -0.322763
   150  C    0.165405
   151  H    0.064414
   152  H    0.067958
   153  H    0.114590
   154  H    0.086212
 Sum of Mulliken charges =   4.00000

 Dipole moment (field-independent basis, Debye):
    X=              3.8504    Y=              2.4662    Z=             -1.2095  Tot=              4.7298
 Quadrupole moment (field-independent basis, Debye-Ang):
   XX=             -7.4952   YY=           -352.5427   ZZ=           -383.6725
   XY=             43.7094   XZ=            -30.9880   YZ=            -12.5195

 Normal termination of Gaussian 16 at Fri Feb 26 14:15:24 2021.
