 Gaussian 16, Revision C.01,
 Gaussian 16:  ES64L-G16RevC.01  3-Jul-2019

 ----------------------------------------------------------------------
 #P PBE1PBE/Def2SVP SP SCF=(YQC,MaxCycle=900) int=(Grid=Superfinegrid)
 EmpiricalDispersion=GD3BJ SCRF=(PCM,Solvent=DiMethylSulfoxide)
 ----------------------------------------------------------------------

 --------
 _s_3d1_d
 --------
 Symbolic Z-matrix:
 Charge =  4 Multiplicity = 1

                         Standard orientation:
 ---------------------------------------------------------------------
 Center     Atomic      Atomic             Coordinates (Angstroms)
 Number     Number       Type             X           Y           Z
 ---------------------------------------------------------------------
      1         46           0       -4.834863   -0.000587   -0.000189
      2         46           0        4.834632   -0.000050    0.000044
      3          6           0        0.961630    3.194749   -3.708333
      4          6           0        2.082230    2.813214   -3.465846
      5          6           0        3.373899    2.358142   -3.133286
      6          6           0        4.502132    2.684573   -3.898331
      7          6           0        5.739607    2.206029   -3.505899
      8          6           0        5.836414    1.421087   -2.366278
      9          7           0        4.760750    1.118399   -1.637461
     10          6           0        3.557017    1.564159   -1.999263
     11          1           0        4.397604    3.298479   -4.779444
     12          1           0        6.624490    2.437958   -4.076225
     13          1           0        6.785960    1.019817   -2.025751
     14          1           0        2.714412    1.288098   -1.363275
     15          6           0       -0.349823    3.662170   -3.939556
     16          6           0       -0.554944    4.904670   -4.544264
     17          6           0       -1.844300    5.373900   -4.713369
     18          6           0       -2.927509    4.622125   -4.291526
     19          6           0       -2.736606    3.371321   -3.698695
     20          6           0       -1.440109    2.895656   -3.526807
     21          1           0        0.289390    5.493648   -4.867259
     22          1           0       -2.008803    6.336586   -5.172775
     23          1           0       -3.922175    5.024355   -4.402786
     24          1           0       -1.260860    1.918577   -3.107154
     25          6           0       -3.899579    2.592213   -3.244636
     26          6           0       -5.117710    2.630443   -3.931116
     27          6           0       -6.207654    1.933056   -3.437903
     28          6           0       -6.064161    1.194130   -2.276637
     29          7           0       -4.892973    1.127984   -1.636989
     30          6           0       -3.840310    1.805201   -2.095099
     31          1           0       -5.206596    3.192719   -4.847293
     32          1           0       -7.156225    1.961595   -3.949099
     33          1           0       -6.894808    0.639688   -1.843438
     34          1           0       -2.930324    1.729661   -1.506173
     35          6           0       -0.961964    3.713275    3.189611
     36          6           0       -2.082841    3.467689    2.811012
     37          6           0       -3.374848    3.132522    2.358914
     38          6           0       -4.503735    3.896022    2.687091
     39          6           0       -5.741471    3.501569    2.211052
     40          6           0       -5.837919    2.361683    1.426384
     41          7           0       -4.761693    1.634388    1.121965
     42          6           0       -3.557783    1.997918    1.565637
     43          1           0       -4.399389    4.777544    3.300356
     44          1           0       -6.626825    4.070491    2.444446
     45          1           0       -6.787764    2.019681    1.026680
     46          1           0       -2.714818    1.362847    1.288498
     47          6           0        0.349922    3.948610    3.653799
     48          6           0        0.556178    4.560182    4.892818
     49          6           0        1.845933    4.733674    5.359032
     50          6           0        2.928614    4.309522    4.607563
     51          6           0        2.736596    3.709908    3.360293
     52          6           0        1.439564    3.533632    2.887638
     53          1           0       -0.287781    4.884960    5.481421
     54          1           0        2.011333    5.198398    6.318977
     55          1           0        3.923712    4.424388    5.007815
     56          1           0        1.259366    3.108501    1.913127
     57          6           0        3.899027    3.253517    2.581701
     58          6           0        5.116252    3.941932    2.614905
     59          6           0        6.205967    3.446621    1.918448
     60          6           0        6.062944    2.281630    1.185286
     61          7           0        4.892482    1.640344    1.123582
     62          6           0        3.840166    2.100194    1.800268
     63          1           0        5.204596    4.861008    3.172411
     64          1           0        7.153982    3.959162    1.943333
     65          1           0        6.893464    1.846971    0.631874
     66          1           0        2.930929    1.509546    1.728959
     67          6           0        0.961954   -3.193834    3.709459
     68          6           0        2.082568   -2.812433    3.466800
     69          6           0        3.374289   -2.357474    3.134040
     70          6           0        4.502576   -2.683685    3.899147
     71          6           0        5.740010   -2.205415    3.506321
     72          6           0        5.836770   -1.420936    2.366338
     73          7           0        4.760993   -1.118488    1.637596
     74          6           0        3.557377   -1.563852    1.999665
     75          1           0        4.398032   -3.297125    4.780441
     76          1           0        6.624954   -2.437237    4.076691
     77          1           0        6.786364   -1.019967    2.025530
     78          1           0        2.714621   -1.288004    1.363675
     79          6           0       -0.349418   -3.661326    3.940906
     80          6           0       -0.554357   -4.903383    4.546447
     81          6           0       -1.843585   -5.372905    4.715596
     82          6           0       -2.926899   -4.621597    4.293034
     83          6           0       -2.736172   -3.371241    3.699534
     84          6           0       -1.439771   -2.895355    3.527525
     85          1           0        0.290056   -5.491956    4.869924
     86          1           0       -2.007969   -6.335371    5.175612
     87          1           0       -3.921445   -5.024147    4.404401
     88          1           0       -1.260706   -1.918427    3.107205
     89          6           0       -3.899259   -2.592541    3.244969
     90          6           0       -5.117492   -2.630668    3.931441
     91          6           0       -6.207396   -1.933540    3.437903
     92          6           0       -6.063950   -1.194985    2.276376
     93          7           0       -4.892853   -1.128952    1.636818
     94          6           0       -3.840126   -1.805901    2.095178
     95          1           0       -5.206254   -3.192568    4.847824
     96          1           0       -7.156055   -1.962016    3.949105
     97          1           0       -6.894740   -0.640779    1.843048
     98          1           0       -2.930143   -1.730528    1.506206
     99          6           0       -0.961085   -3.713337   -3.190479
    100          6           0       -2.081922   -3.467754   -2.811723
    101          6           0       -3.374099   -3.132899   -2.359728
    102          6           0       -4.502718   -3.896476   -2.688292
    103          6           0       -5.740583   -3.502389   -2.212223
    104          6           0       -5.837405   -2.362680   -1.427236
    105          7           0       -4.761307   -1.635356   -1.122498
    106          6           0       -3.557275   -1.998500   -1.566080
    107          1           0       -4.398181   -4.777687   -3.301837
    108          1           0       -6.625844   -4.071418   -2.445974
    109          1           0       -6.787293   -2.021017   -1.027612
    110          1           0       -2.714393   -1.363495   -1.288631
    111          6           0        0.350850   -3.948322   -3.654716
    112          6           0        0.557240   -4.559214   -4.893931
    113          6           0        1.847064   -4.732635   -5.360073
    114          6           0        2.929616   -4.308861   -4.608338
    115          6           0        2.737510   -3.709707   -3.360826
    116          6           0        1.440451   -3.533646   -2.888240
    117          1           0       -0.286646   -4.883695   -5.482857
    118          1           0        2.012642   -5.196950   -6.320209
    119          1           0        3.924820   -4.423483   -5.008441
    120          1           0        1.260045   -3.108990   -1.913489
    121          6           0        3.899744   -3.253396   -2.581984
    122          6           0        5.117191   -3.941548   -2.615325
    123          6           0        6.206727   -3.446259   -1.918701
    124          6           0        6.063509   -2.281399   -1.185308
    125          7           0        4.892979   -1.640364   -1.123563
    126          6           0        3.840803   -2.100276   -1.800399
    127          1           0        5.205704   -4.860500   -3.173153
    128          1           0        7.154846   -3.958572   -1.943642
    129          1           0        6.893925   -1.846642   -0.631784
    130          1           0        2.931361   -1.509892   -1.728842
 ---------------------------------------------------------------------

 SCF Done:  E(RPBE1PBE) =  -3459.87117898     a.u. after   20 cycles
 SCF Done:  E(RPBE1PBE) =  -3459.87130745     A.U. after    9 cycles

 The electronic state is 1-A.
 Alpha  occ. eigenvalues --  -14.49207 -14.49207 -14.49205 -14.49205 -14.48910
 Alpha  occ. eigenvalues --  -14.48910 -14.48908 -14.48908 -10.32702 -10.32702
 Alpha  occ. eigenvalues --  -10.32699 -10.32699 -10.32186 -10.32185 -10.32184
 Alpha  occ. eigenvalues --  -10.32183 -10.32161 -10.32160 -10.32159 -10.32159
 Alpha  occ. eigenvalues --  -10.31856 -10.31856 -10.31854 -10.31853 -10.31001
 Alpha  occ. eigenvalues --  -10.31001 -10.31001 -10.31000 -10.29527 -10.29527
 Alpha  occ. eigenvalues --  -10.29526 -10.29525 -10.29507 -10.29507 -10.29507
 Alpha  occ. eigenvalues --  -10.29506 -10.28982 -10.28982 -10.28981 -10.28980
 Alpha  occ. eigenvalues --  -10.28693 -10.28693 -10.28692 -10.28692 -10.28417
 Alpha  occ. eigenvalues --  -10.28417 -10.28416 -10.28416 -10.28100 -10.28100
 Alpha  occ. eigenvalues --  -10.28099 -10.28098 -10.27953 -10.27953 -10.27953
 Alpha  occ. eigenvalues --  -10.27952 -10.27072 -10.27072 -10.27072 -10.27071
 Alpha  occ. eigenvalues --  -10.27043 -10.27043 -10.27042 -10.27042 -10.26597
 Alpha  occ. eigenvalues --  -10.26597 -10.26597 -10.26596 -10.26584 -10.26583
 Alpha  occ. eigenvalues --  -10.26583 -10.26583 -10.26521 -10.26521 -10.26520
 Alpha  occ. eigenvalues --  -10.26519 -10.26023 -10.26022 -10.26022 -10.26022
 Alpha  occ. eigenvalues --   -3.57638  -3.57638  -2.25583  -2.25581  -2.25524
 Alpha  occ. eigenvalues --   -2.25523  -2.21333  -2.21333  -1.04558  -1.04557
 Alpha  occ. eigenvalues --   -1.03967  -1.03966  -1.03659  -1.03658  -1.03588
 Alpha  occ. eigenvalues --   -1.03587  -0.92414  -0.92405  -0.92393  -0.92393
 Alpha  occ. eigenvalues --   -0.89043  -0.88953  -0.88839  -0.88838  -0.87917
 Alpha  occ. eigenvalues --   -0.87804  -0.87725  -0.87724  -0.84844  -0.84729
 Alpha  occ. eigenvalues --   -0.84728  -0.84695  -0.84320  -0.84228  -0.84227
 Alpha  occ. eigenvalues --   -0.84139  -0.82377  -0.82333  -0.82333  -0.82283
 Alpha  occ. eigenvalues --   -0.79129  -0.79119  -0.79118  -0.79105  -0.77563
 Alpha  occ. eigenvalues --   -0.77529  -0.77529  -0.77471  -0.71834  -0.71805
 Alpha  occ. eigenvalues --   -0.71804  -0.71678  -0.70778  -0.70778  -0.70744
 Alpha  occ. eigenvalues --   -0.70598  -0.69873  -0.69792  -0.69697  -0.69559
 Alpha  occ. eigenvalues --   -0.69550  -0.69550  -0.69334  -0.69333  -0.66165
 Alpha  occ. eigenvalues --   -0.66099  -0.65991  -0.65990  -0.64772  -0.64726
 Alpha  occ. eigenvalues --   -0.64661  -0.64661  -0.62346  -0.61888  -0.61063
 Alpha  occ. eigenvalues --   -0.61062  -0.60962  -0.60373  -0.59844  -0.59843
 Alpha  occ. eigenvalues --   -0.57416  -0.56989  -0.56988  -0.56907  -0.56467
 Alpha  occ. eigenvalues --   -0.56466  -0.56465  -0.56325  -0.55916  -0.55915
 Alpha  occ. eigenvalues --   -0.55868  -0.55792  -0.54951  -0.54821  -0.54820
 Alpha  occ. eigenvalues --   -0.54711  -0.52636  -0.52572  -0.52228  -0.52228
 Alpha  occ. eigenvalues --   -0.51873  -0.51861  -0.51424  -0.51344  -0.50754
 Alpha  occ. eigenvalues --   -0.50751  -0.50751  -0.50639  -0.50636  -0.50582
 Alpha  occ. eigenvalues --   -0.50196  -0.50195  -0.50133  -0.49995  -0.49624
 Alpha  occ. eigenvalues --   -0.49535  -0.49534  -0.49410  -0.49031  -0.49029
 Alpha  occ. eigenvalues --   -0.48715  -0.48714  -0.48339  -0.48326  -0.48326
 Alpha  occ. eigenvalues --   -0.48219  -0.47135  -0.47018  -0.46999  -0.46998
 Alpha  occ. eigenvalues --   -0.46744  -0.46742  -0.46542  -0.46537  -0.46419
 Alpha  occ. eigenvalues --   -0.46418  -0.43726  -0.43677  -0.43628  -0.43620
 Alpha  occ. eigenvalues --   -0.43620  -0.43397  -0.43396  -0.43264  -0.42855
 Alpha  occ. eigenvalues --   -0.42809  -0.42750  -0.42749  -0.42211  -0.42181
 Alpha  occ. eigenvalues --   -0.41861  -0.41798  -0.40984  -0.40239  -0.39906
 Alpha  occ. eigenvalues --   -0.39905  -0.39710  -0.39702  -0.39697  -0.39697
 Alpha  occ. eigenvalues --   -0.39111  -0.39108  -0.39015  -0.38926  -0.37956
 Alpha  occ. eigenvalues --   -0.37822  -0.37820  -0.36796  -0.36779  -0.36776
 Alpha  occ. eigenvalues --   -0.35976  -0.35975  -0.35600  -0.34821  -0.34820
 Alpha  occ. eigenvalues --   -0.34434  -0.34279  -0.34278  -0.34047  -0.33672
 Alpha  occ. eigenvalues --   -0.33670  -0.33348  -0.33273  -0.33271  -0.32657
 Alpha  occ. eigenvalues --   -0.32499  -0.32469  -0.32467  -0.32196  -0.32185
 Alpha  occ. eigenvalues --   -0.30836  -0.30780  -0.30726  -0.30716  -0.29151
 Alpha  occ. eigenvalues --   -0.29148  -0.28514  -0.28478  -0.28477  -0.28370
 Alpha  occ. eigenvalues --   -0.26474  -0.26391  -0.26388  -0.26289
 Alpha virt. eigenvalues --   -0.09189  -0.09160  -0.09158  -0.08970  -0.08219
 Alpha virt. eigenvalues --   -0.08217  -0.07884  -0.07552  -0.07432  -0.07421
 Alpha virt. eigenvalues --   -0.07371  -0.07369  -0.06677  -0.06667  -0.06665

 Mulliken charges:
               1
     1  Pd   0.500691
     2  Pd   0.500723
     3  C    0.008139
     4  C   -0.005714
     5  C   -0.118564
     6  C    0.111836
     7  C   -0.035343
     8  C    0.153911
     9  N   -0.315240
    10  C    0.177897
    11  H    0.065152
    12  H    0.073132
    13  H    0.107916
    14  H    0.102594
    15  C   -0.078067
    16  C    0.026047
    17  C   -0.011180
    18  C   -0.018758
    19  C    0.035584
    20  C   -0.008267
    21  H    0.038534
    22  H    0.046623
    23  H    0.041378
    24  H    0.033528
    25  C   -0.028105
    26  C    0.060530
    27  C   -0.029440
    28  C    0.151015
    29  N   -0.317064
    30  C    0.154478
    31  H    0.064627
    32  H    0.068267
    33  H    0.109560
    34  H    0.084641
    35  C    0.008146
    36  C   -0.005749
    37  C   -0.118538
    38  C    0.111848
    39  C   -0.035290
    40  C    0.153829
    41  N   -0.315127
    42  C    0.177758
    43  H    0.065115
    44  H    0.073109
    45  H    0.107975
    46  H    0.102591
    47  C   -0.078036
    48  C    0.026052
    49  C   -0.011160
    50  C   -0.018913
    51  C    0.035706
    52  C   -0.008277
    53  H    0.038548
    54  H    0.046611
    55  H    0.041419
    56  H    0.033502
    57  C   -0.028086
    58  C    0.060529
    59  C   -0.029498
    60  C    0.151108
    61  N   -0.317066
    62  C    0.154398
    63  H    0.064621
    64  H    0.068304
    65  H    0.109525
    66  H    0.084684
    67  C    0.008126
    68  C   -0.005725
    69  C   -0.118621
    70  C    0.111924
    71  C   -0.035382
    72  C    0.153891
    73  N   -0.315127
    74  C    0.177843
    75  H    0.065080
    76  H    0.073161
    77  H    0.107922
    78  H    0.102637
    79  C   -0.078010
    80  C    0.026031
    81  C   -0.011212
    82  C   -0.018862
    83  C    0.035682
    84  C   -0.008325
    85  H    0.038514
    86  H    0.046648
    87  H    0.041391
    88  H    0.033580
    89  C   -0.028155
    90  C    0.060588
    91  C   -0.029511
    92  C    0.150991
    93  N   -0.316980
    94  C    0.154427
    95  H    0.064604
    96  H    0.068304
    97  H    0.109575
    98  H    0.084626
    99  C    0.008101
   100  C   -0.005729
   101  C   -0.118553
   102  C    0.111878
   103  C   -0.035356
   104  C    0.153901
   105  N   -0.315110
   106  C    0.177830
   107  H    0.065068
   108  H    0.073143
   109  H    0.107928
   110  H    0.102588
   111  C   -0.078006
   112  C    0.025998
   113  C   -0.011155
   114  C   -0.018881
   115  C    0.035703
   116  C   -0.008348
   117  H    0.038564
   118  H    0.046620
   119  H    0.041418
   120  H    0.033546
   121  C   -0.028088
   122  C    0.060512
   123  C   -0.029494
   124  C    0.151079
   125  N   -0.317028
   126  C    0.154354
   127  H    0.064659
   128  H    0.068292
   129  H    0.109522
   130  H    0.084705
 Sum of Mulliken charges =   4.00000

 Dipole moment (field-independent basis, Debye):
    X=             -0.0024    Y=             -0.0001    Z=             -0.0015  Tot=              0.0028
 Quadrupole moment (field-independent basis, Debye-Ang):
   XX=             86.7557   YY=           -303.7484   ZZ=           -304.5458
   XY=              0.0096   XZ=              0.0093   YZ=              0.0162

 Normal termination of Gaussian 16 at Fri Feb 26 12:42:33 2021.
