 Gaussian 16, Revision C.01,
 Gaussian 16:  ES64L-G16RevC.01  3-Jul-2019

 ----------------------------------------------------------------------
 #P PBE1PBE/Def2SVP SP SCF=(YQC,MaxCycle=900) int=(Grid=Superfinegrid)
 EmpiricalDispersion=GD3BJ SCRF=(PCM,Solvent=DiMethylSulfoxide)
 ----------------------------------------------------------------------

 --------
 _s_4b1_d
 --------
 Symbolic Z-matrix:
 Charge =  4 Multiplicity = 1

                         Standard orientation:
 ---------------------------------------------------------------------
 Center     Atomic      Atomic             Coordinates (Angstroms)
 Number     Number       Type             X           Y           Z
 ---------------------------------------------------------------------
      1         46           0       -5.640472    0.000240    0.000139
      2         46           0        5.639965   -0.000880   -0.000889
      3          6           0        1.697664   -3.540091    3.385933
      4          6           0        2.897443   -3.619527    3.518598
      5          6           0        4.277498   -3.786487    3.746287
      6          6           0        4.704369   -4.687133    4.705619
      7          6           0        6.066029   -4.889200    4.951765
      8          6           0        7.019679   -4.195286    4.249387
      9          6           0        6.631459   -3.263095    3.270611
     10          6           0        7.566221   -2.512336    2.521386
     11          6           0        7.128464   -1.612913    1.593510
     12          7           0        5.806553   -1.410536    1.360297
     13          6           0        4.904412   -2.095090    2.030446
     14          6           0        5.247628   -3.045884    3.006512
     15          1           0        3.972687   -5.246337    5.268527
     16          1           0        6.362507   -5.602968    5.705123
     17          1           0        8.069573   -4.353398    4.439487
     18          1           0        8.620514   -2.658419    2.695318
     19          1           0        7.832244   -1.020262    1.001732
     20          1           0        3.862429   -1.897653    1.801443
     21          6           0        0.310822   -3.384765    3.181944
     22          6           0       -0.572006   -3.370554    4.265528
     23          6           0       -1.921023   -3.165401    4.056630
     24          6           0       -2.415949   -2.963645    2.767311
     25          6           0       -1.534445   -3.014394    1.684562
     26          6           0       -0.187572   -3.224769    1.885464
     27          1           0       -0.192477   -3.508340    5.266344
     28          1           0       -2.589576   -3.128176    4.902821
     29          1           0       -1.913655   -2.918008    0.679877
     30          1           0        0.488569   -3.274924    1.047827
     31          6           0       -3.838408   -2.670573    2.542475
     32          6           0       -4.863330   -3.328341    3.231213
     33          6           0       -6.181994   -3.002338    2.966019
     34          6           0       -6.462721   -2.027217    2.020778
     35          7           0       -5.487650   -1.395884    1.372825
     36          6           0       -4.210588   -1.696136    1.618171
     37          1           0       -4.624901   -4.096694    3.950229
     38          1           0       -6.987361   -3.500302    3.481109
     39          1           0       -7.479547   -1.742018    1.776255
     40          1           0       -3.455232   -1.123540    1.069377
     41          6           0       -1.698853   -3.401990   -3.523703
     42          6           0       -2.898076   -3.545284   -3.592646
     43          6           0       -4.277291   -3.785747   -3.746206
     44          6           0       -4.703534   -4.760652   -4.630432
     45          6           0       -6.064720   -5.019947   -4.818808
     46          6           0       -7.018627   -4.315206   -4.127637
     47          6           0       -6.631080   -3.320627   -3.211950
     48          6           0       -7.566108   -2.567644   -2.465249
     49          6           0       -7.128869   -1.624358   -1.581660
     50          7           0       -5.807264   -1.379818   -1.390913
     51          6           0       -4.904936   -2.052649   -2.072736
     52          6           0       -5.247740   -3.043576   -3.008255
     53          1           0       -3.971694   -5.325386   -5.187444
     54          1           0       -6.360561   -5.785426   -5.519766
     55          1           0       -8.068163   -4.515234   -4.275366
     56          1           0       -8.619986   -2.750818   -2.601804
     57          1           0       -7.832818   -1.029049   -0.992718
     58          1           0       -3.863317   -1.814012   -1.885332
     59          6           0       -0.312453   -3.187493   -3.379071
     60          6           0        0.176516   -1.888907   -3.207425
     61          6           0        1.523290   -1.679133   -3.005853
     62          6           0        2.414322   -2.754889   -2.975886
     63          6           0        1.928436   -4.045815   -3.189556
     64          6           0        0.579613   -4.263662   -3.385872
     65          1           0       -0.506965   -1.056387   -3.241238
     66          1           0        1.894894   -0.672506   -2.899929
     67          1           0        2.604470   -4.886509   -3.168613
     68          1           0        0.207348   -5.265781   -3.532650
     69          6           0        3.837131   -2.521722   -2.691476
     70          6           0        4.862240   -3.193802   -3.365903
     71          6           0        6.181399   -2.922228   -3.046667
     72          6           0        6.462096   -1.987602   -2.061466
     73          7           0        5.486924   -1.355588   -1.414294
     74          6           0        4.209532   -1.606810   -1.708328
     75          1           0        4.623620   -3.904903   -4.141417
     76          1           0        6.986881   -3.424322   -3.557487
     77          1           0        7.479132   -1.738586   -1.780827
     78          1           0        3.454279   -1.071473   -1.123103
     79          6           0        1.697951    3.541172   -3.385042
     80          6           0        2.897688    3.620927   -3.517354
     81          6           0        4.277787    3.788275   -3.744603
     82          6           0        4.704742    4.690392   -4.702503
     83          6           0        6.066491    4.892680   -4.948335
     84          6           0        7.020072    4.197477   -4.247152
     85          6           0        6.631755    3.263795   -3.269725
     86          6           0        7.566377    2.511732   -2.521705
     87          6           0        7.128581    1.611184   -1.595013
     88          7           0        5.806576    1.408840   -1.361828
     89          6           0        4.904512    2.094438   -2.030969
     90          6           0        5.247827    3.046442   -3.006006
     91          1           0        3.973136    5.250696   -5.264394
     92          1           0        6.363021    5.607601   -5.700463
     93          1           0        8.069929    4.355669   -4.437071
     94          1           0        8.620648    2.657713   -2.695669
     95          1           0        7.832320    1.017613   -1.004088
     96          1           0        3.862467    1.896915   -1.802249
     97          6           0        0.311116    3.385540   -3.181286
     98          6           0       -0.187500    3.225552   -1.884907
     99          6           0       -1.534403    3.015073   -1.684154
    100          6           0       -2.415746    2.964040   -2.767071
    101          6           0       -1.920577    3.165534   -4.056341
    102          6           0       -0.571509    3.370903   -4.265100
    103          1           0        0.488506    3.275972   -1.047078
    104          1           0       -1.913712    2.918718   -0.679527
    105          1           0       -2.588955    3.128151   -4.902545
    106          1           0       -0.191923    3.508560   -5.265774
    107          6           0       -3.838156    2.670840   -2.542187
    108          6           0       -4.863020    3.328422   -3.231301
    109          6           0       -6.181764    3.002439   -2.966138
    110          6           0       -6.462519    2.027565   -2.020764
    111          7           0       -5.487522    1.396345   -1.372579
    112          6           0       -4.210480    1.696576   -1.617811
    113          1           0       -4.624566    4.096646   -3.950477
    114          1           0       -6.987051    3.500309   -3.481449
    115          1           0       -7.479268    1.742377   -1.776239
    116          1           0       -3.455095    1.124146   -1.068926
    117          6           0       -1.697490    3.402015    3.523527
    118          6           0       -2.896592    3.545313    3.592644
    119          6           0       -4.275835    3.785977    3.746351
    120          6           0       -4.701731    4.760939    4.630656
    121          6           0       -6.062860    5.020478    4.819261
    122          6           0       -7.016981    4.315833    4.128292
    123          6           0       -6.629783    3.321140    3.212502
    124          6           0       -7.565033    2.568349    2.465947
    125          6           0       -7.128098    1.625132    1.582187
    126          7           0       -5.806587    1.380323    1.391255
    127          6           0       -4.904118    2.052970    2.072935
    128          6           0       -5.246556    3.043908    3.008658
    129          1           0       -3.969781    5.325656    5.187470
    130          1           0       -6.358538    5.786019    5.520230
    131          1           0       -8.066497    4.516080    4.276128
    132          1           0       -8.618918    2.751802    2.602667
    133          1           0       -7.832264    1.030002    0.993392
    134          1           0       -3.862505    1.814005    1.885361
    135          6           0       -0.311112    3.187271    3.378651
    136          6           0        0.581181    4.263145    3.385546
    137          6           0        1.930043    4.044945    3.188911
    138          6           0        2.415451    2.753978    2.974931
    139          6           0        1.524221    1.678456    3.004886
    140          6           0        0.177415    1.888559    3.206738
    141          1           0        0.209336    5.265405    3.532552
    142          1           0        2.606250    4.885562    3.168044
    143          1           0        1.895434    0.671806    2.898623
    144          1           0       -0.506259    1.056261    3.240490
    145          6           0        3.838102    2.520382    2.690276
    146          6           0        4.863668    3.191881    3.364792
    147          6           0        6.182605    2.919647    3.045454
    148          6           0        6.462906    1.985229    2.060022
    149          7           0        5.487326    1.353883    1.412771
    150          6           0        4.210124    1.605619    1.706812
    151          1           0        4.625393    3.902812    4.140566
    152          1           0        6.988368    3.421337    3.556378
    153          1           0        7.479740    1.735853    1.779271
    154          1           0        3.454555    1.070758    1.121514
 ---------------------------------------------------------------------

 SCF Done:  E(RPBE1PBE) =  -4073.33966341     a.u. after   24 cycles
 SCF Done:  E(RPBE1PBE) =  -4073.33996528     A.U. after   10 cycles

 The electronic state is 1-A.
 Alpha  occ. eigenvalues --  -14.49335 -14.49328 -14.49066 -14.49063 -14.47653
 Alpha  occ. eigenvalues --  -14.47508 -14.47474 -14.47471 -10.32885 -10.32883
 Alpha  occ. eigenvalues --  -10.32392 -10.32388 -10.32300 -10.32291 -10.31724
 Alpha  occ. eigenvalues --  -10.31722 -10.31720 -10.31720 -10.31282 -10.31200
 Alpha  occ. eigenvalues --  -10.30802 -10.30599 -10.30033 -10.30029 -10.29753
 Alpha  occ. eigenvalues --  -10.29749 -10.29601 -10.29598 -10.29497 -10.29494
 Alpha  occ. eigenvalues --  -10.29494 -10.29494 -10.29408 -10.29405 -10.29201
 Alpha  occ. eigenvalues --  -10.29199 -10.28724 -10.28671 -10.28669 -10.28645
 Alpha  occ. eigenvalues --  -10.28564 -10.28563 -10.28503 -10.28502 -10.28413
 Alpha  occ. eigenvalues --  -10.28405 -10.28400 -10.28393 -10.28386 -10.28308
 Alpha  occ. eigenvalues --  -10.28276 -10.28274 -10.27861 -10.27860 -10.27638
 Alpha  occ. eigenvalues --  -10.27610 -10.27464 -10.27459 -10.27438 -10.27324
 Alpha  occ. eigenvalues --  -10.27267 -10.27264 -10.27063 -10.27059 -10.26991
 Alpha  occ. eigenvalues --  -10.26989 -10.26989 -10.26988 -10.26744 -10.26744
 Alpha  occ. eigenvalues --  -10.26610 -10.26600 -10.26542 -10.26541 -10.26492
 Alpha  occ. eigenvalues --  -10.26492 -10.26481 -10.26481 -10.26430 -10.26415
 Alpha  occ. eigenvalues --  -10.26413 -10.26412 -10.26412 -10.26405 -10.26404
 Alpha  occ. eigenvalues --  -10.26398 -10.26369 -10.26367 -10.26226 -10.26223
 Alpha  occ. eigenvalues --  -10.26220 -10.26213 -10.26199 -10.26197 -10.26077
 Alpha  occ. eigenvalues --  -10.26075  -3.59019  -3.55268  -2.26881  -2.26808
 Alpha  occ. eigenvalues --   -2.23405  -2.23346  -2.23026  -2.18710  -1.04805
 Alpha  occ. eigenvalues --   -1.04144  -1.03886  -1.03786  -1.03234  -1.02607
 Alpha  occ. eigenvalues --   -1.02365  -1.02294  -0.93016  -0.92949  -0.92398
 Alpha  occ. eigenvalues --   -0.92355  -0.92189  -0.92150  -0.92020  -0.91991
 Alpha  occ. eigenvalues --   -0.88172  -0.88024  -0.87488  -0.87351  -0.86283
 Alpha  occ. eigenvalues --   -0.86239  -0.85583  -0.85548  -0.84738  -0.84697
 Alpha  occ. eigenvalues --   -0.84033  -0.83938  -0.83428  -0.83286  -0.82703
 Alpha  occ. eigenvalues --   -0.82579  -0.82137  -0.82101  -0.81839  -0.81795
 Alpha  occ. eigenvalues --   -0.80341  -0.80292  -0.80057  -0.80003  -0.79549
 Alpha  occ. eigenvalues --   -0.79547  -0.79418  -0.79396  -0.76289  -0.76255
 Alpha  occ. eigenvalues --   -0.76229  -0.76191  -0.72031  -0.71784  -0.71614
 Alpha  occ. eigenvalues --   -0.71566  -0.70877  -0.70804  -0.70567  -0.70535
 Alpha  occ. eigenvalues --   -0.69958  -0.69657  -0.69354  -0.69241  -0.68980
 Alpha  occ. eigenvalues --   -0.68727  -0.68496  -0.68458  -0.67347  -0.67315
 Alpha  occ. eigenvalues --   -0.67027  -0.66958  -0.65145  -0.65132  -0.64951
 Alpha  occ. eigenvalues --   -0.64915  -0.64865  -0.64626  -0.64615  -0.64366
 Alpha  occ. eigenvalues --   -0.61014  -0.60316  -0.60248  -0.59818  -0.59694
 Alpha  occ. eigenvalues --   -0.59416  -0.59310  -0.58877  -0.58759  -0.58539
 Alpha  occ. eigenvalues --   -0.57862  -0.57694  -0.57541  -0.57533  -0.57183
 Alpha  occ. eigenvalues --   -0.57147  -0.57015  -0.56601  -0.56481  -0.56215
 Alpha  occ. eigenvalues --   -0.56053  -0.55604  -0.55193  -0.55023  -0.53607
 Alpha  occ. eigenvalues --   -0.53284  -0.53178  -0.53132  -0.52633  -0.52464
 Alpha  occ. eigenvalues --   -0.52144  -0.52023  -0.51705  -0.51533  -0.51296
 Alpha  occ. eigenvalues --   -0.51026  -0.50883  -0.50773  -0.50678  -0.50497
 Alpha  occ. eigenvalues --   -0.50435  -0.50407  -0.50276  -0.49923  -0.49877
 Alpha  occ. eigenvalues --   -0.49778  -0.49596  -0.49554  -0.49387  -0.49305
 Alpha  occ. eigenvalues --   -0.48927  -0.48712  -0.48674  -0.48601  -0.48548
 Alpha  occ. eigenvalues --   -0.48185  -0.48076  -0.47820  -0.47779  -0.47659
 Alpha  occ. eigenvalues --   -0.47645  -0.47384  -0.47336  -0.47309  -0.47037
 Alpha  occ. eigenvalues --   -0.46937  -0.46779  -0.46393  -0.46303  -0.46276
 Alpha  occ. eigenvalues --   -0.46200  -0.46003  -0.45746  -0.44926  -0.44860
 Alpha  occ. eigenvalues --   -0.44276  -0.44049  -0.43994  -0.43717  -0.43554
 Alpha  occ. eigenvalues --   -0.43290  -0.43256  -0.43132  -0.43064  -0.43055
 Alpha  occ. eigenvalues --   -0.43009  -0.42919  -0.42492  -0.42252  -0.42164
 Alpha  occ. eigenvalues --   -0.41987  -0.41898  -0.41439  -0.41074  -0.40551
 Alpha  occ. eigenvalues --   -0.40469  -0.40135  -0.40066  -0.39807  -0.39759
 Alpha  occ. eigenvalues --   -0.39554  -0.39463  -0.39439  -0.39066  -0.38934
 Alpha  occ. eigenvalues --   -0.38875  -0.38805  -0.38657  -0.38359  -0.37904
 Alpha  occ. eigenvalues --   -0.37710  -0.37610  -0.37283  -0.37139  -0.36671
 Alpha  occ. eigenvalues --   -0.36413  -0.36285  -0.35784  -0.35750  -0.35509
 Alpha  occ. eigenvalues --   -0.35406  -0.35239  -0.34896  -0.34573  -0.33935
 Alpha  occ. eigenvalues --   -0.33583  -0.33242  -0.32329  -0.32193  -0.32041
 Alpha  occ. eigenvalues --   -0.31963  -0.31922  -0.31861  -0.31727  -0.31635
 Alpha  occ. eigenvalues --   -0.31544  -0.31479  -0.31162  -0.31055  -0.31001
 Alpha  occ. eigenvalues --   -0.30561  -0.30379  -0.29791  -0.29784  -0.29673
 Alpha  occ. eigenvalues --   -0.29653  -0.29618  -0.28273  -0.28191  -0.27931
 Alpha  occ. eigenvalues --   -0.27826  -0.25956  -0.25137  -0.25122  -0.24943
 Alpha  occ. eigenvalues --   -0.24842
 Alpha virt. eigenvalues --   -0.10644  -0.10340  -0.10048  -0.09728  -0.08352
 Alpha virt. eigenvalues --   -0.07911  -0.07652  -0.07537  -0.07212  -0.07044
 Alpha virt. eigenvalues --   -0.06755  -0.06727  -0.06461  -0.06346  -0.05941

 Mulliken charges:
               1
     1  Pd   0.421964
     2  Pd   0.593220
     3  C    0.003396
     4  C   -0.055938
     5  C   -0.016256
     6  C    0.003683
     7  C    0.011532
     8  C    0.005073
     9  C    0.028571
    10  C   -0.013381
    11  C    0.139589
    12  N   -0.333850
    13  C    0.169527
    14  C   -0.013093
    15  H    0.039355
    16  H    0.053307
    17  H    0.039269
    18  H    0.047840
    19  H    0.162587
    20  H    0.072711
    21  C   -0.073932
    22  C    0.016425
    23  C   -0.014053
    24  C    0.019537
    25  C   -0.024311
    26  C    0.013941
    27  H    0.037495
    28  H    0.039858
    29  H    0.038204
    30  H    0.033191
    31  C   -0.029968
    32  C    0.075428
    33  C   -0.038267
    34  C    0.152850
    35  N   -0.309745
    36  C    0.147563
    37  H    0.064742
    38  H    0.071239
    39  H    0.090489
    40  H    0.112798
    41  C    0.008755
    42  C   -0.060867
    43  C   -0.011790
    44  C    0.009522
    45  C    0.016599
    46  C    0.008703
    47  C    0.027946
    48  C   -0.009653
    49  C    0.140087
    50  N   -0.322797
    51  C    0.186997
    52  C   -0.013606
    53  H    0.043599
    54  H    0.057612
    55  H    0.043274
    56  H    0.056981
    57  H    0.090888
    58  H    0.080493
    59  C   -0.076232
    60  C    0.013306
    61  C   -0.025198
    62  C    0.021710
    63  C   -0.015616
    64  C    0.016565
    65  H    0.031810
    66  H    0.037751
    67  H    0.038691
    68  H    0.036630
    69  C   -0.031373
    70  C    0.067439
    71  C   -0.036042
    72  C    0.158449
    73  N   -0.330615
    74  C    0.131417
    75  H    0.058031
    76  H    0.063659
    77  H    0.109263
    78  H    0.102683
    79  C    0.003413
    80  C   -0.055937
    81  C   -0.016251
    82  C    0.003696
    83  C    0.011573
    84  C    0.005154
    85  C    0.028525
    86  C   -0.013158
    87  C    0.139228
    88  N   -0.333715
    89  C    0.169607
    90  C   -0.013186
    91  H    0.039359
    92  H    0.053271
    93  H    0.039245
    94  H    0.047842
    95  H    0.162579
    96  H    0.072734
    97  C   -0.073969
    98  C    0.013901
    99  C   -0.024336
   100  C    0.019531
   101  C   -0.014009
   102  C    0.016494
   103  H    0.033265
   104  H    0.038195
   105  H    0.039785
   106  H    0.037412
   107  C   -0.029997
   108  C    0.075366
   109  C   -0.038207
   110  C    0.153020
   111  N   -0.310083
   112  C    0.147675
   113  H    0.064742
   114  H    0.071209
   115  H    0.090679
   116  H    0.112748
   117  C    0.008718
   118  C   -0.061032
   119  C   -0.011718
   120  C    0.009461
   121  C    0.016591
   122  C    0.008625
   123  C    0.027918
   124  C   -0.009714
   125  C    0.140105
   126  N   -0.322729
   127  C    0.186883
   128  C   -0.013629
   129  H    0.043560
   130  H    0.057595
   131  H    0.043264
   132  H    0.057006
   133  H    0.090875
   134  H    0.080524
   135  C   -0.076264
   136  C    0.016414
   137  C   -0.015918
   138  C    0.021961
   139  C   -0.025423
   140  C    0.013198
   141  H    0.036514
   142  H    0.038555
   143  H    0.037526
   144  H    0.031645
   145  C   -0.031822
   146  C    0.067021
   147  C   -0.034598
   148  C    0.160626
   149  N   -0.337152
   150  C    0.132816
   151  H    0.057347
   152  H    0.062803
   153  H    0.115345
   154  H    0.102039
 Sum of Mulliken charges =   4.00000

 Dipole moment (field-independent basis, Debye):
    X=              4.2372    Y=              0.0183    Z=              0.0127  Tot=              4.2373
 Quadrupole moment (field-independent basis, Debye-Ang):
   XX=            187.1020   YY=           -384.3570   ZZ=           -386.4530
   XY=              0.3804   XZ=              0.4033   YZ=              4.4409

 Normal termination of Gaussian 16 at Fri Feb 26 12:30:01 2021.
