 Gaussian 16, Revision C.01,
 Gaussian 16:  ES64L-G16RevC.01  3-Jul-2019

 ----------------------------------------------------------------------
 #P PBE1PBE/Def2SVP SP SCF=(YQC,MaxCycle=900) int=(Grid=Superfinegrid)
 EmpiricalDispersion=GD3BJ SCRF=(PCM,Solvent=DiMethylSulfoxide)
 ----------------------------------------------------------------------

 --------
 _s_4d2_a
 --------
 Symbolic Z-matrix:
 Charge =  4 Multiplicity = 1

                         Standard orientation:
 ---------------------------------------------------------------------
 Center     Atomic      Atomic             Coordinates (Angstroms)
 Number     Number       Type             X           Y           Z
 ---------------------------------------------------------------------
      1         46           0        3.894349   -0.063912   -1.133852
      2         46           0       -5.900832   -0.589668   -0.222734
      3          6           0        1.532199    3.690303    3.122788
      4          6           0        2.703327    3.391916    3.161675
      5          6           0        4.083738    3.140340    3.269849
      6          6           0        4.804818    3.750698    4.280788
      7          6           0        6.183931    3.556045    4.404702
      8          6           0        6.865663    2.763888    3.514861
      9          6           0        6.173854    2.126238    2.469562
     10          6           0        6.821989    1.317774    1.509792
     11          6           0        6.097445    0.732693    0.514370
     12          7           0        4.751883    0.878202    0.418010
     13          6           0        4.109377    1.625461    1.295363
     14          6           0        4.763913    2.294561    2.342309
     15          1           0        4.292603    4.390334    4.983230
     16          1           0        6.713334    4.045800    5.207715
     17          1           0        7.931809    2.625136    3.602359
     18          1           0        7.889190    1.176238    1.568500
     19          1           0        6.575222    0.117015   -0.242551
     20          1           0        3.032801    1.708610    1.174812
     21          6           0        0.164466    4.030196    3.061180
     22          6           0       -0.295154    5.198547    3.677499
     23          6           0       -1.637815    5.523905    3.614212
     24          6           0       -2.533459    4.695559    2.960149
     25          6           0       -2.084676    3.527103    2.338824
     26          6           0       -0.730472    3.204001    2.385514
     27          1           0        0.400363    5.840405    4.196081
     28          1           0       -1.990503    6.429915    4.083090
     29          1           0       -3.572874    4.976531    2.902823
     30          1           0       -0.367982    2.290583    1.942131
     31          6           0       -3.020898    2.643283    1.643180
     32          6           0       -4.310569    2.416952    2.132797
     33          6           0       -5.148296    1.561438    1.464479
     34          7           0       -4.767292    0.938455    0.338540
     35          6           0       -3.535921    1.137414   -0.148875
     36          6           0       -2.647053    1.977485    0.471575
     37          1           0       -4.644297    2.886469    3.044018
     38          1           0       -6.157817    1.344439    1.797551
     39          1           0       -3.306630    0.602574   -1.060667
     40          1           0       -1.670553    2.131117    0.042572
     41          6           0       -0.719843    4.786301   -2.216317
     42          6           0        0.466990    4.657586   -2.422424
     43          6           0        1.812027    4.850351   -2.805626
     44          6           0        2.091701    6.093482   -3.355550
     45          6           0        3.371883    6.436383   -3.792303
     46          6           0        4.403195    5.538895   -3.682012
     47          6           0        4.168585    4.270033   -3.126392
     48          6           0        5.206781    3.321656   -2.995310
     49          6           0        4.946630    2.103521   -2.447007
     50          7           0        3.704759    1.750878   -2.011074
     51          6           0        2.707999    2.608706   -2.122975
     52          6           0        2.865764    3.896366   -2.675350
     53          1           0        1.291481    6.811022   -3.453212
     54          1           0        3.541619    7.413296   -4.218235
     55          1           0        5.397120    5.791287   -4.016544
     56          1           0        6.199399    3.574623   -3.332180
     57          1           0        5.741165    1.360690   -2.340408
     58          1           0        1.737468    2.274941   -1.774374
     59          6           0       -2.098257    5.004576   -1.991758
     60          6           0       -2.525630    6.303805   -1.691905
     61          6           0       -3.871770    6.561177   -1.514155
     62          6           0       -4.804613    5.542133   -1.611241
     63          6           0       -4.393906    4.241451   -1.905169
     64          6           0       -3.036707    3.982766   -2.103483
     65          1           0       -1.801807    7.099388   -1.604922
     66          1           0       -4.199794    7.566547   -1.297843
     67          1           0       -5.852577    5.766862   -1.491830
     68          1           0       -2.697033    2.986757   -2.338020
     69          6           0       -5.337276    3.119766   -1.929969
     70          6           0       -6.422239    3.044022   -1.051181
     71          6           0       -7.067379    1.834930   -0.871103
     72          7           0       -6.687821    0.724197   -1.513497
     73          6           0       -5.781440    0.831756   -2.499251
     74          6           0       -5.107179    2.006974   -2.750655
     75          1           0       -6.704182    3.893216   -0.450071
     76          1           0       -7.882728    1.719175   -0.164075
     77          1           0       -5.588058   -0.062028   -3.089176
     78          1           0       -4.379490    2.053090   -3.545036
     79          6           0       -0.208363   -5.015465   -1.645773
     80          6           0        0.631074   -4.596996   -2.410670
     81          6           0        1.521468   -4.344376   -3.477355
     82          6           0        1.575529   -5.301475   -4.476759
     83          6           0        2.378006   -5.132649   -5.608634
     84          6           0        3.140761   -4.002964   -5.758405
     85          6           0        3.131253   -3.014081   -4.759019
     86          6           0        3.916188   -1.845357   -4.854952
     87          6           0        3.923703   -0.944569   -3.831372
     88          7           0        3.181568   -1.113677   -2.704726
     89          6           0        2.393561   -2.171596   -2.601908
     90          6           0        2.322198   -3.169220   -3.593203
     91          1           0        0.976364   -6.194034   -4.380270
     92          1           0        2.386786   -5.900190   -6.367198
     93          1           0        3.757115   -3.861483   -6.632272
     94          1           0        4.519716   -1.682985   -5.733687
     95          1           0        4.523334   -0.042316   -3.896875
     96          1           0        1.795272   -2.255992   -1.699469
     97          6           0       -1.299888   -5.446374   -0.855639
     98          6           0       -1.214086   -6.548166   -0.002687
     99          6           0       -2.345250   -6.977663    0.670123
    100          6           0       -3.557778   -6.325340    0.517073
    101          6           0       -3.655316   -5.219726   -0.328696
    102          6           0       -2.517606   -4.788418   -1.009192
    103          1           0       -0.275466   -7.066348    0.119917
    104          1           0       -2.283230   -7.837951    1.319444
    105          1           0       -4.431285   -6.697392    1.028786
    106          1           0       -2.559214   -3.934062   -1.666338
    107          6           0       -4.883341   -4.433591   -0.478256
    108          6           0       -5.151528   -3.757916   -1.679507
    109          6           0       -6.080760   -2.738930   -1.687691
    110          7           0       -6.759117   -2.379400   -0.581551
    111          6           0       -6.670648   -3.166898    0.498647
    112          6           0       -5.761340   -4.204574    0.585624
    113          1           0       -4.615267   -4.007033   -2.581495
    114          1           0       -6.332461   -2.200676   -2.598192
    115          1           0       -7.327815   -2.919248    1.323510
    116          1           0       -5.671750   -4.761511    1.504045
    117          6           0        1.999446   -2.598211    3.979574
    118          6           0        2.985352   -3.091130    3.483550
    119          6           0        4.127474   -3.680366    2.906463
    120          6           0        4.815036   -4.682479    3.562976
    121          6           0        5.930915   -5.291853    2.977765
    122          6           0        6.375779   -4.908766    1.736887
    123          6           0        5.714046   -3.882571    1.038823
    124          6           0        6.134752   -3.424717   -0.230289
    125          6           0        5.473608   -2.397291   -0.835909
    126          7           0        4.397307   -1.794578   -0.265484
    127          6           0        3.959124   -2.209725    0.907521
    128          6           0        4.575551   -3.252065    1.619608
    129          1           0        4.482838   -5.003333    4.538491
    130          1           0        6.442469   -6.074970    3.516308
    131          1           0        7.234713   -5.382432    1.288147
    132          1           0        6.986758   -3.885403   -0.704053
    133          1           0        5.780466   -2.019130   -1.809575
    134          1           0        3.091668   -1.698911    1.315482
    135          6           0        0.792163   -1.992974    4.394552
    136          6           0        0.694902   -1.255614    5.575573
    137          6           0       -0.500878   -0.632553    5.888376
    138          6           0       -1.591096   -0.721875    5.040361
    139          6           0       -1.508028   -1.462364    3.855788
    140          6           0       -0.311024   -2.108523    3.551679
    141          1           0        1.547802   -1.171424    6.231087
    142          1           0       -0.579938   -0.061083    6.800377
    143          1           0       -2.492962   -0.186924    5.288863
    144          1           0       -0.224794   -2.738539    2.680825
    145          6           0       -2.625648   -1.518753    2.912223
    146          6           0       -3.955414   -1.366915    3.318713
    147          6           0       -4.956438   -1.329578    2.377749
    148          7           0       -4.701032   -1.469096    1.070862
    149          6           0       -3.441922   -1.670757    0.659443
    150          6           0       -2.391765   -1.688003    1.539792
    151          1           0       -4.210016   -1.278433    4.362182
    152          1           0       -6.000705   -1.195728    2.635438
    153          1           0       -3.316794   -1.811479   -0.409333
    154          1           0       -1.391384   -1.799228    1.154958
 ---------------------------------------------------------------------

 SCF Done:  E(RPBE1PBE) =  -4073.26086223     a.u. after   16 cycles
 SCF Done:  E(RPBE1PBE) =  -4073.26089839     A.U. after    9 cycles

 The electronic state is 1-A.
 Alpha  occ. eigenvalues --  -14.49289 -14.49148 -14.48839 -14.48811 -14.48717
 Alpha  occ. eigenvalues --  -14.48557 -14.47086 -14.46422 -10.32853 -10.32750
 Alpha  occ. eigenvalues --  -10.32714 -10.32685 -10.32677 -10.32577 -10.32542
 Alpha  occ. eigenvalues --  -10.32485 -10.32153 -10.32153 -10.32071 -10.32009
 Alpha  occ. eigenvalues --  -10.31262 -10.31180 -10.31169 -10.31057 -10.30942
 Alpha  occ. eigenvalues --  -10.30804 -10.30789 -10.30772 -10.30140 -10.30079
 Alpha  occ. eigenvalues --  -10.30024 -10.29991 -10.29582 -10.29482 -10.29417
 Alpha  occ. eigenvalues --  -10.29365 -10.29355 -10.29277 -10.29264 -10.29250
 Alpha  occ. eigenvalues --  -10.28931 -10.28891 -10.28845 -10.28814 -10.28720
 Alpha  occ. eigenvalues --  -10.28641 -10.28639 -10.28524 -10.28381 -10.28379
 Alpha  occ. eigenvalues --  -10.28221 -10.28218 -10.28172 -10.28166 -10.28152
 Alpha  occ. eigenvalues --  -10.28070 -10.28046 -10.27975 -10.27950 -10.27884
 Alpha  occ. eigenvalues --  -10.27505 -10.27465 -10.27430 -10.27427 -10.27384
 Alpha  occ. eigenvalues --  -10.27366 -10.27305 -10.27302 -10.27296 -10.27224
 Alpha  occ. eigenvalues --  -10.27222 -10.27150 -10.27076 -10.27025 -10.27001
 Alpha  occ. eigenvalues --  -10.26989 -10.26931 -10.26918 -10.26914 -10.26876
 Alpha  occ. eigenvalues --  -10.26865 -10.26846 -10.26814 -10.26808 -10.26796
 Alpha  occ. eigenvalues --  -10.26761 -10.26718 -10.26697 -10.26475 -10.26431
 Alpha  occ. eigenvalues --  -10.26379 -10.26356 -10.26288 -10.26288 -10.26223
 Alpha  occ. eigenvalues --  -10.26204  -3.58658  -3.57609  -2.26788  -2.26380
 Alpha  occ. eigenvalues --   -2.25536  -2.25408  -2.22520  -2.21331  -1.05365
 Alpha  occ. eigenvalues --   -1.04038  -1.03877  -1.03318  -1.03143  -1.03133
 Alpha  occ. eigenvalues --   -1.03036  -1.02917  -0.93032  -0.92948  -0.92923
 Alpha  occ. eigenvalues --   -0.92902  -0.92809  -0.92737  -0.92709  -0.92692
 Alpha  occ. eigenvalues --   -0.88732  -0.88524  -0.88363  -0.88224  -0.86283
 Alpha  occ. eigenvalues --   -0.86209  -0.86173  -0.86158  -0.84537  -0.83811
 Alpha  occ. eigenvalues --   -0.83497  -0.83366  -0.83315  -0.83261  -0.83140
 Alpha  occ. eigenvalues --   -0.83021  -0.82983  -0.82939  -0.82857  -0.82815
 Alpha  occ. eigenvalues --   -0.81059  -0.80986  -0.80920  -0.80879  -0.80073
 Alpha  occ. eigenvalues --   -0.79987  -0.79852  -0.79793  -0.76517  -0.76460
 Alpha  occ. eigenvalues --   -0.76403  -0.76385  -0.71870  -0.71676  -0.71486
 Alpha  occ. eigenvalues --   -0.71384  -0.71307  -0.71093  -0.70784  -0.70700
 Alpha  occ. eigenvalues --   -0.70491  -0.70388  -0.70127  -0.70032  -0.69575
 Alpha  occ. eigenvalues --   -0.69402  -0.69357  -0.69279  -0.68077  -0.68008
 Alpha  occ. eigenvalues --   -0.67821  -0.67765  -0.65695  -0.65636  -0.65635
 Alpha  occ. eigenvalues --   -0.65565  -0.64696  -0.64392  -0.64336  -0.64262
 Alpha  occ. eigenvalues --   -0.61708  -0.60978  -0.60735  -0.60544  -0.60272
 Alpha  occ. eigenvalues --   -0.59739  -0.59458  -0.59343  -0.58613  -0.58289
 Alpha  occ. eigenvalues --   -0.58165  -0.58043  -0.57552  -0.57314  -0.57115
 Alpha  occ. eigenvalues --   -0.56840  -0.56492  -0.56302  -0.56234  -0.56211
 Alpha  occ. eigenvalues --   -0.55939  -0.55765  -0.55299  -0.54992  -0.54484
 Alpha  occ. eigenvalues --   -0.53695  -0.53448  -0.53336  -0.53254  -0.53107
 Alpha  occ. eigenvalues --   -0.52674  -0.52556  -0.52452  -0.51656  -0.51572
 Alpha  occ. eigenvalues --   -0.51414  -0.51328  -0.51139  -0.51118  -0.51022
 Alpha  occ. eigenvalues --   -0.50916  -0.50778  -0.50717  -0.50676  -0.50649
 Alpha  occ. eigenvalues --   -0.50588  -0.50438  -0.50331  -0.50101  -0.49952
 Alpha  occ. eigenvalues --   -0.49888  -0.49690  -0.49484  -0.49344  -0.49056
 Alpha  occ. eigenvalues --   -0.48931  -0.48768  -0.48633  -0.48563  -0.48451
 Alpha  occ. eigenvalues --   -0.48368  -0.48153  -0.47937  -0.47534  -0.47355
 Alpha  occ. eigenvalues --   -0.47328  -0.47286  -0.46974  -0.46685  -0.46447
 Alpha  occ. eigenvalues --   -0.46341  -0.46004  -0.45652  -0.45422  -0.44635
 Alpha  occ. eigenvalues --   -0.44534  -0.44218  -0.43919  -0.43835  -0.43750
 Alpha  occ. eigenvalues --   -0.43730  -0.43585  -0.43444  -0.43059  -0.42809
 Alpha  occ. eigenvalues --   -0.42730  -0.42716  -0.42463  -0.42310  -0.42053
 Alpha  occ. eigenvalues --   -0.42037  -0.41874  -0.41808  -0.41690  -0.40418
 Alpha  occ. eigenvalues --   -0.40316  -0.40252  -0.40195  -0.40081  -0.40058
 Alpha  occ. eigenvalues --   -0.39921  -0.39775  -0.39731  -0.39540  -0.39505
 Alpha  occ. eigenvalues --   -0.39323  -0.39215  -0.39148  -0.39008  -0.38194
 Alpha  occ. eigenvalues --   -0.37922  -0.37782  -0.37647  -0.37185  -0.37064
 Alpha  occ. eigenvalues --   -0.36817  -0.36701  -0.36613  -0.36480  -0.36134
 Alpha  occ. eigenvalues --   -0.36040  -0.35797  -0.34867  -0.34500  -0.34430
 Alpha  occ. eigenvalues --   -0.34313  -0.34175  -0.34008  -0.33697  -0.33473
 Alpha  occ. eigenvalues --   -0.32713  -0.32208  -0.32147  -0.31917  -0.31875
 Alpha  occ. eigenvalues --   -0.31753  -0.31595  -0.31524  -0.31407  -0.31390
 Alpha  occ. eigenvalues --   -0.30914  -0.30693  -0.30014  -0.29617  -0.29473
 Alpha  occ. eigenvalues --   -0.29275  -0.29258  -0.29013  -0.28787  -0.28357
 Alpha  occ. eigenvalues --   -0.28089  -0.27613  -0.26146  -0.25972  -0.25367
 Alpha  occ. eigenvalues --   -0.25274
 Alpha virt. eigenvalues --   -0.12944  -0.10970  -0.10656  -0.10489  -0.10427
 Alpha virt. eigenvalues --   -0.10154  -0.09735  -0.08824  -0.08156  -0.07326
 Alpha virt. eigenvalues --   -0.06766  -0.06625  -0.06471  -0.06324  -0.06218

 Mulliken charges:
               1
     1  Pd   0.492016
     2  Pd   0.332330
     3  C    0.021247
     4  C   -0.073518
     5  C   -0.011675
     6  C    0.005995
     7  C    0.016247
     8  C    0.008021
     9  C    0.031401
    10  C   -0.013922
    11  C    0.130392
    12  N   -0.322077
    13  C    0.181393
    14  C   -0.006284
    15  H    0.043124
    16  H    0.056966
    17  H    0.042619
    18  H    0.054177
    19  H    0.103340
    20  H    0.083710
    21  C   -0.073499
    22  C    0.028826
    23  C   -0.009813
    24  C   -0.010175
    25  C    0.026177
    26  C   -0.006705
    27  H    0.040415
    28  H    0.048212
    29  H    0.042535
    30  H    0.034324
    31  C    0.063829
    32  C   -0.011383
    33  C    0.162967
    34  N   -0.355903
    35  C    0.159610
    36  C   -0.024749
    37  H    0.060687
    38  H    0.119799
    39  H    0.113528
    40  H    0.058381
    41  C    0.050948
    42  C   -0.096637
    43  C   -0.018783
    44  C   -0.000423
    45  C    0.017679
    46  C    0.006786
    47  C    0.025186
    48  C   -0.009791
    49  C    0.120402
    50  N   -0.323812
    51  C    0.180444
    52  C    0.004082
    53  H    0.044161
    54  H    0.056137
    55  H    0.043263
    56  H    0.054601
    57  H    0.109952
    58  H    0.076918
    59  C   -0.082211
    60  C    0.030014
    61  C   -0.010489
    62  C   -0.010342
    63  C    0.032943
    64  C    0.006158
    65  H    0.040348
    66  H    0.048203
    67  H    0.043177
    68  H    0.031759
    69  C    0.032056
    70  C    0.009692
    71  C    0.119865
    72  N   -0.300703
    73  C    0.132589
    74  C   -0.034186
    75  H    0.065634
    76  H    0.106129
    77  H    0.097859
    78  H    0.068469
    79  C    0.030984
    80  C   -0.078737
    81  C   -0.023409
    82  C    0.006091
    83  C    0.015609
    84  C    0.008657
    85  C    0.028973
    86  C   -0.013240
    87  C    0.136231
    88  N   -0.315363
    89  C    0.178154
    90  C    0.002292
    91  H    0.043644
    92  H    0.056907
    93  H    0.043037
    94  H    0.053843
    95  H    0.089624
    96  H    0.084467
    97  C   -0.075619
    98  C    0.035194
    99  C   -0.012244
   100  C   -0.008468
   101  C    0.046349
   102  C   -0.024662
   103  H    0.039366
   104  H    0.048827
   105  H    0.043502
   106  H    0.038647
   107  C    0.007296
   108  C   -0.010460
   109  C    0.131893
   110  N   -0.305856
   111  C    0.139704
   112  C    0.009462
   113  H    0.070795
   114  H    0.106436
   115  H    0.099691
   116  H    0.064453
   117  C   -0.011255
   118  C   -0.037946
   119  C   -0.015713
   120  C    0.012596
   121  C    0.015620
   122  C    0.009464
   123  C    0.032683
   124  C   -0.005007
   125  C    0.118949
   126  N   -0.333289
   127  C    0.179591
   128  C   -0.009468
   129  H    0.043482
   130  H    0.057625
   131  H    0.043061
   132  H    0.054338
   133  H    0.116659
   134  H    0.087512
   135  C   -0.075842
   136  C    0.036638
   137  C   -0.011005
   138  C   -0.013897
   139  C    0.037009
   140  C   -0.018224
   141  H    0.040178
   142  H    0.048195
   143  H    0.042024
   144  H    0.037791
   145  C    0.083745
   146  C   -0.022794
   147  C    0.149498
   148  N   -0.355669
   149  C    0.143974
   150  C   -0.024999
   151  H    0.064370
   152  H    0.108581
   153  H    0.108804
   154  H    0.060010
 Sum of Mulliken charges =   4.00000

 Dipole moment (field-independent basis, Debye):
    X=             -0.9887    Y=             -0.4636    Z=             -2.5211  Tot=              2.7474
 Quadrupole moment (field-independent basis, Debye-Ang):
   XX=            -80.3857   YY=           -311.8945   ZZ=           -391.1946
   XY=            -12.1430   XZ=            -47.5861   YZ=              9.4092

 Normal termination of Gaussian 16 at Fri Feb 26 12:57:15 2021.
