 Gaussian 16, Revision C.01,
 Gaussian 16:  ES64L-G16RevC.01  3-Jul-2019

 ------------------------------------------------------------------
 # SP PBE1PBE/def2svp empiricaldispersion=GD3BJ scrf=(solvent=dmso)
 ------------------------------------------------------------------

 -----
 m2_l1
 -----
 Symbolic Z-matrix:
 Charge =  4 Multiplicity = 1

                         Standard orientation:
 ---------------------------------------------------------------------
 Center     Atomic      Atomic             Coordinates (Angstroms)
 Number     Number       Type             X           Y           Z
 ---------------------------------------------------------------------
      1         46           0        5.659898   -0.000710   -0.001308
      2         46           0       -5.659102    0.000199    0.000226
      3          6           0        4.286107   -0.721677    2.424942
      4          7           0        5.385504   -1.078509    1.736476
      5          6           0        5.884705   -2.311990    1.937815
      6          6           0        5.223508   -3.265487    2.705210
      7          6           0        3.987510   -2.951734    3.293007
      8          6           0        3.033513   -3.929550    3.851085
      9          6           0        3.393915   -5.119000    4.521998
     10          6           0        2.437017   -6.006673    5.020478
     11          6           0        1.098217   -5.681197    4.822161
     12          8           0        0.000218   -6.386384    5.227628
     13          6           0       -1.097683   -5.680793    4.822766
     14          6           0       -2.436483   -6.005765    5.021788
     15          6           0       -3.393385   -5.117788    4.523713
     16          6           0       -3.032887   -3.928440    3.852598
     17          6           0       -3.986690   -2.950322    3.294925
     18          6           0       -3.591090   -1.604546    3.221919
     19          6           0       -4.284193   -0.720573    2.425765
     20          7           0       -5.384396   -1.076898    1.738402
     21          6           0       -5.884495   -2.309769    1.940940
     22          6           0       -5.223392   -3.263366    2.708331
     23          6           0       -1.676488   -3.641673    3.653071
     24          6           0       -0.718986   -4.515136    4.139934
     25          6           0        0.719614   -4.515439    4.139531
     26          6           0        1.677112   -3.642179    3.652163
     27          6           0        3.592910   -1.605550    3.221101
     28          1           0        3.907906    0.290137    2.293519
     29          1           0        6.800603   -2.564248    1.400845
     30          1           0        5.638509   -4.273330    2.755200
     31          1           0        4.450016   -5.346167    4.682255
     32          1           0        2.731219   -6.913100    5.550999
     33          1           0       -2.730780   -6.912090    5.552411
     34          1           0       -4.449484   -5.344651    4.684675
     35          1           0       -2.700588   -1.246157    3.736561
     36          1           0       -3.904994    0.290734    2.293442
     37          1           0       -6.800997   -2.561622    1.404674
     38          1           0       -5.639191   -4.270903    2.759122
     39          1           0       -1.364790   -2.756743    3.097313
     40          1           0        1.365410   -2.757147    3.096606
     41          1           0        2.703212   -1.246754    3.736746
     42          6           0        4.285500    2.424843    0.720670
     43          7           0        5.385501    1.736975    1.076694
     44          6           0        5.885306    1.938613    2.309870
     45          6           0        5.224209    2.705510    3.263873
     46          6           0        3.987708    3.292707    2.950829
     47          6           0        3.033911    3.850187    3.929253
     48          6           0        3.394515    4.520602    5.118905
     49          6           0        2.437718    5.018781    6.006984
     50          6           0        1.098917    4.820460    5.681612
     51          8           0        0.001019    5.225726    6.387205
     52          6           0       -1.097083    4.821060    5.681616
     53          6           0       -2.435782    5.020079    6.006892
     54          6           0       -3.392785    4.522400    5.118816
     55          6           0       -3.032489    3.851486    3.929365
     56          6           0       -3.986492    3.294407    2.951045
     57          6           0       -3.590897    3.221502    1.605267
     58          6           0       -4.284200    2.425545    0.721195
     59          7           0       -5.384499    1.738377    1.077422
     60          6           0       -5.884594    1.940813    2.310295
     61          6           0       -5.223291    2.707909    3.264092
     62          6           0       -1.676190    3.651961    3.642294
     63          6           0       -0.718587    4.138627    4.515654
     64          6           0        0.720013    4.138327    4.515652
     65          6           0        1.677410    3.651261    3.642187
     66          6           0        3.592303    3.220603    1.605048
     67          1           0        3.906596    2.293320   -0.290942
     68          1           0        6.801607    1.402043    2.561622
     69          1           0        5.639812    2.755700    4.271514
     70          1           0        4.450716    4.681062    5.345868
     71          1           0        2.732121    5.549004    6.913412
     72          1           0       -2.729879    5.550501    6.913320
     73          1           0       -4.448884    4.683259    5.345783
     74          1           0       -2.700299    3.736048    1.246976
     75          1           0       -3.905104    2.293323   -0.290214
     76          1           0       -6.801093    1.404644    2.562151
     77          1           0       -5.639088    2.758598    4.271632
     78          1           0       -1.364693    3.096502    2.757060
     79          1           0        1.365707    3.096201    2.756852
     80          1           0        2.702001    3.735648    1.246759
     81          6           0        5.885090    2.309562   -1.941524
     82          7           0        5.384291    1.076991   -1.738989
     83          6           0        4.283189    0.721673   -2.425559
     84          6           0        3.590186    1.606351   -3.221019
     85          6           0        3.986785    2.951827   -3.294022
     86          6           0        3.033183    3.930753   -3.850602
     87          6           0        3.393680    5.120305   -4.521218
     88          6           0        2.436778    6.008686   -5.018697
     89          6           0        1.097979    5.683512   -4.819972
     90          8           0       -0.000023    6.389105   -5.224734
     91          6           0       -1.097921    5.683513   -4.819864
     92          6           0       -2.436722    6.008686   -5.018579
     93          6           0       -3.393620    5.120405   -4.520995
     94          6           0       -3.033117    3.930854   -3.850281
     95          6           0       -3.986715    2.952129   -3.293396
     96          6           0       -3.590414    1.606553   -3.220394
     97          6           0       -4.283311    0.722078   -2.424631
     98          7           0       -5.384109    1.077597   -1.737755
     99          6           0       -5.884810    2.310269   -1.940287
    100          6           0       -5.223813    3.264470   -2.707088
    101          6           0       -1.676716    3.643987   -3.650863
    102          6           0       -0.719218    4.517551   -4.137733
    103          6           0        0.719282    4.517451   -4.137737
    104          6           0        1.676784    3.643886   -3.651174
    105          6           0        5.224087    3.263966   -2.708022
    106          1           0        6.802092    2.560610   -1.405952
    107          1           0        3.903490   -0.289535   -2.293237
    108          1           0        2.698984    1.248766   -3.735067
    109          1           0        4.449780    5.347169   -4.682080
    110          1           0        2.731076    6.915215   -5.548921
    111          1           0       -2.731124    6.915214   -5.548901
    112          1           0       -4.449820    5.347269   -4.681749
    113          1           0       -2.699416    1.248769   -3.734547
    114          1           0       -3.903610   -0.289029   -2.292213
    115          1           0       -6.801608    2.561518   -1.404410
    116          1           0       -5.640113    4.271708   -2.757874
    117          1           0       -1.365014    2.758652   -3.095704
    118          1           0        1.365086    2.758348   -3.096311
    119          1           0        5.640487    4.271203   -2.758910
    120          6           0        4.283896   -2.425655   -0.722280
    121          7           0        5.384094   -1.738290   -1.078808
    122          6           0        5.883690   -1.940527   -2.311884
    123          6           0        5.222187   -2.707621   -3.265480
    124          6           0        3.985588   -3.294317   -2.952132
    125          6           0        3.031585   -3.851994   -3.930147
    126          6           0        3.391880   -4.522908   -5.119598
    127          6           0        2.434977   -5.021086   -6.007470
    128          6           0        1.096179   -4.822365   -5.682091
    129          8           0       -0.001824   -5.227530   -6.387477
    130          6           0       -1.099721   -4.822464   -5.681883
    131          6           0       -2.438523   -5.021183   -6.006952
    132          6           0       -3.395320   -4.523104   -5.118872
    133          6           0       -3.034815   -3.852091   -3.929524
    134          6           0       -3.988412   -3.294712   -2.951100
    135          6           0       -3.592207   -3.221908   -1.605524
    136          6           0       -4.284804   -2.425650   -0.721250
    137          7           0       -5.385106   -1.738079   -1.076971
    138          6           0       -5.885710   -1.940513   -2.309641
    139          6           0       -5.225113   -2.707810   -3.263641
    140          6           0       -1.678314   -3.652768   -3.642761
    141          6           0       -0.720917   -4.139834   -4.516226
    142          6           0        0.717683   -4.139734   -4.516332
    143          6           0        1.675186   -3.652669   -3.643074
    144          6           0        3.590393   -3.221612   -1.606252
    145          1           0        3.905099   -2.293533    0.289230
    146          1           0        6.800089   -1.404359   -2.563939
    147          1           0        5.637683   -2.758312   -4.273220
    148          1           0        4.448080   -4.683668   -5.346666
    149          1           0        2.729174   -5.551707   -6.913797
    150          1           0       -2.732926   -5.551805   -6.913276
    151          1           0       -4.451520   -4.683862   -5.345632
    152          1           0       -2.701606   -3.736656   -1.247537
    153          1           0       -3.905201   -2.293429    0.290057
    154          1           0       -6.802211   -1.404041   -2.561092
    155          1           0       -5.641317   -2.758398   -4.270979
    156          1           0       -1.366611   -3.097409   -2.757629
    157          1           0        1.363589   -3.097012   -2.758041
    158          1           0        2.700094   -3.736355   -1.247559
 ---------------------------------------------------------------------

 SCF Done:  E(RPBE1PBE) =  -4373.93266042     A.U. after   19 cycles

 The electronic state is 1-A.
 Alpha  occ. eigenvalues --  -19.30534 -19.30533 -19.30533 -19.30532 -14.48558
 Alpha  occ. eigenvalues --  -14.48557 -14.48556 -14.48555 -14.48555 -14.48555
 Alpha  occ. eigenvalues --  -14.48554 -14.48553 -10.32648 -10.32647 -10.32647
 Alpha  occ. eigenvalues --  -10.32646 -10.32641 -10.32641 -10.32640 -10.32640
 Alpha  occ. eigenvalues --  -10.32260 -10.32260 -10.32259 -10.32259 -10.32259
 Alpha  occ. eigenvalues --  -10.32259 -10.32258 -10.32258 -10.32078 -10.32077
 Alpha  occ. eigenvalues --  -10.32077 -10.32076 -10.32076 -10.32075 -10.32072
 Alpha  occ. eigenvalues --  -10.32071 -10.30819 -10.30819 -10.30819 -10.30819
 Alpha  occ. eigenvalues --  -10.30818 -10.30818 -10.30817 -10.30816 -10.28641
 Alpha  occ. eigenvalues --  -10.28641 -10.28641 -10.28640 -10.28640 -10.28639
 Alpha  occ. eigenvalues --  -10.28639 -10.28639 -10.28261 -10.28261 -10.28261
 Alpha  occ. eigenvalues --  -10.28261 -10.28261 -10.28261 -10.28259 -10.28259
 Alpha  occ. eigenvalues --  -10.28068 -10.28068 -10.28067 -10.28067 -10.28067
 Alpha  occ. eigenvalues --  -10.28067 -10.28066 -10.28066 -10.27435 -10.27434
 Alpha  occ. eigenvalues --  -10.27434 -10.27434 -10.27433 -10.27433 -10.27433
 Alpha  occ. eigenvalues --  -10.27432 -10.27390 -10.27390 -10.27390 -10.27389
 Alpha  occ. eigenvalues --  -10.27377 -10.27377 -10.27377 -10.27377 -10.27132
 Alpha  occ. eigenvalues --  -10.27131 -10.27131 -10.27131 -10.27117 -10.27116
 Alpha  occ. eigenvalues --  -10.27116 -10.27116 -10.27112 -10.27110 -10.27110
 Alpha  occ. eigenvalues --  -10.27110 -10.27110 -10.27110 -10.27110 -10.27109
 Alpha  occ. eigenvalues --   -3.57487  -3.57486  -2.25328  -2.25327  -2.25327
 Alpha  occ. eigenvalues --   -2.25326  -2.21102  -2.21101  -1.16317  -1.16316
 Alpha  occ. eigenvalues --   -1.16313  -1.16310  -1.03822  -1.03821  -1.03031
 Alpha  occ. eigenvalues --   -1.03031  -1.03030  -1.03030  -1.02640  -1.02640
 Alpha  occ. eigenvalues --   -0.92463  -0.92436  -0.92436  -0.92429  -0.91866
 Alpha  occ. eigenvalues --   -0.91825  -0.91825  -0.91815  -0.88219  -0.88053
 Alpha  occ. eigenvalues --   -0.88053  -0.88030  -0.87777  -0.87615  -0.87615
 Alpha  occ. eigenvalues --   -0.87594  -0.83284  -0.83244  -0.83229  -0.83229
 Alpha  occ. eigenvalues --   -0.83162  -0.83030  -0.82888  -0.82887  -0.82807
 Alpha  occ. eigenvalues --   -0.82806  -0.82674  -0.82615  -0.80838  -0.80743
 Alpha  occ. eigenvalues --   -0.80736  -0.80735  -0.78889  -0.78792  -0.78779
 Alpha  occ. eigenvalues --   -0.78779  -0.77319  -0.77310  -0.77308  -0.77308
 Alpha  occ. eigenvalues --   -0.71322  -0.71287  -0.71187  -0.71125  -0.71124
 Alpha  occ. eigenvalues --   -0.71115  -0.71115  -0.71077  -0.70324  -0.69959
 Alpha  occ. eigenvalues --   -0.69959  -0.69768  -0.69710  -0.69582  -0.69582
 Alpha  occ. eigenvalues --   -0.69551  -0.67903  -0.67788  -0.67785  -0.67785
 Alpha  occ. eigenvalues --   -0.64979  -0.64970  -0.64969  -0.64967  -0.63772
 Alpha  occ. eigenvalues --   -0.63768  -0.63767  -0.63751  -0.62829  -0.62822
 Alpha  occ. eigenvalues --   -0.62812  -0.62812  -0.60593  -0.59849  -0.59835
 Alpha  occ. eigenvalues --   -0.59835  -0.59676  -0.58832  -0.58758  -0.58756
 Alpha  occ. eigenvalues --   -0.57621  -0.57441  -0.57171  -0.57171  -0.57015
 Alpha  occ. eigenvalues --   -0.56897  -0.56867  -0.56867  -0.55320  -0.55147
 Alpha  occ. eigenvalues --   -0.55147  -0.55073  -0.54646  -0.54338  -0.53735
 Alpha  occ. eigenvalues --   -0.53735  -0.53515  -0.53334  -0.52797  -0.52796
 Alpha  occ. eigenvalues --   -0.52541  -0.52075  -0.52075  -0.52022  -0.52022
 Alpha  occ. eigenvalues --   -0.51992  -0.51856  -0.51775  -0.51441  -0.51306
 Alpha  occ. eigenvalues --   -0.51282  -0.51280  -0.51274  -0.50659  -0.50547
 Alpha  occ. eigenvalues --   -0.50418  -0.50248  -0.50247  -0.49493  -0.49341
 Alpha  occ. eigenvalues --   -0.49235  -0.49235  -0.48896  -0.48869  -0.48868
 Alpha  occ. eigenvalues --   -0.48849  -0.48738  -0.48737  -0.48347  -0.48091
 Alpha  occ. eigenvalues --   -0.48091  -0.47968  -0.47750  -0.47658  -0.47524
 Alpha  occ. eigenvalues --   -0.47523  -0.47453  -0.47168  -0.47166  -0.47062
 Alpha  occ. eigenvalues --   -0.46681  -0.46663  -0.46661  -0.46534  -0.46506
 Alpha  occ. eigenvalues --   -0.46357  -0.46356  -0.46315  -0.45823  -0.45807
 Alpha  occ. eigenvalues --   -0.45098  -0.45097  -0.43669  -0.43665  -0.43176
 Alpha  occ. eigenvalues --   -0.43156  -0.42561  -0.42560  -0.42448  -0.42441
 Alpha  occ. eigenvalues --   -0.42440  -0.42382  -0.42086  -0.41966  -0.41965
 Alpha  occ. eigenvalues --   -0.41950  -0.41857  -0.41856  -0.41276  -0.41134
 Alpha  occ. eigenvalues --   -0.41133  -0.41027  -0.40957  -0.40707  -0.40681
 Alpha  occ. eigenvalues --   -0.40681  -0.40571  -0.40396  -0.40333  -0.40242
 Alpha  occ. eigenvalues --   -0.39043  -0.39042  -0.38981  -0.38908  -0.38226
 Alpha  occ. eigenvalues --   -0.38185  -0.37444  -0.37444  -0.37379  -0.37185
 Alpha  occ. eigenvalues --   -0.37050  -0.37049  -0.37008  -0.37007  -0.36473
 Alpha  occ. eigenvalues --   -0.36472  -0.36239  -0.36238  -0.35751  -0.35694
 Alpha  occ. eigenvalues --   -0.34352  -0.34073  -0.33449  -0.33448  -0.33318
 Alpha  occ. eigenvalues --   -0.33273  -0.32930  -0.32929  -0.32584  -0.32309
 Alpha  occ. eigenvalues --   -0.32301  -0.32301  -0.31895  -0.31894  -0.31578
 Alpha  occ. eigenvalues --   -0.31577  -0.31176  -0.31170  -0.29703  -0.29422
 Alpha  occ. eigenvalues --   -0.29374  -0.29288  -0.29288  -0.29282  -0.26595
 Alpha  occ. eigenvalues --   -0.26485  -0.26452  -0.26452  -0.26452  -0.26423
 Alpha  occ. eigenvalues --   -0.26399  -0.26398
 Alpha virt. eigenvalues --   -0.11866  -0.11748  -0.09792  -0.09393  -0.09392
 Alpha virt. eigenvalues --   -0.09282  -0.08848  -0.08847  -0.07927  -0.07483
 Alpha virt. eigenvalues --   -0.06711  -0.06603  -0.06602  -0.06550  -0.06312

 Mulliken charges:
               1
     1  Pd   0.535781
     2  Pd   0.535524
     3  C    0.136954
     4  N   -0.334542
     5  C    0.118359
     6  C   -0.020354
     7  C    0.043881
     8  C    0.031394
     9  C   -0.022613
    10  C   -0.080288
    11  C    0.221327
    12  O   -0.271725
    13  C    0.221342
    14  C   -0.080326
    15  C   -0.022687
    16  C    0.031493
    17  C    0.044031
    18  C   -0.033469
    19  C    0.136949
    20  N   -0.334481
    21  C    0.118388
    22  C   -0.020487
    23  C   -0.068163
    24  C    0.018962
    25  C    0.018939
    26  C   -0.068032
    27  C   -0.033278
    28  H    0.088971
    29  H    0.111529
    30  H    0.070692
    31  H    0.053528
    32  H    0.050993
    33  H    0.050983
    34  H    0.053554
    35  H    0.070436
    36  H    0.088980
    37  H    0.111562
    38  H    0.070721
    39  H    0.044108
    40  H    0.044111
    41  H    0.070402
    42  C    0.136908
    43  N   -0.334495
    44  C    0.118265
    45  C   -0.020415
    46  C    0.043979
    47  C    0.031446
    48  C   -0.022732
    49  C   -0.080254
    50  C    0.221349
    51  O   -0.271858
    52  C    0.221368
    53  C   -0.080274
    54  C   -0.022684
    55  C    0.031515
    56  C    0.044005
    57  C   -0.033440
    58  C    0.136873
    59  N   -0.334382
    60  C    0.118413
    61  C   -0.020510
    62  C   -0.068241
    63  C    0.019066
    64  C    0.019062
    65  C   -0.068129
    66  C   -0.033399
    67  H    0.088990
    68  H    0.111524
    69  H    0.070729
    70  H    0.053581
    71  H    0.050945
    72  H    0.050947
    73  H    0.053554
    74  H    0.070446
    75  H    0.088988
    76  H    0.111539
    77  H    0.070738
    78  H    0.044133
    79  H    0.044087
    80  H    0.070438
    81  C    0.118487
    82  N   -0.334549
    83  C    0.136838
    84  C   -0.033512
    85  C    0.044049
    86  C    0.031574
    87  C   -0.022684
    88  C   -0.080321
    89  C    0.221355
    90  O   -0.271727
    91  C    0.221362
    92  C   -0.080348
    93  C   -0.022700
    94  C    0.031513
    95  C    0.044057
    96  C   -0.033508
    97  C    0.136854
    98  N   -0.334533
    99  C    0.118486
   100  C   -0.020453
   101  C   -0.068199
   102  C    0.018982
   103  C    0.019029
   104  C   -0.068289
   105  C   -0.020464
   106  H    0.111512
   107  H    0.089064
   108  H    0.070492
   109  H    0.053549
   110  H    0.050980
   111  H    0.051022
   112  H    0.053592
   113  H    0.070449
   114  H    0.089050
   115  H    0.111533
   116  H    0.070683
   117  H    0.044145
   118  H    0.044130
   119  H    0.070712
   120  C    0.136850
   121  N   -0.334535
   122  C    0.118501
   123  C   -0.020523
   124  C    0.044057
   125  C    0.031485
   126  C   -0.022777
   127  C   -0.080238
   128  C    0.221258
   129  O   -0.271784
   130  C    0.221368
   131  C   -0.080340
   132  C   -0.022702
   133  C    0.031437
   134  C    0.044098
   135  C   -0.033524
   136  C    0.136757
   137  N   -0.334448
   138  C    0.118493
   139  C   -0.020453
   140  C   -0.068176
   141  C    0.019030
   142  C    0.019083
   143  C   -0.068153
   144  C   -0.033432
   145  H    0.089040
   146  H    0.111525
   147  H    0.070764
   148  H    0.053608
   149  H    0.050969
   150  H    0.051000
   151  H    0.053567
   152  H    0.070460
   153  H    0.089100
   154  H    0.111560
   155  H    0.070701
   156  H    0.044097
   157  H    0.044105
   158  H    0.070438
 Sum of Mulliken charges =   4.00000

 Dipole moment (field-independent basis, Debye):
    X=              0.0019    Y=             -0.0003    Z=             -0.0076  Tot=              0.0078
 Quadrupole moment (field-independent basis, Debye-Ang):
   XX=           -122.9868   YY=           -398.3895   ZZ=           -398.4195
   XY=             -0.0291   XZ=             -0.0361   YZ=             -0.0222

 Normal termination of Gaussian 16 at Fri Jun  2 07:12:20 2023.
