 Gaussian 16, Revision C.01,
 Gaussian 16:  ES64L-G16RevC.01  3-Jul-2019

 ----------------------------------------------------------------------
 #P PBE1PBE/Def2TZVP SP SCF=(YQC,MaxCycle=900) int=(Grid=Superfinegrid)
  EmpiricalDispersion=GD3 SCRF=(PCM,Solvent=Dichloromethane)
 ----------------------------------------------------------------------

 -------------------------
 _1_alde1_3_ami3_1_opt_dcm
 -------------------------
 Symbolic Z-matrix:
 Charge =  0 Multiplicity = 1

                         Standard orientation:
 ---------------------------------------------------------------------
 Center     Atomic      Atomic             Coordinates (Angstroms)
 Number     Number       Type             X           Y           Z
 ---------------------------------------------------------------------
      1          6           0        1.329728   -0.402172   -1.350807
      2          6           0        2.784498   -0.802552   -1.307453
      3          6           0        0.320392   -1.349581   -1.347463
      4          6           0       -1.013010   -0.956269   -1.348170
      5          1           0        0.575086   -2.397501   -1.359316
      6          6           0       -1.328735    0.391688   -1.347591
      7          6           0       -0.321473    1.349789   -1.350650
      8          1           0       -2.363578    0.695258   -1.359988
      9          6           0        1.003725    0.949234   -1.350178
     10          6           0       -0.701746    2.809918   -1.306139
     11          1           0        1.784097    1.693665   -1.364351
     12          6           0       -2.087752   -2.015242   -1.301752
     13          6           0        4.143180   -1.644057    0.377846
     14          6           0        3.362151   -2.799134   -0.273011
     15          7           0        3.357598   -0.472596    0.019803
     16          7           0        2.968918   -2.243332   -1.559525
     17          6           0       -4.107376   -1.508153   -0.275463
     18          6           0       -3.501088   -2.758823    0.384880
     19          7           0       -3.426525   -1.454979   -1.560768
     20          7           0       -2.092849   -2.668754    0.029461
     21          6           0        0.744947    4.305315   -0.276921
     22          6           0       -0.642531    4.405686    0.380880
     23          7           0        0.452898    3.689565   -1.563024
     24          7           0       -1.268334    3.141408    0.023730
     25          1           0        0.202680    4.405643   -2.237035
     26          1           0       -1.482463    2.994793   -2.057059
     27          1           0       -0.989282    2.424564    0.689572
     28          1           0        3.333433   -0.221502   -2.061613
     29          1           0        2.598769   -0.355949    0.687387
     30          1           0       -3.920929   -2.030343   -2.234721
     31          1           0       -1.612744   -2.066921    0.694666
     32          1           0       -1.857336   -2.785631   -2.050832
     33          6           0        4.185057   -4.070768   -0.254809
     34          1           0        3.711153   -2.386853   -2.236406
     35          6           0       -5.620308   -1.582083   -0.260083
     36          6           0        1.437542    5.652440   -0.259867
     37          1           0        2.437502   -2.960556    0.300608
     38          6           0        4.496495   -4.395955    1.209783
     39          1           0        5.113434   -3.921146   -0.812204
     40          1           0        3.638316   -4.894326   -0.717028
     41          6           0        5.192032   -3.235543    1.928021
     42          1           0        5.131229   -5.282624    1.262034
     43          1           0        3.560621   -4.625750    1.724574
     44          6           0        4.387897   -1.933899    1.844680
     45          1           0        5.349081   -3.503341    2.974773
     46          1           0        6.173170   -3.071602    1.476103
     47          1           0        4.938298   -1.118190    2.316344
     48          1           0        3.432872   -2.048186    2.364090
     49          1           0        5.111211   -1.541376   -0.135233
     50          1           0       -3.784530   -0.623605    0.293237
     51          6           0       -6.060861   -1.678719    1.204330
     52          1           0       -5.955345   -2.463959   -0.812367
     53          1           0       -6.057383   -0.699043   -0.728920
     54          6           0       -5.407462   -2.857837    1.931464
     55          1           0       -7.146506   -1.782744    1.254976
     56          1           0       -5.791349   -0.750604    1.713573
     57          6           0       -3.877773   -2.815671    1.851224
     58          1           0       -5.756822   -3.791756    1.484791
     59          1           0       -5.720224   -2.852749    2.977527
     60          1           0       -3.896505   -3.651209   -0.123340
     61          1           0       -3.449353   -3.698014    2.329626
     62          1           0       -3.498870   -1.928880    2.365881
     63          1           0        1.348474    3.583153    0.292629
     64          6           0        1.571476    6.081831    1.204950
     65          1           0        0.842418    6.383785   -0.813007
     66          1           0        2.421580    5.589637   -0.727029
     67          6           0        0.222455    6.105299    1.929840
     68          1           0        2.024250    7.073940    1.256742
     69          1           0        2.239691    5.384019    1.715117
     70          6           0       -0.505936    4.759648    1.847585
     71          1           0       -0.410752    6.875142    1.482421
     72          1           0        0.381480    6.373112    2.976257
     73          1           0       -1.485038    4.829620    2.324248
     74          1           0        0.071529    3.987723    2.362830
     75          1           0       -1.216454    5.194789   -0.128037
 ---------------------------------------------------------------------

 SCF Done:  E(RPBE1PBE) =  -1381.60584352     a.u. after    6 cycles
 SCF Done:  E(RPBE1PBE) =  -1381.60586962     A.U. after    8 cycles

 The electronic state is 1-A.
 Alpha  occ. eigenvalues --  -14.36799 -14.36796 -14.36792 -14.36657 -14.36654
 Alpha  occ. eigenvalues --  -14.36651 -10.27402 -10.27401 -10.27398 -10.23933
 Alpha  occ. eigenvalues --  -10.23931 -10.23929 -10.23908 -10.23907 -10.23904
 Alpha  occ. eigenvalues --  -10.22588 -10.22587 -10.22586 -10.21549 -10.21548
 Alpha  occ. eigenvalues --  -10.21546 -10.21520 -10.21518 -10.21515 -10.21505
 Alpha  occ. eigenvalues --  -10.21504 -10.21502 -10.21477 -10.21476 -10.21475
 Alpha  occ. eigenvalues --  -10.21373 -10.21372 -10.21368  -0.98955  -0.98821
 Alpha  occ. eigenvalues --   -0.98818  -0.88804  -0.87847  -0.87845  -0.87802
 Alpha  occ. eigenvalues --   -0.85255  -0.85253  -0.84592  -0.79197  -0.79195
 Alpha  occ. eigenvalues --   -0.75887  -0.75884  -0.75879  -0.74939  -0.73434
 Alpha  occ. eigenvalues --   -0.73433  -0.66112  -0.66111  -0.65301  -0.62366
 Alpha  occ. eigenvalues --   -0.62365  -0.62065  -0.61952  -0.61917  -0.61913
 Alpha  occ. eigenvalues --   -0.59198  -0.59196  -0.59008  -0.57578  -0.57575
 Alpha  occ. eigenvalues --   -0.52834  -0.52355  -0.51150  -0.51149  -0.50250
 Alpha  occ. eigenvalues --   -0.49409  -0.49405  -0.48090  -0.47631  -0.47629
 Alpha  occ. eigenvalues --   -0.47305  -0.46992  -0.46990  -0.46070  -0.45259
 Alpha  occ. eigenvalues --   -0.44773  -0.44770  -0.43620  -0.43619  -0.43203
 Alpha  occ. eigenvalues --   -0.41200  -0.41116  -0.41113  -0.40939  -0.40938
 Alpha  occ. eigenvalues --   -0.40674  -0.39766  -0.39453  -0.39450  -0.38363
 Alpha  occ. eigenvalues --   -0.37311  -0.37306  -0.36484  -0.36482  -0.36343
 Alpha  occ. eigenvalues --   -0.35750  -0.35748  -0.35730  -0.35063  -0.34394
 Alpha  occ. eigenvalues --   -0.34393  -0.33660  -0.33657  -0.33623  -0.32918
 Alpha  occ. eigenvalues --   -0.32916  -0.32831  -0.32250  -0.32249  -0.32211
 Alpha  occ. eigenvalues --   -0.26628  -0.26625  -0.24998  -0.24542  -0.24288
 Alpha  occ. eigenvalues --   -0.24284  -0.23835  -0.23834
 Alpha virt. eigenvalues --   -0.00634  -0.00627   0.03545   0.04774   0.04871
 Alpha virt. eigenvalues --    0.04873   0.05097   0.05099   0.05609   0.06628
 Alpha virt. eigenvalues --    0.06630   0.06984   0.07554   0.07563   0.08730

 Mulliken charges:
               1
     1  C    0.153419
     2  C    0.024977
     3  C   -0.347889
     4  C    0.153957
     5  H    0.130555
     6  C   -0.347546
     7  C    0.152991
     8  H    0.131014
     9  C   -0.347627
    10  C    0.025536
    11  H    0.130898
    12  C    0.024807
    13  C   -0.067339
    14  C   -0.083414
    15  N   -0.297410
    16  N   -0.282321
    17  C   -0.083554
    18  C   -0.066742
    19  N   -0.282330
    20  N   -0.297525
    21  C   -0.082707
    22  C   -0.067226
    23  N   -0.282525
    24  N   -0.297656
    25  H    0.204879
    26  H    0.096699
    27  H    0.206529
    28  H    0.096555
    29  H    0.206354
    30  H    0.204797
    31  H    0.206417
    32  H    0.096667
    33  C   -0.152980
    34  H    0.204840
    35  C   -0.153083
    36  C   -0.153455
    37  H    0.068104
    38  C   -0.199208
    39  H    0.098337
    40  H    0.108974
    41  C   -0.200636
    42  H    0.115259
    43  H    0.100336
    44  C   -0.161330
    45  H    0.114770
    46  H    0.100151
    47  H    0.108702
    48  H    0.098493
    49  H    0.062050
    50  H    0.068162
    51  C   -0.199330
    52  H    0.098412
    53  H    0.108986
    54  C   -0.200678
    55  H    0.115243
    56  H    0.100375
    57  C   -0.161771
    58  H    0.100163
    59  H    0.114767
    60  H    0.062100
    61  H    0.108624
    62  H    0.098608
    63  H    0.068197
    64  C   -0.199189
    65  H    0.098492
    66  H    0.108915
    67  C   -0.200752
    68  H    0.115220
    69  H    0.100320
    70  C   -0.161636
    71  H    0.100104
    72  H    0.114787
    73  H    0.108640
    74  H    0.098601
    75  H    0.062078
 Sum of Mulliken charges =   0.00000

 Dipole moment (field-independent basis, Debye):
    X=              0.0088    Y=              0.0033    Z=              2.6391  Tot=              2.6391
 Quadrupole moment (field-independent basis, Debye-Ang):
   XX=           -183.6890   YY=           -183.7817   ZZ=           -198.6886
   XY=             -0.0169   XZ=             -0.0002   YZ=              0.0199

 Normal termination of Gaussian 16 at Mon Oct 18 10:22:44 2021.
