 Gaussian 16, Revision C.01,
 Gaussian 16:  ES64L-G16RevC.01  3-Jul-2019

 ----------------------------------------------------------------------
 #P MP2/aug-cc-pVDZ SP SCF=(YQC,MaxCycle=900) int=(Grid=Superfinegrid)
 SCRF=(PCM,Solvent=Dichloromethane)
 ----------------------------------------------------------------------

 -----------------------------
 _1_alde1_2_ami2_1_opt_dcm_mp2
 -----------------------------
 Symbolic Z-matrix:
 Charge =  0 Multiplicity = 1

                         Standard orientation:
 ---------------------------------------------------------------------
 Center     Atomic      Atomic             Coordinates (Angstroms)
 Number     Number       Type             X           Y           Z
 ---------------------------------------------------------------------
      1          6           0       -0.437457    2.506953    0.050321
      2          6           0       -0.924964    3.889890    0.019304
      3          6           0       -1.344261    1.449446   -0.009493
      4          6           0       -0.894742    0.140242    0.018986
      5          1           0       -2.399627    1.660250   -0.094223
      6          6           0        0.467944   -0.109823    0.111690
      7          6           0        1.381721    0.934373    0.183063
      8          1           0        0.837458   -1.123827    0.141291
      9          6           0        0.927271    2.242424    0.148449
     10          6           0        2.860976    0.652089    0.243420
     11          1           0        1.634355    3.058169    0.193160
     12          6           0       -1.885991   -0.993620   -0.001895
     13          8           0       -2.081211    4.224762   -0.031736
     14          6           0       -4.233142   -1.335827   -0.204265
     15          6           0       -3.647165   -1.958039    1.092169
     16          7           0       -3.072762   -0.655957   -0.786675
     17          6           0       -5.299568   -0.284359    0.119711
     18          7           0       -2.386431   -1.275130    1.334958
     19          1           0       -3.426383   -3.018186    0.931045
     20          1           0       -6.173597   -0.752020    0.566522
     21          6           0        4.699976    0.004271   -0.949407
     22          6           0        4.392097   -1.155655    0.036571
     23          7           0        3.468475    0.767307   -1.073939
     24          1           0        5.045859   -0.343655   -1.920594
     25          7           0        3.148652   -0.714576    0.675348
     26          6           0        4.113341   -2.461028   -0.716316
     27          1           0        3.778302   -3.225852   -0.020213
     28          1           0        2.854804    0.321098   -1.750590
     29          1           0        3.350107    1.406166    0.890816
     30          1           0        3.162696   -0.811794    1.681666
     31          1           0       -2.958240   -0.837620   -1.774378
     32          1           0       -2.561952   -0.390221    1.803698
     33          1           0       -1.389319   -1.914615   -0.363897
     34          1           0       -0.114452    4.646688    0.050963
     35          1           0       -4.313838   -1.865194    1.947178
     36          1           0       -4.900369    0.454256    0.810431
     37          1           0       -5.600590    0.230041   -0.789303
     38          1           0        5.459603    0.665928   -0.521233
     39          1           0        5.011644   -2.811152   -1.218795
     40          1           0        3.330557   -2.306458   -1.455011
     41          6           0        5.527991   -1.357232    1.039073
     42          1           0        6.451657   -1.598172    0.518002
     43          1           0        5.291169   -2.173806    1.718454
     44          1           0        5.686805   -0.451973    1.623238
     45          6           0       -4.811426   -2.406409   -1.129445
     46          1           0       -5.215625   -1.948000   -2.029979
     47          1           0       -5.611631   -2.945245   -0.627385
     48          1           0       -4.040844   -3.120592   -1.416444
 ---------------------------------------------------------------------

 SCF Done:  E(RHF) =  -951.670679910     a.u. after    6 cycles
 SCF Done:  E(RHF) =  -951.670754348     A.U. after   12 cycles
 E2 =    -0.3308550825D+01 EUMP2 =    -0.95497930517234D+03

 The electronic state is 1-A.
 Alpha  occ. eigenvalues --  -20.56983 -15.55711 -15.55613 -15.54317 -15.54136
 Alpha  occ. eigenvalues --  -11.34445 -11.29284 -11.29108 -11.26140 -11.25998
 Alpha  occ. eigenvalues --  -11.25424 -11.25002 -11.24905 -11.24868 -11.24699
 Alpha  occ. eigenvalues --  -11.24600 -11.24537 -11.24430 -11.21753 -11.21667
 Alpha  occ. eigenvalues --  -11.21122 -11.20962  -1.40693  -1.28339  -1.28152
 Alpha  occ. eigenvalues --   -1.17546  -1.15068  -1.14906  -1.07911  -1.07064
 Alpha  occ. eigenvalues --   -1.03564  -1.02124  -0.93675  -0.93556  -0.92332
 Alpha  occ. eigenvalues --   -0.92282  -0.89652  -0.86676  -0.85333  -0.79695
 Alpha  occ. eigenvalues --   -0.77524  -0.76593  -0.76429  -0.71529  -0.70121
 Alpha  occ. eigenvalues --   -0.68063  -0.67742  -0.66406  -0.65629  -0.64228
 Alpha  occ. eigenvalues --   -0.61975  -0.60645  -0.60550  -0.59925  -0.59703
 Alpha  occ. eigenvalues --   -0.58876  -0.57757  -0.56750  -0.56228  -0.56086
 Alpha  occ. eigenvalues --   -0.55308  -0.54795  -0.54376  -0.54270  -0.51544
 Alpha  occ. eigenvalues --   -0.51172  -0.51035  -0.50879  -0.50464  -0.50214
 Alpha  occ. eigenvalues --   -0.48680  -0.48469  -0.47268  -0.46775  -0.46729
 Alpha  occ. eigenvalues --   -0.43016  -0.38952  -0.38849  -0.37108  -0.36616
 Alpha  occ. eigenvalues --   -0.34583  -0.33492
 Alpha virt. eigenvalues --    0.03483   0.03857   0.04083   0.04392   0.04701
 Alpha virt. eigenvalues --    0.05031   0.05105   0.05513   0.06068   0.06206
 Alpha virt. eigenvalues --    0.06274   0.06410   0.06814   0.06930   0.07248

 Mulliken charges:
               1
     1  C    0.471804
     2  C    1.287642
     3  C   -0.118491
     4  C    1.065421
     5  H   -0.845147
     6  C    0.543999
     7  C    0.985869
     8  H   -0.840876
     9  C    0.109497
    10  C    0.450674
    11  H   -0.757701
    12  C    0.352093
    13  O   -0.848494
    14  C   -2.293602
    15  C    1.351098
    16  N   -0.309666
    17  C    1.157788
    18  N   -0.662722
    19  H   -0.274290
    20  H   -0.013668
    21  C    1.411904
    22  C   -2.376427
    23  N   -0.683936
    24  H   -0.182584
    25  N   -0.356926
    26  C    1.110926
    27  H   -0.075257
    28  H    0.093514
    29  H   -0.203880
    30  H   -0.035270
    31  H   -0.064523
    32  H    0.092282
    33  H   -0.345051
    34  H   -0.332250
    35  H   -0.199874
    36  H   -0.073233
    37  H   -0.092161
    38  H   -0.279400
    39  H   -0.013139
    40  H   -0.051468
    41  C    1.009435
    42  H   -0.031567
    43  H   -0.009543
    44  H   -0.027837
    45  C    0.983281
    46  H   -0.008510
    47  H   -0.028064
    48  H   -0.041668
 Sum of Mulliken charges =   0.00000

 Dipole moment (field-independent basis, Debye):
    X=              3.6534    Y=             -4.4732    Z=             -0.0077  Tot=              5.7755
 Quadrupole moment (field-independent basis, Debye-Ang):
   XX=           -122.8381   YY=           -148.3996   ZZ=           -132.9763
   XY=             15.9532   XZ=              3.7489   YZ=              6.7811

 Normal termination of Gaussian 16 at Tue Oct 26 06:58:43 2021.
