 Gaussian 16, Revision C.01,
 Gaussian 16:  ES64L-G16RevC.01  3-Jul-2019

 ---------------------------------------------------------------------
 #P MP2/aug-cc-pVDZ SP SCF=(YQC,MaxCycle=900) int=(Grid=Superfinegrid)
 ---------------------------------------------------------------------

 -----------------------------
 _1_alde1_2_ami1_2_opt_gas_mp2
 -----------------------------
 Symbolic Z-matrix:
 Charge =  0 Multiplicity = 1

                         Standard orientation:
 ---------------------------------------------------------------------
 Center     Atomic      Atomic             Coordinates (Angstroms)
 Number     Number       Type             X           Y           Z
 ---------------------------------------------------------------------
      1          6           0        0.013202   -0.162008    2.237961
      2          6           0       -0.004966   -0.266537    3.704936
      3          6           0        1.211755    0.047341    1.562934
      4          6           0        1.229416    0.146686    0.173341
      5          1           0        2.144105    0.138658    2.098874
      6          6           0        0.033189    0.031273   -0.531471
      7          6           0       -1.173985   -0.178893    0.131584
      8          1           0        0.042424    0.106628   -1.610832
      9          6           0       -1.175622   -0.273437    1.520610
     10          6           0       -2.413879   -0.299245   -0.622994
     11          1           0       -2.105109   -0.437352    2.043207
     12          6           0        2.479690    0.370374   -0.538746
     13          8           0       -0.986213   -0.445301    4.378173
     14          6           0        4.802952    0.657011   -0.637620
     15          6           0        5.742259   -0.537244   -0.285975
     16          7           0        3.580954    0.448411    0.069384
     17          1           0        4.653643    0.686906   -1.731328
     18          6           0        5.381330    2.024306   -0.205448
     19          7           0        6.052560   -0.608542    1.127949
     20          1           0        6.682521   -0.404017   -0.830981
     21          6           0        5.137842   -1.890222   -0.714339
     22          1           0        5.449354    2.036606    0.887357
     23          6           0        4.427377    3.141447   -0.628781
     24          6           0        6.762322    2.277475   -0.805254
     25          1           0        4.208688   -2.035420   -0.151763
     26          6           0        6.108867   -3.012290   -0.350120
     27          6           0        4.829254   -1.951752   -2.208716
     28          1           0        7.510072    1.598609   -0.403953
     29          1           0        7.077903    3.294124   -0.580450
     30          1           0        6.732917    2.160666   -1.886818
     31          1           0        4.807165    4.105410   -0.297934
     32          1           0        3.441551    2.994515   -0.193177
     33          1           0        4.328008    3.165609   -1.712620
     34          1           0        4.556557   -2.968166   -2.484601
     35          1           0        5.703023   -1.663069   -2.789897
     36          1           0        4.001095   -1.302110   -2.478661
     37          1           0        5.652444   -3.982092   -0.533529
     38          1           0        6.384386   -2.940373    0.697005
     39          1           0        7.012203   -2.935231   -0.951095
     40          6           0       -5.667210    0.604368   -0.296456
     41          6           0       -4.738599   -0.552014   -0.782101
     42          7           0       -5.990737    0.512195    1.112236
     43          1           0       -6.603453    0.548232   -0.861845
     44          6           0       -5.043142    1.990875   -0.556901
     45          7           0       -3.523270   -0.446795   -0.044525
     46          1           0       -4.579310   -0.452135   -1.870493
     47          6           0       -5.338415   -1.952983   -0.520814
     48          1           0       -4.117093    2.056210    0.025193
     49          6           0       -6.003569    3.073706   -0.067358
     50          6           0       -4.722571    2.226589   -2.031382
     51          1           0       -5.417418   -2.093447    0.562070
     52          6           0       -4.392840   -3.024109   -1.064626
     53          6           0       -6.715820   -2.114998   -1.159060
     54          1           0       -3.901143    1.602408   -2.372669
     55          1           0       -4.434840    3.264808   -2.182211
     56          1           0       -5.595716    2.021446   -2.647981
     57          1           0       -6.286104    2.881338    0.962523
     58          1           0       -6.904118    3.079263   -0.677578
     59          1           0       -5.534960    4.052830   -0.132475
     60          1           0       -7.046076   -3.146769   -1.059045
     61          1           0       -6.673713   -1.871464   -2.218968
     62          1           0       -7.459354   -1.478506   -0.686724
     63          1           0       -3.411819   -2.944513   -0.601659
     64          1           0       -4.278475   -2.918956   -2.142226
     65          1           0       -4.789128   -4.015577   -0.857235
     66          1           0        0.996947   -0.164581    4.168546
     67          1           0       -5.130093    0.479635    1.648683
     68          1           0       -6.512727   -0.333035    1.309241
     69          1           0        6.568565    0.210642    1.425685
     70          1           0        5.184943   -0.639669    1.653067
     71          1           0       -2.315160   -0.255722   -1.719769
     72          1           0        2.397428    0.468878   -1.632861
 ---------------------------------------------------------------------

 SCF Done:  E(RHF) =  -1263.93719227     a.u. after    7 cycles
 SCF Done:  E(RHF) =  -1263.93723536     A.U. after   12 cycles
 E2 =    -0.4527581246D+01 EUMP2 =    -0.12684648166053D+04

 The electronic state is 1-A.
 Alpha  occ. eigenvalues --  -20.57080 -15.57253 -15.56936 -15.53971 -15.53394
 Alpha  occ. eigenvalues --  -11.34581 -11.30004 -11.29627 -11.27676 -11.27227
 Alpha  occ. eigenvalues --  -11.26653 -11.26616 -11.26464 -11.26238 -11.26141
 Alpha  occ. eigenvalues --  -11.25758 -11.25579 -11.25174 -11.23686 -11.23271
 Alpha  occ. eigenvalues --  -11.22467 -11.22466 -11.22107 -11.22100 -11.22008
 Alpha  occ. eigenvalues --  -11.21847 -11.21635 -11.21563 -11.20168 -11.19816
 Alpha  occ. eigenvalues --   -1.40598  -1.26792  -1.26385  -1.19825  -1.18790
 Alpha  occ. eigenvalues --   -1.17893  -1.09676  -1.08993  -1.07149  -1.06610
 Alpha  occ. eigenvalues --   -1.06242  -1.05723  -0.97387  -0.96554  -0.93972
 Alpha  occ. eigenvalues --   -0.93610  -0.92612  -0.92292  -0.91140  -0.90109
 Alpha  occ. eigenvalues --   -0.87945  -0.85812  -0.83457  -0.79151  -0.77939
 Alpha  occ. eigenvalues --   -0.77686  -0.77340  -0.75585  -0.75221  -0.72167
 Alpha  occ. eigenvalues --   -0.70074  -0.68361  -0.67523  -0.66225  -0.65513
 Alpha  occ. eigenvalues --   -0.65445  -0.65027  -0.63770  -0.63320  -0.63019
 Alpha  occ. eigenvalues --   -0.62262  -0.61919  -0.61352  -0.60367  -0.59938
 Alpha  occ. eigenvalues --   -0.59250  -0.58906  -0.57144  -0.56987  -0.56535
 Alpha  occ. eigenvalues --   -0.55580  -0.55265  -0.54409  -0.54246  -0.53981
 Alpha  occ. eigenvalues --   -0.53897  -0.53375  -0.53318  -0.53015  -0.52922
 Alpha  occ. eigenvalues --   -0.52583  -0.51923  -0.51430  -0.50779  -0.49695
 Alpha  occ. eigenvalues --   -0.48262  -0.47885  -0.47513  -0.47424  -0.47131
 Alpha  occ. eigenvalues --   -0.46814  -0.46473  -0.45701  -0.45376  -0.44990
 Alpha  occ. eigenvalues --   -0.43657  -0.43328  -0.42335  -0.41577  -0.41141
 Alpha  occ. eigenvalues --   -0.38018  -0.37587  -0.35230  -0.32936
 Alpha virt. eigenvalues --    0.02477   0.03097   0.03390   0.03536   0.03733
 Alpha virt. eigenvalues --    0.04228   0.04276   0.04548   0.04742   0.04960
 Alpha virt. eigenvalues --    0.05150   0.05335   0.05403   0.05860   0.05922

 Mulliken charges:
               1
     1  C    0.608265
     2  C    1.086531
     3  C    0.358104
     4  C    1.243645
     5  H   -0.971905
     6  C    0.488741
     7  C    1.099196
     8  H   -0.804942
     9  C   -0.133282
    10  C    0.529780
    11  H   -1.002991
    12  C    0.400818
    13  O   -0.779085
    14  C    0.060392
    15  C    0.561734
    16  N   -0.426229
    17  H   -0.433563
    18  C   -1.163580
    19  N   -0.211598
    20  H   -0.405622
    21  C   -2.031880
    22  H   -0.392481
    23  C    1.174945
    24  C    1.290243
    25  H   -0.237427
    26  C    1.457486
    27  C    1.279223
    28  H   -0.091106
    29  H   -0.129377
    30  H   -0.002215
    31  H   -0.148705
    32  H   -0.012419
    33  H    0.037859
    34  H   -0.128567
    35  H   -0.014452
    36  H   -0.154351
    37  H   -0.057644
    38  H    0.014320
    39  H   -0.025661
    40  C    0.527669
    41  C    0.065930
    42  N   -0.211248
    43  H   -0.406790
    44  C   -2.025154
    45  N   -0.409403
    46  H   -0.429271
    47  C   -1.165249
    48  H   -0.238077
    49  C    1.451991
    50  C    1.280075
    51  H   -0.387852
    52  C    1.173490
    53  C    1.269263
    54  H   -0.158794
    55  H   -0.129421
    56  H   -0.012578
    57  H    0.015871
    58  H   -0.024606
    59  H   -0.059586
    60  H   -0.129812
    61  H   -0.004242
    62  H   -0.088117
    63  H   -0.014891
    64  H    0.036435
    65  H   -0.147396
    66  H   -0.348665
    67  H    0.057580
    68  H   -0.044187
    69  H   -0.040461
    70  H    0.053166
    71  H   -0.702656
    72  H   -0.685215
 Sum of Mulliken charges =   0.00000

 Dipole moment (field-independent basis, Debye):
    X=              1.9666    Y=              0.5790    Z=             -4.8169  Tot=              5.2350
 Quadrupole moment (field-independent basis, Debye-Ang):
   XX=           -200.8173   YY=           -195.9795   ZZ=           -200.6834
   XY=             19.2074   XZ=             10.1155   YZ=              1.8614

 Normal termination of Gaussian 16 at Fri Nov  5 12:04:59 2021.
