 Gaussian 16, Revision C.01,
 Gaussian 16:  ES64L-G16RevC.01  3-Jul-2019

 ----------------------------------------------------------------------
 #P PBE1PBE/Def2TZVP SP SCF=(YQC,MaxCycle=900) int=(Grid=Superfinegrid)
  EmpiricalDispersion=GD3 SCRF=(PCM,Solvent=Dichloromethane)
 ----------------------------------------------------------------------

 -------------------------
 _1_alde1_3_ami2_2_opt_dcm
 -------------------------
 Symbolic Z-matrix:
 Charge =  0 Multiplicity = 1

                         Standard orientation:
 ---------------------------------------------------------------------
 Center     Atomic      Atomic             Coordinates (Angstroms)
 Number     Number       Type             X           Y           Z
 ---------------------------------------------------------------------
      1          6           0       -1.169673   -0.766423   -0.790060
      2          6           0       -2.384444   -1.568444   -0.790737
      3          6           0       -1.238045    0.627282   -0.790055
      4          6           0       -0.079215    1.394513   -0.791224
      5          1           0       -2.211449    1.093813   -0.793050
      6          6           0        1.162049    0.756951   -0.791829
      7          6           0        1.247006   -0.630305   -0.791846
      8          1           0        2.052673    1.366630   -0.796194
      9          6           0        0.074205   -1.386413   -0.790396
     10          6           0        2.548848   -1.281439   -0.794116
     11          1           0        0.156900   -2.462630   -0.793631
     12          6           0       -0.166294    2.847536   -0.792441
     13          6           0       -5.538033   -1.523638    0.508080
     14          6           0       -4.702203   -1.847229   -0.766540
     15          7           0       -5.823705   -0.104862    0.625561
     16          6           0       -6.865344   -2.279283    0.435120
     17          7           0       -3.530330   -1.040450   -0.795901
     18          1           0       -7.461214   -2.042669    1.312011
     19          6           0        0.751507    4.994088   -0.767099
     20          6           0        1.448827    5.556063    0.507948
     21          7           0        0.863948    3.575761   -0.796250
     22          1           0        1.283772    5.379902   -1.643821
     23          7           0        2.820278    5.094013    0.626310
     24          6           0        1.458202    7.083413    0.435083
     25          6           0        3.948953   -3.149524   -0.768669
     26          6           0        4.090371   -4.030850    0.508400
     27          7           0        2.664335   -2.537842   -0.796241
     28          1           0        4.014730   -3.805812   -1.643746
     29          7           0        3.004946   -4.987438    0.632333
     30          6           0        4.074598   -3.136705    1.749733
     31          1           0        3.153595   -2.558723    1.786664
     32          1           0       -6.358776    0.214224   -0.175297
     33          1           0       -4.951619    0.413299    0.637175
     34          1           0        3.364572    5.397882   -0.174249
     35          1           0        2.832900    4.079681    0.637998
     36          1           0       -2.238502   -2.659903   -0.792568
     37          1           0        3.421262   -0.609564   -0.799934
     38          1           0       -6.696101   -3.352178    0.400376
     39          1           0       -7.425254   -1.986677   -0.450822
     40          1           0       -0.294406    5.342270   -0.803566
     41          1           0        1.992019    7.422043   -0.450626
     42          1           0        1.960688    7.481093    1.312275
     43          1           0        0.444402    7.473338    0.399984
     44          1           0        4.773321   -2.417920   -0.809291
     45          1           0        4.918304   -2.451183    1.740048
     46          1           0        4.129824   -3.756049    2.640293
     47          6           0        0.686807    5.094179    1.751670
     48          1           0        0.646744    4.007524    1.787563
     49          1           0       -0.328560    5.482228    1.746342
     50          1           0        1.199096    5.450609    2.640705
     51          1           0       -5.302320   -1.579780   -1.643598
     52          1           0       -4.480643   -2.926993   -0.802321
     53          6           0       -4.757383   -1.951935    1.752142
     54          1           0       -4.586003   -3.025320    1.747503
     55          1           0       -5.322307   -1.685762    2.640901
     56          1           0       -3.796141   -1.443554    1.787985
     57          1           0        2.993877   -5.612984   -0.166434
     58          1           0        2.120160   -4.491232    0.644947
     59          6           0        5.408223   -4.802810    0.434071
     60          1           0        6.252683   -4.119819    0.395073
     61          1           0        5.432373   -5.436706   -0.450003
     62          1           0        5.503716   -5.434539    1.312676
     63          1           0       -1.184405    3.267024   -0.795443
 ---------------------------------------------------------------------

 SCF Done:  E(RPBE1PBE) =  -1149.49850080     a.u. after    7 cycles
 SCF Done:  E(RPBE1PBE) =  -1149.49851660     A.U. after    7 cycles

 The electronic state is 1-A.
 Alpha  occ. eigenvalues --  -14.38127 -14.38126 -14.38125 -14.35484 -14.35481
 Alpha  occ. eigenvalues --  -14.35476 -10.26924 -10.26923 -10.26922 -10.25871
 Alpha  occ. eigenvalues --  -10.25869 -10.25868 -10.24655 -10.24652 -10.24651
 Alpha  occ. eigenvalues --  -10.24155 -10.24155 -10.24152 -10.24145 -10.24144
 Alpha  occ. eigenvalues --  -10.24137 -10.20463 -10.20461 -10.20461 -10.20210
 Alpha  occ. eigenvalues --  -10.20207 -10.20207  -0.97041  -0.96760  -0.96759
 Alpha  occ. eigenvalues --   -0.92079  -0.91652  -0.91649  -0.89799  -0.81466
 Alpha  occ. eigenvalues --   -0.81466  -0.78468  -0.78006  -0.78004  -0.72951
 Alpha  occ. eigenvalues --   -0.72191  -0.72191  -0.71008  -0.71005  -0.71003
 Alpha  occ. eigenvalues --   -0.65894  -0.65894  -0.63011  -0.57544  -0.57543
 Alpha  occ. eigenvalues --   -0.57118  -0.55959  -0.55958  -0.54101  -0.52555
 Alpha  occ. eigenvalues --   -0.50638  -0.50637  -0.50249  -0.49941  -0.49939
 Alpha  occ. eigenvalues --   -0.49758  -0.47891  -0.47891  -0.47674  -0.46972
 Alpha  occ. eigenvalues --   -0.46970  -0.45464  -0.44928  -0.44927  -0.44638
 Alpha  occ. eigenvalues --   -0.42891  -0.42192  -0.42192  -0.41733  -0.39130
 Alpha  occ. eigenvalues --   -0.39129  -0.39037  -0.39016  -0.39015  -0.38549
 Alpha  occ. eigenvalues --   -0.38547  -0.38540  -0.37620  -0.37112  -0.37112
 Alpha  occ. eigenvalues --   -0.36743  -0.36742  -0.36393  -0.34897  -0.34895
 Alpha  occ. eigenvalues --   -0.34284  -0.33786  -0.33784  -0.30881  -0.27642
 Alpha  occ. eigenvalues --   -0.27303  -0.27301  -0.26766  -0.26764  -0.25254
 Alpha  occ. eigenvalues --   -0.24828  -0.24825
 Alpha virt. eigenvalues --   -0.06334  -0.06334  -0.02381   0.04164   0.04291
 Alpha virt. eigenvalues --    0.04292   0.05728   0.05729   0.06482   0.06484
 Alpha virt. eigenvalues --    0.07074   0.08205   0.08389   0.08943   0.08945

 Mulliken charges:
               1
     1  C    0.360789
     2  C   -0.169089
     3  C   -0.351222
     4  C    0.360593
     5  H    0.131691
     6  C   -0.350867
     7  C    0.361114
     8  H    0.131705
     9  C   -0.351113
    10  C   -0.169048
    11  H    0.131684
    12  C   -0.168984
    13  C    0.155459
    14  C   -0.134539
    15  N   -0.550218
    16  C   -0.372949
    17  N   -0.192627
    18  H    0.128635
    19  C   -0.135111
    20  C    0.156092
    21  N   -0.192876
    22  H    0.124336
    23  N   -0.550445
    24  C   -0.373198
    25  C   -0.134955
    26  C    0.155369
    27  N   -0.192515
    28  H    0.124321
    29  N   -0.550374
    30  C   -0.386524
    31  H    0.132398
    32  H    0.223949
    33  H    0.231429
    34  H    0.223995
    35  H    0.231412
    36  H    0.089508
    37  H    0.089387
    38  H    0.122989
    39  H    0.125572
    40  H    0.084133
    41  H    0.125643
    42  H    0.128667
    43  H    0.123061
    44  H    0.084055
    45  H    0.119790
    46  H    0.126664
    47  C   -0.386485
    48  H    0.132387
    49  H    0.119801
    50  H    0.126597
    51  H    0.124176
    52  H    0.084081
    53  C   -0.386450
    54  H    0.119741
    55  H    0.126561
    56  H    0.132447
    57  H    0.224009
    58  H    0.231447
    59  C   -0.372923
    60  H    0.123053
    61  H    0.125638
    62  H    0.128629
    63  H    0.089506
 Sum of Mulliken charges =   0.00000

 Dipole moment (field-independent basis, Debye):
    X=             -0.0062    Y=             -0.0031    Z=             -3.5710  Tot=              3.5710
 Quadrupole moment (field-independent basis, Debye-Ang):
   XX=           -166.6825   YY=           -166.6019   ZZ=           -175.6168
   XY=             -0.0013   XZ=             -0.0395   YZ=              0.0174

 Normal termination of Gaussian 16 at Mon Oct 18 15:06:57 2021.
