 Gaussian 16, Revision C.01,
 Gaussian 16:  ES64L-G16RevC.01  3-Jul-2019

 ----------------------------------------------------------------------
 #P PBE1PBE/Def2TZVP SP SCF=(YQC,MaxCycle=900) int=(Grid=Superfinegrid)
  EmpiricalDispersion=GD3 SCRF=(PCM,Solvent=Dichloromethane)
 ----------------------------------------------------------------------

 -------------------------
 _1_alde1_2_ami3_1_opt_dcm
 -------------------------
 Symbolic Z-matrix:
 Charge =  0 Multiplicity = 1

                         Standard orientation:
 ---------------------------------------------------------------------
 Center     Atomic      Atomic             Coordinates (Angstroms)
 Number     Number       Type             X           Y           Z
 ---------------------------------------------------------------------
      1          6           0        0.003438    2.081018   -0.102015
      2          6           0        0.045940    3.546434   -0.138313
      3          6           0       -1.100423    1.401081   -0.613485
      4          6           0       -1.139278    0.017448   -0.582902
      5          1           0       -1.932428    1.940080   -1.040572
      6          6           0       -0.064261   -0.683666   -0.047640
      7          6           0        1.042826   -0.016200    0.465393
      8          1           0       -0.089295   -1.763893   -0.030466
      9          6           0        1.071659    1.367197    0.441022
     10          6           0        2.203501   -0.821479    1.001228
     11          1           0        1.917414    1.899767    0.846927
     12          6           0       -2.338673   -0.747540   -1.093761
     13          8           0        0.955695    4.233588    0.251915
     14          6           0       -4.386909    0.126617   -0.489373
     15          6           0       -4.316141   -1.332948   -0.008611
     16          7           0       -3.396714    0.162371   -1.556750
     17          1           0       -4.008362    0.776849    0.312851
     18          6           0       -5.815623    0.510911   -0.812118
     19          7           0       -2.888371   -1.618912   -0.026040
     20          1           0       -4.777388   -1.976610   -0.773029
     21          6           0       -5.070494   -1.494556    1.295280
     22          1           0       -6.204989   -0.135563   -1.602696
     23          6           0       -6.638249    0.331948    0.468191
     24          1           0       -4.627951   -0.852783    2.061509
     25          6           0       -6.524668   -1.084786    1.039007
     26          1           0       -7.687299    0.553810    0.263790
     27          1           0       -6.286243    1.047613    1.214885
     28          1           0       -6.969772   -1.791268    0.334482
     29          1           0       -7.090979   -1.143049    1.970295
     30          6           0        4.300511    0.023374    0.533118
     31          6           0        4.216978   -1.413987   -0.009194
     32          7           0        3.254758    0.047186    1.545763
     33          1           0        3.986870    0.715094   -0.261948
     34          6           0        5.718853    0.352731    0.948660
     35          7           0        2.782861   -1.659379   -0.079102
     36          1           0        4.617444   -2.100600    0.752207
     37          6           0        5.037204   -1.546479   -1.275868
     38          1           0        6.046166   -0.334316    1.733378
     39          6           0        6.606366    0.199047   -0.290932
     40          1           0        4.655693   -0.861532   -2.037601
     41          6           0        6.485661   -1.190338   -0.924245
     42          1           0        6.316500    0.953715   -1.025618
     43          1           0        7.648274    0.381029   -0.020766
     44          1           0        6.871058   -1.936997   -0.225861
     45          1           0        7.101097   -1.229241   -1.824945
     46          1           0        3.613565   -0.336109    2.414494
     47          1           0        1.832008   -1.492903    1.788425
     48          1           0        2.425780   -1.344285   -0.977665
     49          1           0       -3.811180   -0.191166   -2.413541
     50          1           0       -2.476254   -1.359456    0.866580
     51          1           0       -2.015746   -1.390372   -1.925004
     52          1           0       -0.864897    4.003928   -0.576924
     53          1           0       -5.872868    1.544327   -1.157419
     54          1           0       -5.024484   -2.526830    1.645704
     55          1           0        5.783268    1.370348    1.336423
     56          1           0        4.982407   -2.562124   -1.670961
 ---------------------------------------------------------------------

 SCF Done:  E(RPBE1PBE) =  -1111.67411163     a.u. after    6 cycles
 SCF Done:  E(RPBE1PBE) =  -1111.67412866     A.U. after    9 cycles

 The electronic state is 1-A.
 Alpha  occ. eigenvalues --  -19.20666 -14.37268 -14.37102 -14.37083 -14.37061
 Alpha  occ. eigenvalues --  -10.31084 -10.28142 -10.28044 -10.24256 -10.24190
 Alpha  occ. eigenvalues --  -10.24143 -10.24116 -10.24102 -10.24045 -10.23891
 Alpha  occ. eigenvalues --  -10.23657 -10.23460 -10.23107 -10.21713 -10.21691
 Alpha  occ. eigenvalues --  -10.21636 -10.21624 -10.21605 -10.21599 -10.21556
 Alpha  occ. eigenvalues --  -10.21527  -1.08415  -0.99436  -0.99292  -0.90182
 Alpha  occ. eigenvalues --   -0.88297  -0.88196  -0.85514  -0.85102  -0.80527
 Alpha  occ. eigenvalues --   -0.80090  -0.76098  -0.76018  -0.74811  -0.74167
 Alpha  occ. eigenvalues --   -0.68061  -0.66978  -0.65785  -0.62699  -0.62525
 Alpha  occ. eigenvalues --   -0.62161  -0.62061  -0.59616  -0.59237  -0.58624
 Alpha  occ. eigenvalues --   -0.57479  -0.53802  -0.52758  -0.51601  -0.50717
 Alpha  occ. eigenvalues --   -0.50042  -0.49217  -0.48152  -0.47816  -0.47622
 Alpha  occ. eigenvalues --   -0.47281  -0.46779  -0.45543  -0.45294  -0.44558
 Alpha  occ. eigenvalues --   -0.44406  -0.43940  -0.43174  -0.41462  -0.41310
 Alpha  occ. eigenvalues --   -0.41083  -0.40941  -0.40341  -0.40156  -0.38950
 Alpha  occ. eigenvalues --   -0.37962  -0.37296  -0.36972  -0.36486  -0.36120
 Alpha  occ. eigenvalues --   -0.35905  -0.35822  -0.35020  -0.33811  -0.33726
 Alpha  occ. eigenvalues --   -0.33143  -0.33057  -0.32492  -0.32373  -0.27958
 Alpha  occ. eigenvalues --   -0.27743  -0.27526  -0.25369  -0.24970  -0.24533
 Alpha  occ. eigenvalues --   -0.24482
 Alpha virt. eigenvalues --   -0.06891  -0.01389   0.02722   0.04727   0.04829
 Alpha virt. eigenvalues --    0.04943   0.05023   0.05498   0.06537   0.06889
 Alpha virt. eigenvalues --    0.07209   0.08407   0.08920   0.08940   0.09386

 Mulliken charges:
               1
     1  C    0.245591
     2  C    0.058628
     3  C   -0.287767
     4  C    0.126935
     5  H    0.143343
     6  C   -0.428783
     7  C    0.159741
     8  H    0.133692
     9  C   -0.309595
    10  C    0.073675
    11  H    0.144825
    12  C    0.076874
    13  O   -0.335257
    14  C   -0.057637
    15  C   -0.097633
    16  N   -0.296133
    17  H    0.069981
    18  C   -0.149358
    19  N   -0.289795
    20  H    0.067177
    21  C   -0.169316
    22  H    0.100031
    23  C   -0.200130
    24  H    0.100455
    25  C   -0.199346
    26  H    0.116324
    27  H    0.100903
    28  H    0.100886
    29  H    0.115773
    30  C   -0.068384
    31  C   -0.087813
    32  N   -0.291003
    33  H    0.072798
    34  C   -0.151722
    35  N   -0.291957
    36  H    0.065715
    37  C   -0.168150
    38  H    0.099277
    39  C   -0.200756
    40  H    0.100295
    41  C   -0.199696
    42  H    0.101524
    43  H    0.115919
    44  H    0.100514
    45  H    0.115469
    46  H    0.206416
    47  H    0.101469
    48  H    0.212235
    49  H    0.206667
    50  H    0.213988
    51  H    0.101675
    52  H    0.091280
    53  H    0.108724
    54  H    0.110840
    55  H    0.110260
    56  H    0.110332
 Sum of Mulliken charges =   0.00000

 Dipole moment (field-independent basis, Debye):
    X=             -2.1112    Y=             -3.6822    Z=             -0.7166  Tot=              4.3046
 Quadrupole moment (field-independent basis, Debye-Ang):
   XX=           -122.4457   YY=           -181.7184   ZZ=           -150.2368
   XY=             -9.3952   XZ=              1.4930   YZ=             -3.9806

 Normal termination of Gaussian 16 at Tue Oct 19 05:46:15 2021.
