 Gaussian 16, Revision C.01,
 Gaussian 16:  ES64L-G16RevC.01  3-Jul-2019

 ---------------------------------------------------------------------
 #P MP2/aug-cc-pVDZ SP SCF=(YQC,MaxCycle=900) int=(Grid=Superfinegrid)
 ---------------------------------------------------------------------

 -----------------------------
 _1_alde1_3_ami1_2_opt_gas_mp2
 -----------------------------
 Symbolic Z-matrix:
 Charge =  0 Multiplicity = 1

                         Standard orientation:
 ---------------------------------------------------------------------
 Center     Atomic      Atomic             Coordinates (Angstroms)
 Number     Number       Type             X           Y           Z
 ---------------------------------------------------------------------
      1          6           0        0.109299    1.555408   -1.350686
      2          6           0       -0.011570    2.994275   -1.658257
      3          6           0        1.357583    1.014216   -1.075232
      4          6           0        1.488846   -0.332407   -0.731466
      5          1           0        2.246025    1.626586   -1.101595
      6          6           0        0.355306   -1.135274   -0.670766
      7          6           0       -0.898839   -0.609912   -0.973843
      8          1           0        0.429424   -2.177090   -0.397565
      9          6           0       -1.015363    0.734023   -1.320518
     10          6           0       -2.097845   -1.431331   -0.912660
     11          1           0       -1.982119    1.149725   -1.571471
     12          6           0        2.800606   -0.892945   -0.438023
     13          6           0       -3.132273    3.719588   -0.592775
     14          6           0       -1.684337    3.544532   -0.073548
     15          7           0       -3.273402    2.944776   -1.825221
     16          1           0       -3.281859    4.795285   -0.783020
     17          6           0       -4.194329    3.264867    0.428588
     18          7           0       -0.778267    3.852788   -1.148272
     19          1           0       -1.569093    2.508413    0.275853
     20          6           0       -1.325614    4.476432    1.106727
     21          1           0       -3.952279    3.729389    1.388915
     22          6           0       -4.217305    1.748637    0.611179
     23          6           0       -5.583798    3.759760    0.020748
     24          1           0       -2.038980    4.289130    1.915307
     25          6           0       -1.376981    5.953085    0.724261
     26          6           0        0.069151    4.117100    1.620368
     27          1           0       -6.300477    3.550382    0.811705
     28          1           0       -5.929544    3.260316   -0.881876
     29          1           0       -5.576641    4.833522   -0.156488
     30          1           0       -5.010200    1.470198    1.301899
     31          1           0       -3.274888    1.386302    1.013276
     32          1           0       -4.398002    1.260563   -0.342286
     33          1           0        0.816595    4.331203    0.859983
     34          1           0        0.127756    3.059863    1.873169
     35          1           0        0.304883    4.696977    2.509906
     36          1           0       -2.398437    6.280350    0.549259
     37          1           0       -0.795559    6.117600   -0.178322
     38          1           0       -0.962378    6.558484    1.527149
     39          6           0        5.126637   -0.765226   -0.208469
     40          6           0        5.663296   -0.021579    1.038149
     41          7           0        3.847457   -0.193692   -0.504558
     42          1           0        5.033529   -1.833103    0.057922
     43          6           0        6.009224   -0.645314   -1.468679
     44          7           0        4.809621   -0.406687    2.158095
     45          1           0        5.592730    1.059252    0.821593
     46          6           0        7.130172   -0.345203    1.380699
     47          1           0        6.993740   -1.060329   -1.234587
     48          6           0        6.165058    0.803790   -1.920934
     49          6           0        5.404444   -1.483706   -2.595249
     50          1           0        7.743239   -0.086684    0.512371
     51          6           0        7.319289   -1.823044    1.711165
     52          6           0        7.613954    0.516949    2.549093
     53          1           0        6.054387   -1.467123   -3.467218
     54          1           0        4.432126   -1.088800   -2.881711
     55          1           0        5.278205   -2.518141   -2.281299
     56          1           0        6.707127    0.843580   -2.863489
     57          1           0        6.713598    1.387924   -1.187067
     58          1           0        5.185002    1.250996   -2.060411
     59          1           0        7.390094    1.567981    2.374942
     60          1           0        8.690593    0.413496    2.665368
     61          1           0        7.145520    0.206871    3.479807
     62          1           0        7.170946   -2.443190    0.831343
     63          1           0        6.600241   -2.119326    2.469509
     64          1           0        8.324988   -1.998003    2.086706
     65          6           0       -3.303237   -3.343854   -0.346343
     66          6           0       -3.696651   -3.422894    1.168185
     67          7           0       -2.085909   -2.603098   -0.447985
     68          1           0       -4.118417   -2.827452   -0.883244
     69          6           0       -3.140238   -4.726956   -1.010442
     70          7           0       -2.553687   -3.446231    2.062734
     71          1           0       -4.255086   -4.352633    1.330446
     72          6           0       -4.605730   -2.237229    1.557463
     73          1           0       -4.086137   -5.263434   -0.870377
     74          6           0       -2.006950   -5.552318   -0.407819
     75          6           0       -2.906479   -4.540615   -2.510105
     76          1           0       -4.123390   -1.314367    1.213134
     77          6           0       -4.765260   -2.163310    3.075599
     78          6           0       -5.992349   -2.343775    0.924858
     79          1           0       -1.968957   -4.015126   -2.679300
     80          1           0       -3.711735   -3.961483   -2.958475
     81          1           0       -2.859078   -5.505207   -3.010274
     82          1           0       -1.832274   -6.438937   -1.014277
     83          1           0       -2.252381   -5.881633    0.599054
     84          1           0       -1.093416   -4.963942   -0.383430
     85          1           0       -6.481078   -3.261102    1.246437
     86          1           0       -5.953759   -2.342264   -0.161497
     87          1           0       -6.605791   -1.501590    1.237639
     88          1           0       -5.255737   -3.061864    3.441640
     89          1           0       -5.370776   -1.301024    3.346029
     90          1           0       -3.798212   -2.083785    3.559899
     91          1           0       -1.985381   -2.620665    1.898171
     92          1           0       -1.968552   -4.247698    1.863587
     93          1           0       -2.621563    3.303315   -2.516483
     94          1           0       -4.208583    3.070016   -2.198166
     95          1           0        5.020896    0.164905    2.967975
     96          1           0        3.837379   -0.244141    1.917975
     97          1           0        0.676853    3.369125   -2.413913
     98          1           0        2.816300   -1.957783   -0.157027
     99          1           0       -3.018415   -0.953439   -1.284256
 ---------------------------------------------------------------------

 SCF Done:  E(RHF) =  -1611.40807582     a.u. after    7 cycles
 SCF Done:  E(RHF) =  -1611.40812148     A.U. after   19 cycles
 E2 =    -0.5923909104D+01 EUMP2 =    -0.16173320305860D+04

 The electronic state is 1-A.
 Alpha  occ. eigenvalues --  -15.56298 -15.56105 -15.56000 -15.54924 -15.53897
 Alpha  occ. eigenvalues --  -15.52916 -11.28828 -11.28794 -11.28743 -11.25792
 Alpha  occ. eigenvalues --  -11.25478 -11.25427 -11.25343 -11.25317 -11.25254
 Alpha  occ. eigenvalues --  -11.25233 -11.25129 -11.25100 -11.25021 -11.25000
 Alpha  occ. eigenvalues --  -11.24872 -11.23269 -11.22868 -11.22742 -11.22696
 Alpha  occ. eigenvalues --  -11.22379 -11.22223 -11.22197 -11.21503 -11.21460
 Alpha  occ. eigenvalues --  -11.21305 -11.21261 -11.21238 -11.21125 -11.21034
 Alpha  occ. eigenvalues --  -11.20777 -11.20578 -11.20381 -11.19867  -1.25946
 Alpha  occ. eigenvalues --   -1.25636  -1.25539  -1.19263  -1.18621  -1.18051
 Alpha  occ. eigenvalues --   -1.16656  -1.09080  -1.08952  -1.08112  -1.06634
 Alpha  occ. eigenvalues --   -1.06056  -1.05913  -1.04714  -1.04684  -0.97150
 Alpha  occ. eigenvalues --   -0.96573  -0.95952  -0.93596  -0.92997  -0.92833
 Alpha  occ. eigenvalues --   -0.92638  -0.92544  -0.92034  -0.89268  -0.89030
 Alpha  occ. eigenvalues --   -0.87793  -0.85237  -0.84436  -0.82831  -0.79374
 Alpha  occ. eigenvalues --   -0.78724  -0.76895  -0.76287  -0.75642  -0.74663
 Alpha  occ. eigenvalues --   -0.73634  -0.72392  -0.69679  -0.69057  -0.68693
 Alpha  occ. eigenvalues --   -0.67867  -0.67232  -0.66969  -0.66256  -0.65902
 Alpha  occ. eigenvalues --   -0.64054  -0.63791  -0.63166  -0.62952  -0.62088
 Alpha  occ. eigenvalues --   -0.61302  -0.60567  -0.60274  -0.59955  -0.59604
 Alpha  occ. eigenvalues --   -0.59260  -0.58726  -0.58529  -0.57957  -0.57730
 Alpha  occ. eigenvalues --   -0.57398  -0.57178  -0.57050  -0.57006  -0.56307
 Alpha  occ. eigenvalues --   -0.54981  -0.54542  -0.54360  -0.54086  -0.53737
 Alpha  occ. eigenvalues --   -0.53442  -0.53306  -0.53104  -0.52920  -0.52695
 Alpha  occ. eigenvalues --   -0.52622  -0.52383  -0.52219  -0.51478  -0.51342
 Alpha  occ. eigenvalues --   -0.50543  -0.48924  -0.48697  -0.48260  -0.48083
 Alpha  occ. eigenvalues --   -0.47584  -0.47510  -0.47387  -0.47201  -0.47109
 Alpha  occ. eigenvalues --   -0.46880  -0.46698  -0.46400  -0.46116  -0.46067
 Alpha  occ. eigenvalues --   -0.45666  -0.45150  -0.44811  -0.44064  -0.43026
 Alpha  occ. eigenvalues --   -0.42407  -0.40804  -0.40534  -0.40184  -0.39443
 Alpha  occ. eigenvalues --   -0.38353  -0.38049  -0.36712  -0.33244  -0.32250
 Alpha virt. eigenvalues --    0.02759   0.03189   0.03283   0.03488   0.03831
 Alpha virt. eigenvalues --    0.03913   0.04229   0.04358   0.04517   0.04933
 Alpha virt. eigenvalues --    0.05010   0.05164   0.05479   0.05538   0.05713

 Mulliken charges:
               1
     1  C    0.620473
     2  C    0.339016
     3  C   -0.111524
     4  C    0.985731
     5  H   -0.947592
     6  C    0.732971
     7  C    0.483306
     8  H   -1.026887
     9  C    1.098820
    10  C    0.359471
    11  H   -0.762925
    12  C    0.162604
    13  C    0.813240
    14  C    0.643354
    15  N   -0.300344
    16  H   -0.378950
    17  C   -0.797858
    18  N   -0.478553
    19  H   -0.885711
    20  C   -1.101758
    21  H   -0.326646
    22  C    0.889888
    23  C    1.175705
    24  H   -0.276353
    25  C    1.222661
    26  C    1.032748
    27  H   -0.068604
    28  H   -0.080032
    29  H   -0.128603
    30  H   -0.314920
    31  H   -0.135682
    32  H    0.004259
    33  H    0.021506
    34  H   -0.051134
    35  H   -0.223393
    36  H   -0.083992
    37  H    0.005028
    38  H   -0.146094
    39  C   -0.857250
    40  C    0.823541
    41  N    0.026970
    42  H   -0.401906
    43  C   -1.216060
    44  N   -0.235625
    45  H   -0.319338
    46  C   -1.257336
    47  H   -0.329878
    48  C    1.230520
    49  C    1.331078
    50  H   -0.317549
    51  C    1.257626
    52  C    1.209155
    53  H   -0.144266
    54  H    0.079297
    55  H   -0.054294
    56  H   -0.125288
    57  H   -0.081062
    58  H   -0.143221
    59  H   -0.065742
    60  H   -0.084962
    61  H   -0.066619
    62  H   -0.117061
    63  H    0.059043
    64  H   -0.166358
    65  C   -0.385722
    66  C    1.003024
    67  N   -0.137666
    68  H   -0.606495
    69  C   -0.627262
    70  N   -0.325613
    71  H   -0.565532
    72  C   -2.082175
    73  H   -0.401266
    74  C    1.176162
    75  C    1.253563
    76  H   -0.387983
    77  C    1.584440
    78  C    1.668089
    79  H    0.033646
    80  H   -0.071251
    81  H   -0.159377
    82  H   -0.197731
    83  H   -0.064512
    84  H   -0.041114
    85  H   -0.069546
    86  H   -0.104148
    87  H   -0.131433
    88  H   -0.063267
    89  H   -0.065592
    90  H   -0.026190
    91  H    0.061016
    92  H   -0.045780
    93  H    0.003450
    94  H    0.004298
    95  H   -0.031057
    96  H   -0.019943
    97  H   -0.488701
    98  H   -0.714607
    99  H   -0.970364
 Sum of Mulliken charges =   0.00000

 Dipole moment (field-independent basis, Debye):
    X=             -1.1003    Y=              0.8847    Z=             -1.6667  Tot=              2.1843
 Quadrupole moment (field-independent basis, Debye-Ang):
   XX=           -241.6767   YY=           -254.8779   ZZ=           -257.4339
   XY=             -3.1307   XZ=              5.8214   YZ=              7.4828

 Normal termination of Gaussian 16 at Sat Nov  6 23:21:31 2021.
