 Gaussian 16, Revision C.01,
 Gaussian 16:  ES64L-G16RevC.01  3-Jul-2019

 ----------------------------------------------------------------------
 #P PBE1PBE/Def2TZVP SP SCF=(YQC,MaxCycle=900) int=(Grid=Superfinegrid)
  EmpiricalDispersion=GD3 SCRF=(PCM,Solvent=Chloroform)
 ----------------------------------------------------------------------

 -------------------------
 _1_alde1_2_ami1_2_opt_cfm
 -------------------------
 Symbolic Z-matrix:
 Charge =  0 Multiplicity = 1

                         Standard orientation:
 ---------------------------------------------------------------------
 Center     Atomic      Atomic             Coordinates (Angstroms)
 Number     Number       Type             X           Y           Z
 ---------------------------------------------------------------------
      1          6           0        0.013202   -0.162008    2.237961
      2          6           0       -0.004966   -0.266537    3.704936
      3          6           0        1.211755    0.047341    1.562934
      4          6           0        1.229416    0.146686    0.173341
      5          1           0        2.144105    0.138658    2.098874
      6          6           0        0.033189    0.031273   -0.531471
      7          6           0       -1.173985   -0.178893    0.131584
      8          1           0        0.042424    0.106628   -1.610832
      9          6           0       -1.175622   -0.273437    1.520610
     10          6           0       -2.413879   -0.299245   -0.622994
     11          1           0       -2.105109   -0.437352    2.043207
     12          6           0        2.479690    0.370374   -0.538746
     13          8           0       -0.986213   -0.445301    4.378173
     14          6           0        4.802952    0.657011   -0.637620
     15          6           0        5.742259   -0.537244   -0.285975
     16          7           0        3.580954    0.448411    0.069384
     17          1           0        4.653643    0.686906   -1.731328
     18          6           0        5.381330    2.024306   -0.205448
     19          7           0        6.052560   -0.608542    1.127949
     20          1           0        6.682521   -0.404017   -0.830981
     21          6           0        5.137842   -1.890222   -0.714339
     22          1           0        5.449354    2.036606    0.887357
     23          6           0        4.427377    3.141447   -0.628781
     24          6           0        6.762322    2.277475   -0.805254
     25          1           0        4.208688   -2.035420   -0.151763
     26          6           0        6.108867   -3.012290   -0.350120
     27          6           0        4.829254   -1.951752   -2.208716
     28          1           0        7.510072    1.598609   -0.403953
     29          1           0        7.077903    3.294124   -0.580450
     30          1           0        6.732917    2.160666   -1.886818
     31          1           0        4.807165    4.105410   -0.297934
     32          1           0        3.441551    2.994515   -0.193177
     33          1           0        4.328008    3.165609   -1.712620
     34          1           0        4.556557   -2.968166   -2.484601
     35          1           0        5.703023   -1.663069   -2.789897
     36          1           0        4.001095   -1.302110   -2.478661
     37          1           0        5.652444   -3.982092   -0.533529
     38          1           0        6.384386   -2.940373    0.697005
     39          1           0        7.012203   -2.935231   -0.951095
     40          6           0       -5.667210    0.604368   -0.296456
     41          6           0       -4.738599   -0.552014   -0.782101
     42          7           0       -5.990737    0.512195    1.112236
     43          1           0       -6.603453    0.548232   -0.861845
     44          6           0       -5.043142    1.990875   -0.556901
     45          7           0       -3.523270   -0.446795   -0.044525
     46          1           0       -4.579310   -0.452135   -1.870493
     47          6           0       -5.338415   -1.952983   -0.520814
     48          1           0       -4.117093    2.056210    0.025193
     49          6           0       -6.003569    3.073706   -0.067358
     50          6           0       -4.722571    2.226589   -2.031382
     51          1           0       -5.417418   -2.093447    0.562070
     52          6           0       -4.392840   -3.024109   -1.064626
     53          6           0       -6.715820   -2.114998   -1.159060
     54          1           0       -3.901143    1.602408   -2.372669
     55          1           0       -4.434840    3.264808   -2.182211
     56          1           0       -5.595716    2.021446   -2.647981
     57          1           0       -6.286104    2.881338    0.962523
     58          1           0       -6.904118    3.079263   -0.677578
     59          1           0       -5.534960    4.052830   -0.132475
     60          1           0       -7.046076   -3.146769   -1.059045
     61          1           0       -6.673713   -1.871464   -2.218968
     62          1           0       -7.459354   -1.478506   -0.686724
     63          1           0       -3.411819   -2.944513   -0.601659
     64          1           0       -4.278475   -2.918956   -2.142226
     65          1           0       -4.789128   -4.015577   -0.857235
     66          1           0        0.996947   -0.164581    4.168546
     67          1           0       -5.130093    0.479635    1.648683
     68          1           0       -6.512727   -0.333035    1.309241
     69          1           0        6.568565    0.210642    1.425685
     70          1           0        5.184943   -0.639669    1.653067
     71          1           0       -2.315160   -0.255722   -1.719769
     72          1           0        2.397428    0.468878   -1.632861
 ---------------------------------------------------------------------

 SCF Done:  E(RPBE1PBE) =  -1271.16676868     a.u. after    6 cycles
 SCF Done:  E(RPBE1PBE) =  -1271.16679564     A.U. after    9 cycles

 The electronic state is 1-A.
 Alpha  occ. eigenvalues --  -19.21273 -14.38377 -14.38243 -14.35424 -14.35228
 Alpha  occ. eigenvalues --  -10.31731 -10.27311 -10.27178 -10.25482 -10.25377
 Alpha  occ. eigenvalues --  -10.25304 -10.25178 -10.25092 -10.24879 -10.24761
 Alpha  occ. eigenvalues --  -10.24750 -10.24592 -10.24472 -10.22767 -10.22625
 Alpha  occ. eigenvalues --  -10.21890 -10.21783 -10.20820 -10.20709 -10.20437
 Alpha  occ. eigenvalues --  -10.20413 -10.20337 -10.20320 -10.19317 -10.19215
 Alpha  occ. eigenvalues --   -1.09038  -0.97480  -0.97273  -0.92006  -0.91299
 Alpha  occ. eigenvalues --   -0.90443  -0.83644  -0.83068  -0.81487  -0.81210
 Alpha  occ. eigenvalues --   -0.81058  -0.80357  -0.73898  -0.73140  -0.70757
 Alpha  occ. eigenvalues --   -0.70650  -0.69840  -0.69751  -0.69071  -0.68155
 Alpha  occ. eigenvalues --   -0.66529  -0.64772  -0.62848  -0.59387  -0.58508
 Alpha  occ. eigenvalues --   -0.58279  -0.58077  -0.56804  -0.56397  -0.54264
 Alpha  occ. eigenvalues --   -0.52844  -0.51461  -0.50326  -0.50091  -0.49622
 Alpha  occ. eigenvalues --   -0.49053  -0.48419  -0.48014  -0.47736  -0.47319
 Alpha  occ. eigenvalues --   -0.46853  -0.46673  -0.45379  -0.45119  -0.44767
 Alpha  occ. eigenvalues --   -0.44276  -0.44165  -0.43960  -0.42160  -0.41959
 Alpha  occ. eigenvalues --   -0.41319  -0.41104  -0.40925  -0.39965  -0.39847
 Alpha  occ. eigenvalues --   -0.39545  -0.39453  -0.39153  -0.39088  -0.38978
 Alpha  occ. eigenvalues --   -0.38749  -0.38224  -0.37818  -0.37629  -0.36610
 Alpha  occ. eigenvalues --   -0.35639  -0.34839  -0.34725  -0.34386  -0.34269
 Alpha  occ. eigenvalues --   -0.33990  -0.33887  -0.33746  -0.32780  -0.32581
 Alpha  occ. eigenvalues --   -0.31774  -0.31282  -0.28595  -0.28323  -0.27605
 Alpha  occ. eigenvalues --   -0.27396  -0.26798  -0.24614  -0.24330
 Alpha virt. eigenvalues --   -0.07694  -0.07090  -0.02862   0.04069   0.04163
 Alpha virt. eigenvalues --    0.04438   0.04512   0.04954   0.05516   0.06135
 Alpha virt. eigenvalues --    0.06218   0.06832   0.06949   0.07515   0.08249

 Mulliken charges:
               1
     1  C    0.277459
     2  C    0.060999
     3  C   -0.307374
     4  C    0.363348
     5  H    0.139846
     6  C   -0.362675
     7  C    0.407306
     8  H    0.130079
     9  C   -0.338332
    10  C   -0.214226
    11  H    0.140929
    12  C   -0.206407
    13  O   -0.314582
    14  C    0.036092
    15  C    0.005681
    16  N   -0.208594
    17  H    0.077607
    18  C   -0.052778
    19  N   -0.530973
    20  H    0.100579
    21  C   -0.006883
    22  H    0.076424
    23  C   -0.391322
    24  C   -0.397126
    25  H    0.081793
    26  C   -0.363128
    27  C   -0.411470
    28  H    0.135223
    29  H    0.131830
    30  H    0.123673
    31  H    0.129299
    32  H    0.133738
    33  H    0.112235
    34  H    0.129510
    35  H    0.120998
    36  H    0.121831
    37  H    0.120210
    38  H    0.131785
    39  H    0.103872
    40  C    0.005659
    41  C    0.038439
    42  N   -0.531924
    43  H    0.099537
    44  C   -0.008661
    45  N   -0.201629
    46  H    0.076599
    47  C   -0.053645
    48  H    0.083255
    49  C   -0.362806
    50  C   -0.411595
    51  H    0.079304
    52  C   -0.392457
    53  C   -0.397231
    54  H    0.121555
    55  H    0.129066
    56  H    0.120805
    57  H    0.132388
    58  H    0.103366
    59  H    0.119485
    60  H    0.131594
    61  H    0.122858
    62  H    0.135520
    63  H    0.134589
    64  H    0.111444
    65  H    0.128968
    66  H    0.094418
    67  H    0.232506
    68  H    0.224992
    69  H    0.225222
    70  H    0.229275
    71  H    0.095476
    72  H    0.097155
 Sum of Mulliken charges =   0.00000

 Dipole moment (field-independent basis, Debye):
    X=              2.0847    Y=              0.6528    Z=             -5.5507  Tot=              5.9651
 Quadrupole moment (field-independent basis, Debye-Ang):
   XX=           -196.7036   YY=           -192.5078   ZZ=           -198.6139
   XY=             22.0394   XZ=             10.4607   YZ=              1.9425

 Normal termination of Gaussian 16 at Mon Oct 18 11:33:30 2021.
