 Gaussian 16, Revision C.01,
 Gaussian 16:  ES64L-G16RevC.01  3-Jul-2019

 ----------------------------------------------------------------------
 #P MP2/aug-cc-pVDZ SP SCF=(YQC,MaxCycle=900) int=(Grid=Superfinegrid)
 SCRF=(PCM,Solvent=Dichloromethane)
 ----------------------------------------------------------------------

 -----------------------------
 _1_alde1_2_ami2_2_opt_dcm_mp2
 -----------------------------
 Symbolic Z-matrix:
 Charge =  0 Multiplicity = 1

                         Standard orientation:
 ---------------------------------------------------------------------
 Center     Atomic      Atomic             Coordinates (Angstroms)
 Number     Number       Type             X           Y           Z
 ---------------------------------------------------------------------
      1          6           0       -0.418655    2.824876    0.044975
      2          6           0       -0.849522    4.185819    0.396407
      3          6           0       -1.356420    1.831369   -0.210148
      4          6           0       -0.943280    0.541703   -0.545568
      5          1           0       -2.414191    2.039220   -0.157550
      6          6           0        0.417372    0.262802   -0.621216
      7          6           0        1.369753    1.250853   -0.367828
      8          1           0        0.764619   -0.725757   -0.881745
      9          6           0        0.943216    2.531218   -0.034690
     10          6           0        2.792371    0.950361   -0.450979
     11          1           0        1.653820    3.319767    0.167423
     12          6           0       -1.920575   -0.504091   -0.815675
     13          8           0       -0.112961    5.109090    0.629778
     14          6           0       -4.099896   -1.321946   -0.994119
     15          6           0       -4.976335   -1.550069    0.275452
     16          7           0       -3.160821   -0.281009   -0.756114
     17          7           0       -5.606844   -0.325547    0.731276
     18          6           0        4.961820   -1.575489    0.265448
     19          6           0        4.602487   -0.484000   -0.788787
     20          7           0        4.146754   -2.766943    0.116781
     21          7           0        3.208798   -0.204253   -0.743120
     22          1           0       -1.950289    4.307616    0.432534
     23          1           0        4.286647   -3.179512   -0.799281
     24          1           0        3.166537   -2.519272    0.197025
     25          1           0       -6.215785    0.049185    0.011789
     26          1           0       -4.895726    0.370528    0.927011
     27          1           0       -1.509004   -1.490307   -1.079248
     28          1           0        3.473056    1.791136   -0.249721
     29          6           0       -4.099848   -2.081321    1.411237
     30          6           0        6.428795   -1.968431    0.087121
     31          1           0        4.819143   -0.889019   -1.783401
     32          1           0        5.225078    0.410644   -0.623348
     33          1           0        6.681706   -2.743333    0.805188
     34          1           0        7.078915   -1.112283    0.245913
     35          1           0        6.603225   -2.356744   -0.914270
     36          1           0       -4.757287   -0.986190   -1.803574
     37          1           0       -3.622625   -2.270485   -1.291141
     38          1           0       -3.662049   -3.039430    1.143147
     39          1           0       -4.705059   -2.204760    2.304657
     40          1           0       -3.298598   -1.378712    1.630978
     41          6           0       -6.072926   -2.562063   -0.058843
     42          1           0       -6.696272   -2.197779   -0.872718
     43          1           0       -6.700932   -2.710880    0.814950
     44          1           0       -5.641307   -3.515500   -0.351511
     45          6           0        4.734229   -1.019773    1.672534
     46          1           0        3.698628   -0.709107    1.793763
     47          1           0        5.380328   -0.165291    1.857273
     48          1           0        4.950370   -1.793110    2.403939
 ---------------------------------------------------------------------

 SCF Done:  E(RHF) =  -951.667661010     a.u. after    6 cycles
 SCF Done:  E(RHF) =  -951.667771851     A.U. after   12 cycles
 E2 =    -0.3294917289D+01 EUMP2 =    -0.95496268913984D+03

 The electronic state is 1-A.
 Alpha  occ. eigenvalues --  -20.57623 -15.56730 -15.56715 -15.54184 -15.54178
 Alpha  occ. eigenvalues --  -11.35088 -11.29265 -11.29234 -11.26963 -11.26793
 Alpha  occ. eigenvalues --  -11.26686 -11.26345 -11.26342 -11.26052 -11.26016
 Alpha  occ. eigenvalues --  -11.25969 -11.25230 -11.25215 -11.21443 -11.21443
 Alpha  occ. eigenvalues --  -11.21178 -11.21169  -1.41367  -1.25942  -1.25651
 Alpha  occ. eigenvalues --   -1.19845  -1.19276  -1.17943  -1.07289  -1.07188
 Alpha  occ. eigenvalues --   -1.02809  -1.02526  -0.95608  -0.95258  -0.93689
 Alpha  occ. eigenvalues --   -0.93683  -0.90704  -0.87485  -0.84479  -0.77396
 Alpha  occ. eigenvalues --   -0.76553  -0.75308  -0.74698  -0.72352  -0.69876
 Alpha  occ. eigenvalues --   -0.67206  -0.66681  -0.66196  -0.65801  -0.65605
 Alpha  occ. eigenvalues --   -0.64248  -0.64058  -0.62839  -0.62152  -0.60592
 Alpha  occ. eigenvalues --   -0.59887  -0.59814  -0.57433  -0.56970  -0.56717
 Alpha  occ. eigenvalues --   -0.53887  -0.53507  -0.53357  -0.52921  -0.52903
 Alpha  occ. eigenvalues --   -0.52109  -0.51874  -0.50877  -0.50646  -0.49731
 Alpha  occ. eigenvalues --   -0.49238  -0.47114  -0.46666  -0.45536  -0.43886
 Alpha  occ. eigenvalues --   -0.43060  -0.41259  -0.41014  -0.38766  -0.38447
 Alpha  occ. eigenvalues --   -0.34672  -0.33057
 Alpha virt. eigenvalues --    0.03489   0.03862   0.04088   0.04375   0.04713
 Alpha virt. eigenvalues --    0.04743   0.05004   0.05141   0.05716   0.05805
 Alpha virt. eigenvalues --    0.06005   0.06322   0.06563   0.06615   0.06922

 Mulliken charges:
               1
     1  C    0.361299
     2  C    1.224226
     3  C    0.187636
     4  C    1.012189
     5  H   -0.811867
     6  C   -0.047743
     7  C    1.085451
     8  H   -0.826645
     9  C    0.111748
    10  C    0.578677
    11  H   -0.723895
    12  C    0.408520
    13  O   -0.871415
    14  C    1.570234
    15  C   -3.589933
    16  N   -0.461952
    17  N   -0.079234
    18  C   -3.591867
    19  C    1.653757
    20  N   -0.077567
    21  N   -0.436472
    22  H   -0.281510
    23  H   -0.001749
    24  H    0.018267
    25  H   -0.001895
    26  H    0.013977
    27  H   -0.615288
    28  H   -0.639197
    29  C    1.428109
    30  C    1.422782
    31  H   -0.252475
    32  H   -0.127884
    33  H    0.036138
    34  H    0.006201
    35  H   -0.046573
    36  H   -0.253654
    37  H   -0.125488
    38  H    0.001547
    39  H   -0.033999
    40  H   -0.032621
    41  C    1.427479
    42  H   -0.043848
    43  H    0.035467
    44  H    0.008209
    45  C    1.441374
    46  H   -0.027977
    47  H    0.004870
    48  H   -0.035412
 Sum of Mulliken charges =   0.00000

 Dipole moment (field-independent basis, Debye):
    X=              0.6576    Y=             -2.3007    Z=             -3.2553  Tot=              4.0401
 Quadrupole moment (field-independent basis, Debye-Ang):
   XX=           -134.0794   YY=           -161.5209   ZZ=           -140.7707
   XY=              5.5476   XZ=              4.5338   YZ=              3.0326

 Normal termination of Gaussian 16 at Thu Nov 11 18:27:09 2021.
