 Gaussian 16, Revision C.01,
 Gaussian 16:  ES64L-G16RevC.01  3-Jul-2019

 ----------------------------------------------------------------------
 #P PBE1PBE/Def2TZVP SP SCF=(YQC,MaxCycle=900) int=(Grid=Superfinegrid)
  EmpiricalDispersion=GD3 SCRF=(PCM,Solvent=Chloroform)
 ----------------------------------------------------------------------

 -------------------------
 _1_alde1_2_ami2_2_opt_cfm
 -------------------------
 Symbolic Z-matrix:
 Charge =  0 Multiplicity = 1

                         Standard orientation:
 ---------------------------------------------------------------------
 Center     Atomic      Atomic             Coordinates (Angstroms)
 Number     Number       Type             X           Y           Z
 ---------------------------------------------------------------------
      1          6           0       -0.418655    2.824876    0.044975
      2          6           0       -0.849522    4.185819    0.396407
      3          6           0       -1.356420    1.831369   -0.210148
      4          6           0       -0.943280    0.541703   -0.545568
      5          1           0       -2.414191    2.039220   -0.157550
      6          6           0        0.417372    0.262802   -0.621216
      7          6           0        1.369753    1.250853   -0.367828
      8          1           0        0.764619   -0.725757   -0.881745
      9          6           0        0.943216    2.531218   -0.034690
     10          6           0        2.792371    0.950361   -0.450979
     11          1           0        1.653820    3.319767    0.167423
     12          6           0       -1.920575   -0.504091   -0.815675
     13          8           0       -0.112961    5.109090    0.629778
     14          6           0       -4.099896   -1.321946   -0.994119
     15          6           0       -4.976335   -1.550069    0.275452
     16          7           0       -3.160821   -0.281009   -0.756114
     17          7           0       -5.606844   -0.325547    0.731276
     18          6           0        4.961820   -1.575489    0.265448
     19          6           0        4.602487   -0.484000   -0.788787
     20          7           0        4.146754   -2.766943    0.116781
     21          7           0        3.208798   -0.204253   -0.743120
     22          1           0       -1.950289    4.307616    0.432534
     23          1           0        4.286647   -3.179512   -0.799281
     24          1           0        3.166537   -2.519272    0.197025
     25          1           0       -6.215785    0.049185    0.011789
     26          1           0       -4.895726    0.370528    0.927011
     27          1           0       -1.509004   -1.490307   -1.079248
     28          1           0        3.473056    1.791136   -0.249721
     29          6           0       -4.099848   -2.081321    1.411237
     30          6           0        6.428795   -1.968431    0.087121
     31          1           0        4.819143   -0.889019   -1.783401
     32          1           0        5.225078    0.410644   -0.623348
     33          1           0        6.681706   -2.743333    0.805188
     34          1           0        7.078915   -1.112283    0.245913
     35          1           0        6.603225   -2.356744   -0.914270
     36          1           0       -4.757287   -0.986190   -1.803574
     37          1           0       -3.622625   -2.270485   -1.291141
     38          1           0       -3.662049   -3.039430    1.143147
     39          1           0       -4.705059   -2.204760    2.304657
     40          1           0       -3.298598   -1.378712    1.630978
     41          6           0       -6.072926   -2.562063   -0.058843
     42          1           0       -6.696272   -2.197779   -0.872718
     43          1           0       -6.700932   -2.710880    0.814950
     44          1           0       -5.641307   -3.515500   -0.351511
     45          6           0        4.734229   -1.019773    1.672534
     46          1           0        3.698628   -0.709107    1.793763
     47          1           0        5.380328   -0.165291    1.857273
     48          1           0        4.950370   -1.793110    2.403939
 ---------------------------------------------------------------------

 SCF Done:  E(RPBE1PBE) =  -956.932707689     a.u. after    6 cycles
 SCF Done:  E(RPBE1PBE) =  -956.932724005     A.U. after    9 cycles

 The electronic state is 1-A.
 Alpha  occ. eigenvalues --  -19.21367 -14.38536 -14.38520 -14.35542 -14.35528
 Alpha  occ. eigenvalues --  -10.31830 -10.27348 -10.27317 -10.26026 -10.26026
 Alpha  occ. eigenvalues --  -10.25437 -10.25404 -10.25320 -10.25229 -10.25173
 Alpha  occ. eigenvalues --  -10.25134 -10.24395 -10.24380 -10.20571 -10.20569
 Alpha  occ. eigenvalues --  -10.20326 -10.20317  -1.09128  -0.97330  -0.97114
 Alpha  occ. eigenvalues --   -0.92279  -0.91792  -0.90678  -0.82106  -0.81885
 Alpha  occ. eigenvalues --   -0.78455  -0.78206  -0.73046  -0.72658  -0.71124
 Alpha  occ. eigenvalues --   -0.71119  -0.68908  -0.66502  -0.64224  -0.58159
 Alpha  occ. eigenvalues --   -0.57763  -0.56906  -0.56393  -0.54949  -0.52899
 Alpha  occ. eigenvalues --   -0.50888  -0.50581  -0.50278  -0.50159  -0.48861
 Alpha  occ. eigenvalues --   -0.48245  -0.47755  -0.47268  -0.46999  -0.45515
 Alpha  occ. eigenvalues --   -0.45194  -0.44816  -0.44395  -0.42562  -0.42558
 Alpha  occ. eigenvalues --   -0.41159  -0.39573  -0.39360  -0.39160  -0.39141
 Alpha  occ. eigenvalues --   -0.38785  -0.38426  -0.37683  -0.37284  -0.37209
 Alpha  occ. eigenvalues --   -0.36619  -0.35129  -0.34476  -0.33998  -0.32675
 Alpha  occ. eigenvalues --   -0.28721  -0.28210  -0.27765  -0.27641  -0.27245
 Alpha  occ. eigenvalues --   -0.25175  -0.24963
 Alpha virt. eigenvalues --   -0.07882  -0.06894  -0.03282   0.04018   0.04097
 Alpha virt. eigenvalues --    0.05086   0.05413   0.06146   0.06616   0.07448
 Alpha virt. eigenvalues --    0.08384   0.08523   0.09072   0.09343   0.09432

 Mulliken charges:
               1
     1  C    0.251976
     2  C    0.071391
     3  C   -0.313330
     4  C    0.359484
     5  H    0.139842
     6  C   -0.341894
     7  C    0.353451
     8  H    0.134502
     9  C   -0.326861
    10  C   -0.154442
    11  H    0.139722
    12  C   -0.163298
    13  O   -0.318371
    14  C   -0.134274
    15  C    0.151676
    16  N   -0.187663
    17  N   -0.540190
    18  C    0.151438
    19  C   -0.136192
    20  N   -0.540098
    21  N   -0.188081
    22  H    0.096045
    23  H    0.221227
    24  H    0.228818
    25  H    0.221468
    26  H    0.229097
    27  H    0.089291
    28  H    0.090875
    29  C   -0.384754
    30  C   -0.370048
    31  H    0.123720
    32  H    0.084198
    33  H    0.130683
    34  H    0.121659
    35  H    0.123572
    36  H    0.124104
    37  H    0.083384
    38  H    0.117930
    39  H    0.129067
    40  H    0.131143
    41  C   -0.370013
    42  H    0.123661
    43  H    0.130874
    44  H    0.121328
    45  C   -0.384297
    46  H    0.131158
    47  H    0.118237
    48  H    0.128786
 Sum of Mulliken charges =  -0.00000

 Dipole moment (field-independent basis, Debye):
    X=              0.6011    Y=             -2.3162    Z=             -2.9069  Tot=              3.7651
 Quadrupole moment (field-independent basis, Debye-Ang):
   XX=           -129.0888   YY=           -156.0265   ZZ=           -137.6144
   XY=              4.7634   XZ=              3.9933   YZ=              2.8027

 Normal termination of Gaussian 16 at Sun Oct 17 21:27:30 2021.
