 Gaussian 16, Revision C.01,
 Gaussian 16:  ES64L-G16RevC.01  3-Jul-2019

 ----------------------------------------------------------------------
 #P PBE1PBE/Def2TZVP SP SCF=(YQC,MaxCycle=900) int=(Grid=Superfinegrid)
  EmpiricalDispersion=GD3
 ----------------------------------------------------------------------

 -------------------------
 _1_alde1_2_ami3_1_opt_gas
 -------------------------
 Symbolic Z-matrix:
 Charge =  0 Multiplicity = 1

                         Standard orientation:
 ---------------------------------------------------------------------
 Center     Atomic      Atomic             Coordinates (Angstroms)
 Number     Number       Type             X           Y           Z
 ---------------------------------------------------------------------
      1          6           0        0.003438    2.081018   -0.102015
      2          6           0        0.045940    3.546434   -0.138313
      3          6           0       -1.100423    1.401081   -0.613485
      4          6           0       -1.139278    0.017448   -0.582902
      5          1           0       -1.932428    1.940080   -1.040572
      6          6           0       -0.064261   -0.683666   -0.047640
      7          6           0        1.042826   -0.016200    0.465393
      8          1           0       -0.089295   -1.763893   -0.030466
      9          6           0        1.071659    1.367197    0.441022
     10          6           0        2.203501   -0.821479    1.001228
     11          1           0        1.917414    1.899767    0.846927
     12          6           0       -2.338673   -0.747540   -1.093761
     13          8           0        0.955695    4.233588    0.251915
     14          6           0       -4.386909    0.126617   -0.489373
     15          6           0       -4.316141   -1.332948   -0.008611
     16          7           0       -3.396714    0.162371   -1.556750
     17          1           0       -4.008362    0.776849    0.312851
     18          6           0       -5.815623    0.510911   -0.812118
     19          7           0       -2.888371   -1.618912   -0.026040
     20          1           0       -4.777388   -1.976610   -0.773029
     21          6           0       -5.070494   -1.494556    1.295280
     22          1           0       -6.204989   -0.135563   -1.602696
     23          6           0       -6.638249    0.331948    0.468191
     24          1           0       -4.627951   -0.852783    2.061509
     25          6           0       -6.524668   -1.084786    1.039007
     26          1           0       -7.687299    0.553810    0.263790
     27          1           0       -6.286243    1.047613    1.214885
     28          1           0       -6.969772   -1.791268    0.334482
     29          1           0       -7.090979   -1.143049    1.970295
     30          6           0        4.300511    0.023374    0.533118
     31          6           0        4.216978   -1.413987   -0.009194
     32          7           0        3.254758    0.047186    1.545763
     33          1           0        3.986870    0.715094   -0.261948
     34          6           0        5.718853    0.352731    0.948660
     35          7           0        2.782861   -1.659379   -0.079102
     36          1           0        4.617444   -2.100600    0.752207
     37          6           0        5.037204   -1.546479   -1.275868
     38          1           0        6.046166   -0.334316    1.733378
     39          6           0        6.606366    0.199047   -0.290932
     40          1           0        4.655693   -0.861532   -2.037601
     41          6           0        6.485661   -1.190338   -0.924245
     42          1           0        6.316500    0.953715   -1.025618
     43          1           0        7.648274    0.381029   -0.020766
     44          1           0        6.871058   -1.936997   -0.225861
     45          1           0        7.101097   -1.229241   -1.824945
     46          1           0        3.613565   -0.336109    2.414494
     47          1           0        1.832008   -1.492903    1.788425
     48          1           0        2.425780   -1.344285   -0.977665
     49          1           0       -3.811180   -0.191166   -2.413541
     50          1           0       -2.476254   -1.359456    0.866580
     51          1           0       -2.015746   -1.390372   -1.925004
     52          1           0       -0.864897    4.003928   -0.576924
     53          1           0       -5.872868    1.544327   -1.157419
     54          1           0       -5.024484   -2.526830    1.645704
     55          1           0        5.783268    1.370348    1.336423
     56          1           0        4.982407   -2.562124   -1.670961
 ---------------------------------------------------------------------

 SCF Done:  E(RPBE1PBE) =  -1111.66186936     a.u. after    6 cycles
 SCF Done:  E(RPBE1PBE) =  -1111.66189966     A.U. after   10 cycles

 The electronic state is 1-A.
 Alpha  occ. eigenvalues --  -19.19250 -14.37537 -14.37072 -14.37041 -14.36837
 Alpha  occ. eigenvalues --  -10.29837 -10.28212 -10.27911 -10.24736 -10.24626
 Alpha  occ. eigenvalues --  -10.24302 -10.24278 -10.23714 -10.23558 -10.23207
 Alpha  occ. eigenvalues --  -10.23200 -10.22938 -10.22441 -10.22410 -10.22407
 Alpha  occ. eigenvalues --  -10.22376 -10.22333 -10.22066 -10.22031 -10.22012
 Alpha  occ. eigenvalues --  -10.21974  -1.06886  -0.99617  -0.99245  -0.89715
 Alpha  occ. eigenvalues --   -0.88489  -0.88122  -0.85989  -0.85457  -0.80074
 Alpha  occ. eigenvalues --   -0.79905  -0.76731  -0.76361  -0.75049  -0.74268
 Alpha  occ. eigenvalues --   -0.67522  -0.66725  -0.65883  -0.63113  -0.62766
 Alpha  occ. eigenvalues --   -0.62574  -0.62255  -0.59840  -0.59648  -0.58588
 Alpha  occ. eigenvalues --   -0.57084  -0.53451  -0.52721  -0.51764  -0.50893
 Alpha  occ. eigenvalues --   -0.49808  -0.49177  -0.48362  -0.47987  -0.47829
 Alpha  occ. eigenvalues --   -0.47258  -0.46464  -0.45608  -0.45365  -0.44683
 Alpha  occ. eigenvalues --   -0.44472  -0.43450  -0.42302  -0.41685  -0.41595
 Alpha  occ. eigenvalues --   -0.41270  -0.41102  -0.40358  -0.40194  -0.38703
 Alpha  occ. eigenvalues --   -0.37750  -0.37422  -0.37229  -0.36847  -0.36619
 Alpha  occ. eigenvalues --   -0.36274  -0.35797  -0.34851  -0.34576  -0.34209
 Alpha  occ. eigenvalues --   -0.33736  -0.33388  -0.33068  -0.32678  -0.27300
 Alpha  occ. eigenvalues --   -0.27036  -0.26547  -0.25422  -0.24821  -0.24386
 Alpha  occ. eigenvalues --   -0.24144
 Alpha virt. eigenvalues --   -0.06009  -0.00922   0.03064   0.03978   0.04123
 Alpha virt. eigenvalues --    0.04344   0.04550   0.05017   0.06029   0.06501
 Alpha virt. eigenvalues --    0.06925   0.07934   0.08598   0.08765   0.08788

 Mulliken charges:
               1
     1  C    0.265320
     2  C    0.034939
     3  C   -0.284171
     4  C    0.123740
     5  H    0.144491
     6  C   -0.452242
     7  C    0.165638
     8  H    0.139379
     9  C   -0.301374
    10  C    0.055045
    11  H    0.165396
    12  C    0.056784
    13  O   -0.283819
    14  C   -0.056065
    15  C   -0.096440
    16  N   -0.264081
    17  H    0.062377
    18  C   -0.140694
    19  N   -0.247439
    20  H    0.056045
    21  C   -0.168315
    22  H    0.087743
    23  C   -0.196061
    24  H    0.091925
    25  C   -0.194026
    26  H    0.113482
    27  H    0.098063
    28  H    0.096544
    29  H    0.113091
    30  C   -0.068919
    31  C   -0.085422
    32  N   -0.254913
    33  H    0.068129
    34  C   -0.144881
    35  N   -0.249760
    36  H    0.053617
    37  C   -0.166079
    38  H    0.085999
    39  C   -0.197489
    40  H    0.091158
    41  C   -0.193538
    42  H    0.099764
    43  H    0.112429
    44  H    0.095466
    45  H    0.111975
    46  H    0.186145
    47  H    0.083379
    48  H    0.197071
    49  H    0.187095
    50  H    0.199440
    51  H    0.085517
    52  H    0.068241
    53  H    0.110492
    54  H    0.112965
    55  H    0.115421
    56  H    0.111425
 Sum of Mulliken charges =   0.00000

 Dipole moment (field-independent basis, Debye):
    X=             -1.6061    Y=             -2.9724    Z=             -0.5042  Tot=              3.4160
 Quadrupole moment (field-independent basis, Debye-Ang):
   XX=           -127.8896   YY=           -178.4434   ZZ=           -151.2206
   XY=             -7.4156   XZ=              1.0994   YZ=             -3.2588

 Normal termination of Gaussian 16 at Mon Oct 18 18:15:17 2021.
