 Gaussian 16, Revision C.01,
 Gaussian 16:  ES64L-G16RevC.01  3-Jul-2019

 ----------------------------------------------------------------------
 #P MP2/aug-cc-pVDZ SP SCF=(YQC,MaxCycle=900) int=(Grid=Superfinegrid)
 SCRF=(PCM,Solvent=Chloroform)
 ----------------------------------------------------------------------

 -----------------------------
 _1_alde1_3_ami2_2_opt_cfm_mp2
 -----------------------------
 Symbolic Z-matrix:
 Charge =  0 Multiplicity = 1

                         Standard orientation:
 ---------------------------------------------------------------------
 Center     Atomic      Atomic             Coordinates (Angstroms)
 Number     Number       Type             X           Y           Z
 ---------------------------------------------------------------------
      1          6           0       -1.169673   -0.766423   -0.790060
      2          6           0       -2.384444   -1.568444   -0.790737
      3          6           0       -1.238045    0.627282   -0.790055
      4          6           0       -0.079215    1.394513   -0.791224
      5          1           0       -2.211449    1.093813   -0.793050
      6          6           0        1.162049    0.756951   -0.791829
      7          6           0        1.247006   -0.630305   -0.791846
      8          1           0        2.052673    1.366630   -0.796194
      9          6           0        0.074205   -1.386413   -0.790396
     10          6           0        2.548848   -1.281439   -0.794116
     11          1           0        0.156900   -2.462630   -0.793631
     12          6           0       -0.166294    2.847536   -0.792441
     13          6           0       -5.538033   -1.523638    0.508080
     14          6           0       -4.702203   -1.847229   -0.766540
     15          7           0       -5.823705   -0.104862    0.625561
     16          6           0       -6.865344   -2.279283    0.435120
     17          7           0       -3.530330   -1.040450   -0.795901
     18          1           0       -7.461214   -2.042669    1.312011
     19          6           0        0.751507    4.994088   -0.767099
     20          6           0        1.448827    5.556063    0.507948
     21          7           0        0.863948    3.575761   -0.796250
     22          1           0        1.283772    5.379902   -1.643821
     23          7           0        2.820278    5.094013    0.626310
     24          6           0        1.458202    7.083413    0.435083
     25          6           0        3.948953   -3.149524   -0.768669
     26          6           0        4.090371   -4.030850    0.508400
     27          7           0        2.664335   -2.537842   -0.796241
     28          1           0        4.014730   -3.805812   -1.643746
     29          7           0        3.004946   -4.987438    0.632333
     30          6           0        4.074598   -3.136705    1.749733
     31          1           0        3.153595   -2.558723    1.786664
     32          1           0       -6.358776    0.214224   -0.175297
     33          1           0       -4.951619    0.413299    0.637175
     34          1           0        3.364572    5.397882   -0.174249
     35          1           0        2.832900    4.079681    0.637998
     36          1           0       -2.238502   -2.659903   -0.792568
     37          1           0        3.421262   -0.609564   -0.799934
     38          1           0       -6.696101   -3.352178    0.400376
     39          1           0       -7.425254   -1.986677   -0.450822
     40          1           0       -0.294406    5.342270   -0.803566
     41          1           0        1.992019    7.422043   -0.450626
     42          1           0        1.960688    7.481093    1.312275
     43          1           0        0.444402    7.473338    0.399984
     44          1           0        4.773321   -2.417920   -0.809291
     45          1           0        4.918304   -2.451183    1.740048
     46          1           0        4.129824   -3.756049    2.640293
     47          6           0        0.686807    5.094179    1.751670
     48          1           0        0.646744    4.007524    1.787563
     49          1           0       -0.328560    5.482228    1.746342
     50          1           0        1.199096    5.450609    2.640705
     51          1           0       -5.302320   -1.579780   -1.643598
     52          1           0       -4.480643   -2.926993   -0.802321
     53          6           0       -4.757383   -1.951935    1.752142
     54          1           0       -4.586003   -3.025320    1.747503
     55          1           0       -5.322307   -1.685762    2.640901
     56          1           0       -3.796141   -1.443554    1.787985
     57          1           0        2.993877   -5.612984   -0.166434
     58          1           0        2.120160   -4.491232    0.644947
     59          6           0        5.408223   -4.802810    0.434071
     60          1           0        6.252683   -4.119819    0.395073
     61          1           0        5.432373   -5.436706   -0.450003
     62          1           0        5.503716   -5.434539    1.312676
     63          1           0       -1.184405    3.267024   -0.795443
 ---------------------------------------------------------------------

 SCF Done:  E(RHF) =  -1143.00986433     a.u. after    7 cycles
 SCF Done:  E(RHF) =  -1143.00989873     A.U. after   11 cycles
 E2 =    -0.4066851785D+01 EUMP2 =    -0.11470767505107D+04

 The electronic state is 1-A.
 Alpha  occ. eigenvalues --  -15.56474 -15.56473 -15.56472 -15.54034 -15.54029
 Alpha  occ. eigenvalues --  -15.54025 -11.29001 -11.28999 -11.28998 -11.26237
 Alpha  occ. eigenvalues --  -11.26234 -11.26233 -11.25658 -11.25617 -11.25617
 Alpha  occ. eigenvalues --  -11.25407 -11.25406 -11.25362 -11.25168 -11.25166
 Alpha  occ. eigenvalues --  -11.25164 -11.21411 -11.21409 -11.21407 -11.21094
 Alpha  occ. eigenvalues --  -11.21090 -11.21088  -1.25800  -1.25420  -1.25419
 Alpha  occ. eigenvalues --   -1.19630  -1.19111  -1.19109  -1.16966  -1.06663
 Alpha  occ. eigenvalues --   -1.06662  -1.02868  -1.02355  -1.02352  -0.95615
 Alpha  occ. eigenvalues --   -0.94881  -0.94880  -0.93618  -0.93615  -0.93611
 Alpha  occ. eigenvalues --   -0.86916  -0.86915  -0.83042  -0.76305  -0.76304
 Alpha  occ. eigenvalues --   -0.75455  -0.74346  -0.74345  -0.71275  -0.69088
 Alpha  occ. eigenvalues --   -0.66544  -0.66479  -0.66477  -0.65769  -0.65444
 Alpha  occ. eigenvalues --   -0.65442  -0.63797  -0.63797  -0.62888  -0.62006
 Alpha  occ. eigenvalues --   -0.62004  -0.60308  -0.59689  -0.59686  -0.59515
 Alpha  occ. eigenvalues --   -0.56870  -0.56656  -0.56655  -0.54692  -0.53151
 Alpha  occ. eigenvalues --   -0.53149  -0.52859  -0.52845  -0.52843  -0.52275
 Alpha  occ. eigenvalues --   -0.51677  -0.51675  -0.50825  -0.50372  -0.50370
 Alpha  occ. eigenvalues --   -0.49554  -0.49552  -0.49094  -0.46969  -0.46967
 Alpha  occ. eigenvalues --   -0.46540  -0.45324  -0.45321  -0.41538  -0.41241
 Alpha  occ. eigenvalues --   -0.40779  -0.40779  -0.38598  -0.38593  -0.37501
 Alpha  occ. eigenvalues --   -0.32552  -0.32551
 Alpha virt. eigenvalues --    0.03429   0.03792   0.03792   0.04136   0.04511
 Alpha virt. eigenvalues --    0.04512   0.04864   0.05063   0.05064   0.05760
 Alpha virt. eigenvalues --    0.05850   0.05850   0.05948   0.06217   0.06218

 Mulliken charges:
               1
     1  C    0.898593
     2  C    0.686237
     3  C    0.021437
     4  C    0.897944
     5  H   -0.845844
     6  C    0.021487
     7  C    0.897255
     8  H   -0.846245
     9  C    0.019486
    10  C    0.685847
    11  H   -0.845530
    12  C    0.685318
    13  C   -3.616020
    14  C    1.634315
    15  N   -0.070182
    16  C    1.427653
    17  N   -0.480820
    18  H    0.039343
    19  C    1.634171
    20  C   -3.615159
    21  N   -0.480128
    22  H   -0.252087
    23  N   -0.070135
    24  C    1.426523
    25  C    1.633696
    26  C   -3.614539
    27  N   -0.480287
    28  H   -0.252162
    29  N   -0.070562
    30  C    1.447916
    31  H   -0.027642
    32  H   -0.003487
    33  H    0.019956
    34  H   -0.003460
    35  H    0.019808
    36  H   -0.663998
    37  H   -0.664053
    38  H    0.008052
    39  H   -0.047596
    40  H   -0.141494
    41  H   -0.047313
    42  H    0.039424
    43  H    0.008418
    44  H   -0.141708
    45  H    0.000381
    46  H   -0.033349
    47  C    1.448250
    48  H   -0.027606
    49  H   -0.000125
    50  H   -0.033233
    51  H   -0.251760
    52  H   -0.141723
    53  C    1.448238
    54  H   -0.000237
    55  H   -0.033239
    56  H   -0.027548
    57  H   -0.003438
    58  H    0.019946
    59  C    1.426635
    60  H    0.008425
    61  H   -0.047562
    62  H    0.039356
    63  H   -0.663839
 Sum of Mulliken charges =   0.00000

 Dipole moment (field-independent basis, Debye):
    X=             -0.0065    Y=             -0.0024    Z=             -3.7064  Tot=              3.7064
 Quadrupole moment (field-independent basis, Debye-Ang):
   XX=           -171.8010   YY=           -171.7178   ZZ=           -179.1526
   XY=             -0.0002   XZ=             -0.0443   YZ=              0.0218

 Normal termination of Gaussian 16 at Thu Nov 11 03:38:24 2021.
