 Gaussian 16, Revision C.01,
 Gaussian 16:  ES64L-G16RevC.01  3-Jul-2019

 ----------------------------------------------------------------------
 #P PBE1PBE/Def2TZVP SP SCF=(YQC,MaxCycle=900) int=(Grid=Superfinegrid)
  EmpiricalDispersion=GD3 SCRF=(PCM,Solvent=Chloroform)
 ----------------------------------------------------------------------

 -------------------------
 _1_alde1_2_ami4_2_opt_cfm
 -------------------------
 Symbolic Z-matrix:
 Charge =  0 Multiplicity = 1

                         Standard orientation:
 ---------------------------------------------------------------------
 Center     Atomic      Atomic             Coordinates (Angstroms)
 Number     Number       Type             X           Y           Z
 ---------------------------------------------------------------------
      1          6           0        0.069850    1.734389    0.078355
      2          6           0        0.116205    3.200336    0.196440
      3          6           0        1.228984    0.981123    0.237373
      4          6           0        1.186586   -0.407550    0.132519
      5          1           0        2.175811    1.454540    0.447556
      6          6           0       -0.030239   -1.032073   -0.134146
      7          6           0       -1.197579   -0.289712   -0.299164
      8          1           0       -0.068579   -2.110148   -0.215299
      9          6           0       -1.139672    1.097258   -0.190767
     10          6           0       -2.460176   -0.963572   -0.577185
     11          1           0       -2.039351    1.679154   -0.317547
     12          6           0        2.394947   -1.203065    0.299172
     13          8           0       -0.828963    3.937677    0.095324
     14          6           0        4.688330   -1.465627    0.650628
     15          6           0        5.667631   -1.117636   -0.496840
     16          7           0        3.514687   -0.668725    0.525064
     17          7           0        6.087058    0.262768   -0.537842
     18          6           0       -5.755968   -0.656061    0.125834
     19          6           0       -4.758567   -0.996087   -0.988457
     20          7           0       -5.343240   -1.306828    1.358601
     21          7           0       -3.528991   -0.317089   -0.742705
     22          1           0        1.132391    3.595600    0.397147
     23          1           0       -6.003448   -1.104966    2.101364
     24          1           0       -4.437150   -0.949115    1.645586
     25          1           0        6.555744    0.514943    0.326410
     26          1           0        5.272932    0.861314   -0.629341
     27          1           0       -2.417608   -2.062613   -0.634623
     28          1           0       -5.822252    0.440121    0.206144
     29          1           0       -6.739507   -1.047287   -0.146656
     30          1           0       -5.154516   -0.619795   -1.936320
     31          1           0       -4.638336   -2.089363   -1.046340
     32          1           0        2.267798   -2.294463    0.222369
     33          1           0        5.185121   -1.349557   -1.450532
     34          1           0        6.555629   -1.747348   -0.396060
     35          1           0        5.161686   -1.205540    1.603563
     36          1           0        4.476750   -2.548113    0.635595
 ---------------------------------------------------------------------

 SCF Done:  E(RPBE1PBE) =  -799.797645685     a.u. after    7 cycles
 SCF Done:  E(RPBE1PBE) =  -799.797649353     A.U. after    8 cycles

 The electronic state is 1-A.
 Alpha  occ. eigenvalues --  -19.21269 -14.38571 -14.38498 -14.36117 -14.35918
 Alpha  occ. eigenvalues --  -10.31729 -10.27399 -10.27249 -10.25506 -10.25409
 Alpha  occ. eigenvalues --  -10.25339 -10.25208 -10.25114 -10.24791 -10.24650
 Alpha  occ. eigenvalues --  -10.24559 -10.24524 -10.24357  -1.09049  -0.97198
 Alpha  occ. eigenvalues --   -0.96987  -0.91642  -0.90820  -0.90251  -0.82079
 Alpha  occ. eigenvalues --   -0.81826  -0.76021  -0.74736  -0.69246  -0.68410
 Alpha  occ. eigenvalues --   -0.66687  -0.63163  -0.60425  -0.59071  -0.56585
 Alpha  occ. eigenvalues --   -0.54274  -0.53234  -0.51823  -0.51315  -0.50432
 Alpha  occ. eigenvalues --   -0.49764  -0.48945  -0.48069  -0.47059  -0.45829
 Alpha  occ. eigenvalues --   -0.45438  -0.44828  -0.44332  -0.42478  -0.42109
 Alpha  occ. eigenvalues --   -0.41137  -0.40213  -0.40109  -0.39345  -0.38610
 Alpha  occ. eigenvalues --   -0.36899  -0.36523  -0.35672  -0.32982  -0.28612
 Alpha  occ. eigenvalues --   -0.28492  -0.27724  -0.27607  -0.26956  -0.25610
 Alpha  occ. eigenvalues --   -0.25033
 Alpha virt. eigenvalues --   -0.07692  -0.07083  -0.02865   0.04307   0.04927
 Alpha virt. eigenvalues --    0.05152   0.06122   0.06370   0.06814   0.07991
 Alpha virt. eigenvalues --    0.08352   0.09058   0.09392   0.09454   0.10248

 Mulliken charges:
               1
     1  C    0.290299
     2  C    0.069519
     3  C   -0.314269
     4  C    0.314824
     5  H    0.138327
     6  C   -0.328143
     7  C    0.364221
     8  H    0.134644
     9  C   -0.353472
    10  C   -0.165408
    11  H    0.136671
    12  C   -0.162470
    13  O   -0.313589
    14  C   -0.118373
    15  C   -0.086722
    16  N   -0.184640
    17  N   -0.540727
    18  C   -0.103327
    19  C   -0.056979
    20  N   -0.561485
    21  N   -0.195864
    22  H    0.094022
    23  H    0.233229
    24  H    0.235041
    25  H    0.226082
    26  H    0.233216
    27  H    0.089470
    28  H    0.101667
    29  H    0.110408
    30  H    0.124553
    31  H    0.071830
    32  H    0.085860
    33  H    0.111835
    34  H    0.117367
    35  H    0.122670
    36  H    0.079711
 Sum of Mulliken charges =   0.00000

 Dipole moment (field-independent basis, Debye):
    X=              0.7961    Y=             -4.6047    Z=              1.4531  Tot=              4.8938
 Quadrupole moment (field-independent basis, Debye-Ang):
   XX=           -105.7736   YY=           -117.8396   ZZ=           -107.3475
   XY=             -0.7119   XZ=              8.9293   YZ=              3.7800

 Normal termination of Gaussian 16 at Mon Oct 18 09:54:48 2021.
