 Gaussian 16, Revision C.01,
 Gaussian 16:  ES64L-G16RevC.01  3-Jul-2019

 ----------------------------------------------------------------------
 #P MP2/aug-cc-pVDZ SP SCF=(YQC,MaxCycle=900) int=(Grid=Superfinegrid)
 SCRF=(PCM,Solvent=Dichloromethane)
 ----------------------------------------------------------------------

 -----------------------------
 _1_alde1_3_ami4_1_opt_dcm_mp2
 -----------------------------
 Symbolic Z-matrix:
 Charge =  0 Multiplicity = 1

                         Standard orientation:
 ---------------------------------------------------------------------
 Center     Atomic      Atomic             Coordinates (Angstroms)
 Number     Number       Type             X           Y           Z
 ---------------------------------------------------------------------
      1          6           0       -1.594822   -0.666401   -0.154053
      2          6           0       -3.043692   -1.073667   -0.179864
      3          6           0       -1.256224    0.676472   -0.242331
      4          6           0        0.070592    1.071553   -0.182798
      5          1           0       -2.040788    1.407002   -0.369615
      6          6           0        1.061342    0.113358   -0.028862
      7          6           0        0.734491   -1.230986    0.062958
      8          1           0        2.095928    0.416372    0.018781
      9          6           0       -0.596234   -1.616083   -0.000548
     10          6           0        1.832054   -2.251551    0.196350
     11          1           0       -0.857447   -2.662015    0.069543
     12          6           0        0.450328    2.526324   -0.246165
     13          6           0       -5.081845   -0.866171    0.837227
     14          6           0       -5.190363   -0.144772   -0.525878
     15          7           0       -3.659087   -0.933480    1.129201
     16          7           0       -3.835267   -0.207271   -1.065487
     17          6           0        2.369770    3.886847   -0.491841
     18          6           0        1.571358    4.231755    0.786313
     19          7           0        1.674916    2.724672   -1.037749
     20          7           0        0.764960    3.055614    1.069742
     21          6           0        4.145268   -2.387413    0.663474
     22          6           0        3.783624   -3.057748   -0.682238
     23          7           0        2.891895   -1.780137    1.100788
     24          7           0        2.502972   -2.488660   -1.070173
     25          1           0        2.674172   -1.966289    2.070533
     26          1           0        1.407092   -3.218217    0.526304
     27          1           0        2.646804   -1.591681   -1.526559
     28          1           0       -3.801670   -0.516604   -2.027535
     29          1           0       -3.126077   -2.139645   -0.464941
     30          1           0       -3.347081   -0.055694    1.536390
     31          1           0        1.477753    2.805090   -2.026161
     32          1           0        1.322663    2.365292    1.565724
     33          1           0       -0.396670    3.117408   -0.641887
     34          1           0       -5.468133    0.907391   -0.395133
     35          1           0       -5.935498   -0.619517   -1.171916
     36          1           0       -5.454081   -1.891956    0.750598
     37          1           0       -5.624753   -0.362234    1.634392
     38          1           0        3.398915    3.598377   -0.248644
     39          1           0        2.404515    4.734554   -1.183391
     40          1           0        0.889767    5.065588    0.590546
     41          1           0        2.205466    4.488867    1.632602
     42          1           0        4.889752   -1.595389    0.524226
     43          1           0        4.546292   -3.114907    1.376663
     44          1           0        3.642224   -4.133893   -0.540482
     45          1           0        4.534251   -2.902165   -1.454763
 ---------------------------------------------------------------------

 SCF Done:  E(RHF) =  -908.769367728     a.u. after    6 cycles
 SCF Done:  E(RHF) =  -908.769390700     A.U. after   11 cycles
 E2 =    -0.3166891980D+01 EUMP2 =    -0.91193628268025D+03

 The electronic state is 1-A.
 Alpha  occ. eigenvalues --  -15.55424 -15.55423 -15.55421 -15.54412 -15.54409
 Alpha  occ. eigenvalues --  -15.54391 -11.28755 -11.28726 -11.28691 -11.25133
 Alpha  occ. eigenvalues --  -11.25129 -11.25126 -11.24839 -11.24823 -11.24820
 Alpha  occ. eigenvalues --  -11.23654 -11.23628 -11.23568 -11.23133 -11.22748
 Alpha  occ. eigenvalues --  -11.22475  -1.27793  -1.27613  -1.27569  -1.16054
 Alpha  occ. eigenvalues --   -1.14045  -1.14023  -1.14016  -1.05516  -1.05463
 Alpha  occ. eigenvalues --   -0.99329  -0.97282  -0.96754  -0.87290  -0.85898
 Alpha  occ. eigenvalues --   -0.84302  -0.82139  -0.82078  -0.81923  -0.79001
 Alpha  occ. eigenvalues --   -0.77369  -0.71796  -0.70180  -0.68801  -0.68471
 Alpha  occ. eigenvalues --   -0.66867  -0.66530  -0.66065  -0.63555  -0.59970
 Alpha  occ. eigenvalues --   -0.59827  -0.58815  -0.58459  -0.58147  -0.57608
 Alpha  occ. eigenvalues --   -0.55211  -0.54742  -0.54542  -0.54181  -0.54104
 Alpha  occ. eigenvalues --   -0.53121  -0.52451  -0.52318  -0.52019  -0.49254
 Alpha  occ. eigenvalues --   -0.49177  -0.49164  -0.48073  -0.47313  -0.46865
 Alpha  occ. eigenvalues --   -0.39302  -0.39223  -0.39184  -0.37156  -0.36866
 Alpha  occ. eigenvalues --   -0.36596  -0.32896  -0.32235
 Alpha virt. eigenvalues --    0.03449   0.03883   0.04016   0.04417   0.04883
 Alpha virt. eigenvalues --    0.04915   0.05289   0.05508   0.05739   0.06321
 Alpha virt. eigenvalues --    0.06353   0.06975   0.07211   0.07501   0.07846

 Mulliken charges:
               1
     1  C    0.700601
     2  C    0.760404
     3  C    0.251447
     4  C    0.850424
     5  H   -0.860630
     6  C   -0.003389
     7  C    0.779685
     8  H   -1.092143
     9  C    0.772581
    10  C    0.746197
    11  H   -0.764478
    12  C    0.868470
    13  C    0.687586
    14  C    0.667606
    15  N   -0.605426
    16  N   -0.470853
    17  C    0.708234
    18  C    0.659528
    19  N   -0.501048
    20  N   -0.658103
    21  C    0.693907
    22  C    0.658933
    23  N   -0.469424
    24  N   -0.651979
    25  H   -0.042282
    26  H   -0.352217
    27  H    0.061758
    28  H   -0.033059
    29  H   -0.310291
    30  H    0.055301
    31  H   -0.041147
    32  H    0.058453
    33  H   -0.341928
    34  H   -0.251740
    35  H   -0.196246
    36  H   -0.255630
    37  H   -0.206705
    38  H   -0.269858
    39  H   -0.193653
    40  H   -0.260538
    41  H   -0.213533
    42  H   -0.271375
    43  H   -0.191462
    44  H   -0.260684
    45  H   -0.211294
 Sum of Mulliken charges =   0.00000

 Dipole moment (field-independent basis, Debye):
    X=              0.5926    Y=              0.6359    Z=             -0.8840  Tot=              1.2398
 Quadrupole moment (field-independent basis, Debye-Ang):
   XX=           -106.0109   YY=           -118.1691   ZZ=           -127.7630
   XY=              0.9727   XZ=              7.3424   YZ=             -6.5076

 Normal termination of Gaussian 16 at Tue Nov  2 18:27:21 2021.
