 Gaussian 16, Revision C.01,
 Gaussian 16:  ES64L-G16RevC.01  3-Jul-2019

 ----------------------------------------------------------------------
 #P MP2/aug-cc-pVDZ SP SCF=(YQC,MaxCycle=900) int=(Grid=Superfinegrid)
 SCRF=(PCM,Solvent=Chloroform)
 ----------------------------------------------------------------------

 -----------------------------
 _1_alde1_2_ami2_1_opt_cfm_mp2
 -----------------------------
 Symbolic Z-matrix:
 Charge =  0 Multiplicity = 1

                         Standard orientation:
 ---------------------------------------------------------------------
 Center     Atomic      Atomic             Coordinates (Angstroms)
 Number     Number       Type             X           Y           Z
 ---------------------------------------------------------------------
      1          6           0       -0.437457    2.506953    0.050321
      2          6           0       -0.924964    3.889890    0.019304
      3          6           0       -1.344261    1.449446   -0.009493
      4          6           0       -0.894742    0.140242    0.018986
      5          1           0       -2.399627    1.660250   -0.094223
      6          6           0        0.467944   -0.109823    0.111690
      7          6           0        1.381721    0.934373    0.183063
      8          1           0        0.837458   -1.123827    0.141291
      9          6           0        0.927271    2.242424    0.148449
     10          6           0        2.860976    0.652089    0.243420
     11          1           0        1.634355    3.058169    0.193160
     12          6           0       -1.885991   -0.993620   -0.001895
     13          8           0       -2.081211    4.224762   -0.031736
     14          6           0       -4.233142   -1.335827   -0.204265
     15          6           0       -3.647165   -1.958039    1.092169
     16          7           0       -3.072762   -0.655957   -0.786675
     17          6           0       -5.299568   -0.284359    0.119711
     18          7           0       -2.386431   -1.275130    1.334958
     19          1           0       -3.426383   -3.018186    0.931045
     20          1           0       -6.173597   -0.752020    0.566522
     21          6           0        4.699976    0.004271   -0.949407
     22          6           0        4.392097   -1.155655    0.036571
     23          7           0        3.468475    0.767307   -1.073939
     24          1           0        5.045859   -0.343655   -1.920594
     25          7           0        3.148652   -0.714576    0.675348
     26          6           0        4.113341   -2.461028   -0.716316
     27          1           0        3.778302   -3.225852   -0.020213
     28          1           0        2.854804    0.321098   -1.750590
     29          1           0        3.350107    1.406166    0.890816
     30          1           0        3.162696   -0.811794    1.681666
     31          1           0       -2.958240   -0.837620   -1.774378
     32          1           0       -2.561952   -0.390221    1.803698
     33          1           0       -1.389319   -1.914615   -0.363897
     34          1           0       -0.114452    4.646688    0.050963
     35          1           0       -4.313838   -1.865194    1.947178
     36          1           0       -4.900369    0.454256    0.810431
     37          1           0       -5.600590    0.230041   -0.789303
     38          1           0        5.459603    0.665928   -0.521233
     39          1           0        5.011644   -2.811152   -1.218795
     40          1           0        3.330557   -2.306458   -1.455011
     41          6           0        5.527991   -1.357232    1.039073
     42          1           0        6.451657   -1.598172    0.518002
     43          1           0        5.291169   -2.173806    1.718454
     44          1           0        5.686805   -0.451973    1.623238
     45          6           0       -4.811426   -2.406409   -1.129445
     46          1           0       -5.215625   -1.948000   -2.029979
     47          1           0       -5.611631   -2.945245   -0.627385
     48          1           0       -4.040844   -3.120592   -1.416444
 ---------------------------------------------------------------------

 SCF Done:  E(RHF) =  -951.668215090     a.u. after    6 cycles
 SCF Done:  E(RHF) =  -951.668291338     A.U. after   12 cycles
 E2 =    -0.3308940259D+01 EUMP2 =    -0.95497723159656D+03

 The electronic state is 1-A.
 Alpha  occ. eigenvalues --  -20.56771 -15.55709 -15.55546 -15.54391 -15.54137
 Alpha  occ. eigenvalues --  -11.34258 -11.29325 -11.29096 -11.26232 -11.26015
 Alpha  occ. eigenvalues --  -11.25368 -11.25083 -11.24923 -11.24775 -11.24646
 Alpha  occ. eigenvalues --  -11.24527 -11.24451 -11.24348 -11.21897 -11.21754
 Alpha  occ. eigenvalues --  -11.21226 -11.20960  -1.40450  -1.28376  -1.28140
 Alpha  occ. eigenvalues --   -1.17474  -1.15117  -1.14887  -1.07915  -1.07043
 Alpha  occ. eigenvalues --   -1.03556  -1.02122  -0.93794  -0.93596  -0.92371
 Alpha  occ. eigenvalues --   -0.92270  -0.89572  -0.86656  -0.85347  -0.79643
 Alpha  occ. eigenvalues --   -0.77464  -0.76675  -0.76437  -0.71457  -0.70086
 Alpha  occ. eigenvalues --   -0.68055  -0.67704  -0.66403  -0.65569  -0.64103
 Alpha  occ. eigenvalues --   -0.61912  -0.60707  -0.60587  -0.59977  -0.59719
 Alpha  occ. eigenvalues --   -0.58945  -0.57778  -0.56737  -0.56252  -0.56026
 Alpha  occ. eigenvalues --   -0.55214  -0.54799  -0.54441  -0.54297  -0.51533
 Alpha  occ. eigenvalues --   -0.51205  -0.51090  -0.50893  -0.50510  -0.50211
 Alpha  occ. eigenvalues --   -0.48608  -0.48521  -0.47300  -0.46807  -0.46787
 Alpha  occ. eigenvalues --   -0.42826  -0.38949  -0.38783  -0.37133  -0.36629
 Alpha  occ. eigenvalues --   -0.34492  -0.33428
 Alpha virt. eigenvalues --    0.03428   0.03794   0.04069   0.04352   0.04664
 Alpha virt. eigenvalues --    0.05003   0.05088   0.05491   0.06050   0.06244
 Alpha virt. eigenvalues --    0.06268   0.06395   0.06828   0.06921   0.07248

 Mulliken charges:
               1
     1  C    0.473055
     2  C    1.282471
     3  C   -0.119922
     4  C    1.062206
     5  H   -0.844533
     6  C    0.543727
     7  C    0.984627
     8  H   -0.840626
     9  C    0.112751
    10  C    0.450260
    11  H   -0.758164
    12  C    0.347424
    13  O   -0.838503
    14  C   -2.292131
    15  C    1.350887
    16  N   -0.300562
    17  C    1.158559
    18  N   -0.654270
    19  H   -0.275375
    20  H   -0.014299
    21  C    1.411043
    22  C   -2.373925
    23  N   -0.675540
    24  H   -0.184050
    25  N   -0.353619
    26  C    1.110668
    27  H   -0.073878
    28  H    0.090632
    29  H   -0.206750
    30  H   -0.038092
    31  H   -0.068313
    32  H    0.089639
    33  H   -0.347618
    34  H   -0.336302
    35  H   -0.201343
    36  H   -0.073674
    37  H   -0.090379
    38  H   -0.280325
    39  H   -0.013627
    40  H   -0.051746
    41  C    1.008702
    42  H   -0.032085
    43  H   -0.010291
    44  H   -0.028692
    45  C    0.982679
    46  H   -0.009208
    47  H   -0.028713
    48  H   -0.042776
 Sum of Mulliken charges =   0.00000

 Dipole moment (field-independent basis, Debye):
    X=              3.5171    Y=             -4.3573    Z=             -0.0102  Tot=              5.5997
 Quadrupole moment (field-independent basis, Debye-Ang):
   XX=           -123.1233   YY=           -148.2705   ZZ=           -133.0284
   XY=             15.4045   XZ=              3.6448   YZ=              6.5522

 Normal termination of Gaussian 16 at Fri Oct 29 15:04:33 2021.
