 Gaussian 16, Revision C.01,
 Gaussian 16:  ES64L-G16RevC.01  3-Jul-2019

 ----------------------------------------------------------------------
 #P MP2/aug-cc-pVDZ SP SCF=(YQC,MaxCycle=900) int=(Grid=Superfinegrid)
 SCRF=(PCM,Solvent=Chloroform)
 ----------------------------------------------------------------------

 -----------------------------
 _1_alde1_2_ami1_2_opt_cfm_mp2
 -----------------------------
 Symbolic Z-matrix:
 Charge =  0 Multiplicity = 1

                         Standard orientation:
 ---------------------------------------------------------------------
 Center     Atomic      Atomic             Coordinates (Angstroms)
 Number     Number       Type             X           Y           Z
 ---------------------------------------------------------------------
      1          6           0        0.013202   -0.162008    2.237961
      2          6           0       -0.004966   -0.266537    3.704936
      3          6           0        1.211755    0.047341    1.562934
      4          6           0        1.229416    0.146686    0.173341
      5          1           0        2.144105    0.138658    2.098874
      6          6           0        0.033189    0.031273   -0.531471
      7          6           0       -1.173985   -0.178893    0.131584
      8          1           0        0.042424    0.106628   -1.610832
      9          6           0       -1.175622   -0.273437    1.520610
     10          6           0       -2.413879   -0.299245   -0.622994
     11          1           0       -2.105109   -0.437352    2.043207
     12          6           0        2.479690    0.370374   -0.538746
     13          8           0       -0.986213   -0.445301    4.378173
     14          6           0        4.802952    0.657011   -0.637620
     15          6           0        5.742259   -0.537244   -0.285975
     16          7           0        3.580954    0.448411    0.069384
     17          1           0        4.653643    0.686906   -1.731328
     18          6           0        5.381330    2.024306   -0.205448
     19          7           0        6.052560   -0.608542    1.127949
     20          1           0        6.682521   -0.404017   -0.830981
     21          6           0        5.137842   -1.890222   -0.714339
     22          1           0        5.449354    2.036606    0.887357
     23          6           0        4.427377    3.141447   -0.628781
     24          6           0        6.762322    2.277475   -0.805254
     25          1           0        4.208688   -2.035420   -0.151763
     26          6           0        6.108867   -3.012290   -0.350120
     27          6           0        4.829254   -1.951752   -2.208716
     28          1           0        7.510072    1.598609   -0.403953
     29          1           0        7.077903    3.294124   -0.580450
     30          1           0        6.732917    2.160666   -1.886818
     31          1           0        4.807165    4.105410   -0.297934
     32          1           0        3.441551    2.994515   -0.193177
     33          1           0        4.328008    3.165609   -1.712620
     34          1           0        4.556557   -2.968166   -2.484601
     35          1           0        5.703023   -1.663069   -2.789897
     36          1           0        4.001095   -1.302110   -2.478661
     37          1           0        5.652444   -3.982092   -0.533529
     38          1           0        6.384386   -2.940373    0.697005
     39          1           0        7.012203   -2.935231   -0.951095
     40          6           0       -5.667210    0.604368   -0.296456
     41          6           0       -4.738599   -0.552014   -0.782101
     42          7           0       -5.990737    0.512195    1.112236
     43          1           0       -6.603453    0.548232   -0.861845
     44          6           0       -5.043142    1.990875   -0.556901
     45          7           0       -3.523270   -0.446795   -0.044525
     46          1           0       -4.579310   -0.452135   -1.870493
     47          6           0       -5.338415   -1.952983   -0.520814
     48          1           0       -4.117093    2.056210    0.025193
     49          6           0       -6.003569    3.073706   -0.067358
     50          6           0       -4.722571    2.226589   -2.031382
     51          1           0       -5.417418   -2.093447    0.562070
     52          6           0       -4.392840   -3.024109   -1.064626
     53          6           0       -6.715820   -2.114998   -1.159060
     54          1           0       -3.901143    1.602408   -2.372669
     55          1           0       -4.434840    3.264808   -2.182211
     56          1           0       -5.595716    2.021446   -2.647981
     57          1           0       -6.286104    2.881338    0.962523
     58          1           0       -6.904118    3.079263   -0.677578
     59          1           0       -5.534960    4.052830   -0.132475
     60          1           0       -7.046076   -3.146769   -1.059045
     61          1           0       -6.673713   -1.871464   -2.218968
     62          1           0       -7.459354   -1.478506   -0.686724
     63          1           0       -3.411819   -2.944513   -0.601659
     64          1           0       -4.278475   -2.918956   -2.142226
     65          1           0       -4.789128   -4.015577   -0.857235
     66          1           0        0.996947   -0.164581    4.168546
     67          1           0       -5.130093    0.479635    1.648683
     68          1           0       -6.512727   -0.333035    1.309241
     69          1           0        6.568565    0.210642    1.425685
     70          1           0        5.184943   -0.639669    1.653067
     71          1           0       -2.315160   -0.255722   -1.719769
     72          1           0        2.397428    0.468878   -1.632861
 ---------------------------------------------------------------------

 SCF Done:  E(RHF) =  -1263.94870871     a.u. after    7 cycles
 SCF Done:  E(RHF) =  -1263.94874408     A.U. after   12 cycles
 E2 =    -0.4524729354D+01 EUMP2 =    -0.12684734734293D+04

 The electronic state is 1-A.
 Alpha  occ. eigenvalues --  -20.57445 -15.56527 -15.56382 -15.53750 -15.53508
 Alpha  occ. eigenvalues --  -11.34903 -11.29227 -11.29046 -11.27071 -11.26809
 Alpha  occ. eigenvalues --  -11.26350 -11.26064 -11.25979 -11.25910 -11.25454
 Alpha  occ. eigenvalues --  -11.25299 -11.25126 -11.24975 -11.22970 -11.22800
 Alpha  occ. eigenvalues --  -11.22154 -11.22021 -11.21680 -11.21548 -11.21339
 Alpha  occ. eigenvalues --  -11.21302 -11.21248 -11.21161 -11.20204 -11.20079
 Alpha  occ. eigenvalues --   -1.41155  -1.26149  -1.25875  -1.19484  -1.18595
 Alpha  occ. eigenvalues --   -1.17635  -1.09120  -1.08494  -1.06687  -1.06288
 Alpha  occ. eigenvalues --   -1.06128  -1.05259  -0.96884  -0.96134  -0.93253
 Alpha  occ. eigenvalues --   -0.93122  -0.92364  -0.92254  -0.90843  -0.89683
 Alpha  occ. eigenvalues --   -0.87596  -0.85465  -0.82957  -0.78877  -0.77441
 Alpha  occ. eigenvalues --   -0.77247  -0.77033  -0.75050  -0.74810  -0.71769
 Alpha  occ. eigenvalues --   -0.69671  -0.67866  -0.67215  -0.65994  -0.65453
 Alpha  occ. eigenvalues --   -0.65234  -0.64708  -0.63507  -0.62785  -0.62634
 Alpha  occ. eigenvalues --   -0.61921  -0.61781  -0.60998  -0.59783  -0.59525
 Alpha  occ. eigenvalues --   -0.58914  -0.58724  -0.57088  -0.56492  -0.56123
 Alpha  occ. eigenvalues --   -0.55032  -0.54917  -0.53983  -0.53702  -0.53559
 Alpha  occ. eigenvalues --   -0.53462  -0.53343  -0.53036  -0.52855  -0.52660
 Alpha  occ. eigenvalues --   -0.52399  -0.51626  -0.51139  -0.50241  -0.49251
 Alpha  occ. eigenvalues --   -0.47585  -0.47396  -0.47061  -0.46923  -0.46806
 Alpha  occ. eigenvalues --   -0.46585  -0.46385  -0.45373  -0.45134  -0.44694
 Alpha  occ. eigenvalues --   -0.43705  -0.43218  -0.42007  -0.40939  -0.40649
 Alpha  occ. eigenvalues --   -0.37841  -0.37566  -0.34849  -0.32545
 Alpha virt. eigenvalues --    0.03165   0.03549   0.03697   0.03825   0.04096
 Alpha virt. eigenvalues --    0.04369   0.04544   0.04909   0.05116   0.05275
 Alpha virt. eigenvalues --    0.05357   0.05623   0.05662   0.06023   0.06152

 Mulliken charges:
               1
     1  C    0.604147
     2  C    1.116981
     3  C    0.343448
     4  C    1.271270
     5  H   -0.969889
     6  C    0.458910
     7  C    1.114683
     8  H   -0.795470
     9  C   -0.126265
    10  C    0.525945
    11  H   -1.006559
    12  C    0.399752
    13  O   -0.833080
    14  C    0.089347
    15  C    0.580443
    16  N   -0.461335
    17  H   -0.421264
    18  C   -1.175009
    19  N   -0.258657
    20  H   -0.399089
    21  C   -2.046054
    22  H   -0.394975
    23  C    1.180548
    24  C    1.292021
    25  H   -0.234229
    26  C    1.460572
    27  C    1.288307
    28  H   -0.088445
    29  H   -0.130735
    30  H   -0.000699
    31  H   -0.149219
    32  H   -0.015777
    33  H    0.039238
    34  H   -0.131649
    35  H   -0.013807
    36  H   -0.152842
    37  H   -0.059121
    38  H    0.005100
    39  H   -0.026056
    40  C    0.546900
    41  C    0.092077
    42  N   -0.258640
    43  H   -0.399714
    44  C   -2.039459
    45  N   -0.444651
    46  H   -0.416772
    47  C   -1.176244
    48  H   -0.234446
    49  C    1.454794
    50  C    1.289657
    51  H   -0.390668
    52  C    1.179435
    53  C    1.271518
    54  H   -0.156898
    55  H   -0.132167
    56  H   -0.011837
    57  H    0.006257
    58  H   -0.024880
    59  H   -0.060815
    60  H   -0.131084
    61  H   -0.002614
    62  H   -0.085805
    63  H   -0.018132
    64  H    0.037952
    65  H   -0.147822
    66  H   -0.331251
    67  H    0.060721
    68  H   -0.030119
    69  H   -0.026501
    70  H    0.058523
    71  H   -0.687702
    72  H   -0.670101
 Sum of Mulliken charges =   0.00000

 Dipole moment (field-independent basis, Debye):
    X=              2.5078    Y=              0.7458    Z=             -6.1984  Tot=              6.7279
 Quadrupole moment (field-independent basis, Debye-Ang):
   XX=           -205.1452   YY=           -197.1931   ZZ=           -202.0408
   XY=             22.1182   XZ=             12.2866   YZ=              2.1312

 Normal termination of Gaussian 16 at Mon Nov  8 15:39:37 2021.
