 Gaussian 16, Revision C.01,
 Gaussian 16:  ES64L-G16RevC.01  3-Jul-2019

 ----------------------------------------------------------------------
 #P PBE1PBE/Def2TZVP SP SCF=(YQC,MaxCycle=900) int=(Grid=Superfinegrid)
  EmpiricalDispersion=GD3 SCRF=(PCM,Solvent=Chloroform)
 ----------------------------------------------------------------------

 -------------------------
 _1_alde1_2_ami3_2_opt_cfm
 -------------------------
 Symbolic Z-matrix:
 Charge =  0 Multiplicity = 1

                         Standard orientation:
 ---------------------------------------------------------------------
 Center     Atomic      Atomic             Coordinates (Angstroms)
 Number     Number       Type             X           Y           Z
 ---------------------------------------------------------------------
      1          6           0        0.019322    1.729755   -0.012799
      2          6           0       -0.000507    3.200313   -0.016787
      3          6           0       -1.177703    1.019852    0.051915
      4          6           0       -1.173805   -0.372205    0.054852
      5          1           0       -2.116347    1.549106    0.099985
      6          6           0        0.043953   -1.046461   -0.007055
      7          6           0        1.248510   -0.349347   -0.071169
      8          1           0        0.054849   -2.128208   -0.005105
      9          6           0        1.228351    1.043447   -0.074012
     10          6           0        2.512380   -1.072118   -0.134703
     11          1           0        2.168244    1.571225   -0.124875
     12          6           0       -2.424512   -1.118054    0.121166
     13          8           0       -0.989247    3.884721    0.030415
     14          6           0       -4.753900   -1.271289    0.247736
     15          6           0       -5.560097   -0.971673   -1.035260
     16          7           0       -3.535149   -0.529686    0.190644
     17          1           0       -4.572834   -2.361936    0.280029
     18          6           0       -5.526831   -0.849009    1.504068
     19          7           0       -6.637393   -1.939300   -1.154801
     20          1           0       -4.892807   -1.147518   -1.890101
     21          6           0       -5.997217    0.501263   -1.056107
     22          6           0       -5.931626    0.619146    1.437200
     23          6           0       -6.778191    0.882817    0.197436
     24          6           0        5.638410   -0.899581    1.036786
     25          6           0        4.842806   -1.194753   -0.253717
     26          7           0        6.720902   -1.860625    1.156377
     27          1           0        4.966468   -1.085705    1.885713
     28          6           0        6.066203    0.576226    1.072381
     29          7           0        3.614678   -0.466174   -0.199105
     30          1           0        4.672367   -2.286449   -0.295332
     31          6           0        5.620319   -0.756997   -1.501723
     32          6           0        6.851711    0.973061   -0.173573
     33          6           0        6.015131    0.713174   -1.421018
     34          1           0        1.008891    3.656002   -0.069381
     35          1           0        7.197712   -1.735917    2.042805
     36          1           0        7.402736   -1.718900    0.419356
     37          1           0       -7.314732   -1.805874   -0.412010
     38          1           0       -7.121450   -1.808756   -2.036591
     39          1           0       -7.706827    0.307196    0.255062
     40          1           0       -7.051286    1.938844    0.149069
     41          1           0       -5.030065    1.230865    1.392810
     42          1           0       -6.487228    0.888492    2.338147
     43          1           0       -6.410427   -1.482808    1.602442
     44          1           0       -4.893204   -1.021904    2.376859
     45          1           0       -5.100122    1.118089   -1.118980
     46          1           0       -6.601879    0.683381   -1.949289
     47          1           0       -2.333697   -2.216277    0.107095
     48          1           0        2.440656   -2.171347   -0.123361
     49          1           0        5.108666    1.318047   -1.378653
     50          1           0        6.574835    0.993356   -2.316059
     51          1           0        6.508790   -1.383467   -1.599893
     52          1           0        4.993168   -0.926859   -2.379766
     53          1           0        6.664711    0.754907    1.970332
     54          1           0        5.164305    1.186125    1.136264
     55          1           0        7.783891    0.403372   -0.229973
     56          1           0        7.119094    2.030250   -0.115422
 ---------------------------------------------------------------------

 SCF Done:  E(RPBE1PBE) =  -1111.65347878     a.u. after    6 cycles
 SCF Done:  E(RPBE1PBE) =  -1111.65350016     A.U. after    8 cycles

 The electronic state is 1-A.
 Alpha  occ. eigenvalues --  -19.21168 -14.38067 -14.37941 -14.36164 -14.36067
 Alpha  occ. eigenvalues --  -10.31627 -10.27100 -10.26976 -10.25291 -10.25184
 Alpha  occ. eigenvalues --  -10.25117 -10.25001 -10.24933 -10.24869 -10.24754
 Alpha  occ. eigenvalues --  -10.24742 -10.24613 -10.24584 -10.21569 -10.21445
 Alpha  occ. eigenvalues --  -10.21102 -10.20915 -10.20873 -10.20738 -10.20669
 Alpha  occ. eigenvalues --  -10.20541  -1.08931  -0.97157  -0.96948  -0.92122
 Alpha  occ. eigenvalues --   -0.91731  -0.90605  -0.84045  -0.83587  -0.81546
 Alpha  occ. eigenvalues --   -0.80923  -0.76572  -0.75957  -0.74610  -0.74198
 Alpha  occ. eigenvalues --   -0.69120  -0.68240  -0.66277  -0.62949  -0.62684
 Alpha  occ. eigenvalues --   -0.62472  -0.61375  -0.59296  -0.58237  -0.55773
 Alpha  occ. eigenvalues --   -0.55422  -0.53744  -0.52655  -0.52374  -0.51102
 Alpha  occ. eigenvalues --   -0.50189  -0.49414  -0.48631  -0.47941  -0.47195
 Alpha  occ. eigenvalues --   -0.46764  -0.46473  -0.45875  -0.45751  -0.45369
 Alpha  occ. eigenvalues --   -0.44803  -0.44232  -0.44009  -0.41683  -0.41289
 Alpha  occ. eigenvalues --   -0.40996  -0.40593  -0.39944  -0.39516  -0.39352
 Alpha  occ. eigenvalues --   -0.38719  -0.38427  -0.38301  -0.37738  -0.37061
 Alpha  occ. eigenvalues --   -0.36296  -0.35858  -0.33965  -0.33792  -0.33584
 Alpha  occ. eigenvalues --   -0.31772  -0.31585  -0.31041  -0.30620  -0.28415
 Alpha  occ. eigenvalues --   -0.27967  -0.27000  -0.26761  -0.26389  -0.25322
 Alpha  occ. eigenvalues --   -0.25094
 Alpha virt. eigenvalues --   -0.07524  -0.06876  -0.02594   0.03881   0.03989
 Alpha virt. eigenvalues --    0.04536   0.05458   0.06040   0.06258   0.06611
 Alpha virt. eigenvalues --    0.06989   0.07164   0.07259   0.08086   0.08797

 Mulliken charges:
               1
     1  C    0.269991
     2  C    0.058387
     3  C   -0.325907
     4  C    0.337340
     5  H    0.157091
     6  C   -0.333532
     7  C    0.295041
     8  H    0.135017
     9  C   -0.293037
    10  C   -0.185581
    11  H    0.155845
    12  C   -0.192940
    13  O   -0.315655
    14  C    0.248236
    15  C   -0.034586
    16  N   -0.234216
    17  H    0.048696
    18  C   -0.291758
    19  N   -0.531356
    20  H    0.087218
    21  C   -0.206133
    22  C   -0.184431
    23  C   -0.221899
    24  C   -0.033498
    25  C    0.247178
    26  N   -0.531202
    27  H    0.087749
    28  C   -0.205128
    29  N   -0.240620
    30  H    0.049840
    31  C   -0.291817
    32  C   -0.222145
    33  C   -0.182834
    34  H    0.092679
    35  H    0.231106
    36  H    0.223103
    37  H    0.222905
    38  H    0.230874
    39  H    0.092160
    40  H    0.110922
    41  H    0.108864
    42  H    0.105395
    43  H    0.119007
    44  H    0.108007
    45  H    0.107134
    46  H    0.101541
    47  H    0.089121
    48  H    0.090367
    49  H    0.103561
    50  H    0.106535
    51  H    0.119942
    52  H    0.108592
    53  H    0.102598
    54  H    0.102238
    55  H    0.093350
    56  H    0.110646
 Sum of Mulliken charges =   0.00000

 Dipole moment (field-independent basis, Debye):
    X=              2.1426    Y=             -2.7919    Z=             -0.0811  Tot=              3.5202
 Quadrupole moment (field-independent basis, Debye-Ang):
   XX=           -129.8924   YY=           -175.4507   ZZ=           -154.6010
   XY=              8.4379   XZ=              2.6706   YZ=             -0.4159

 Normal termination of Gaussian 16 at Mon Oct 18 18:24:00 2021.
