 Gaussian 16, Revision C.01,
 Gaussian 16:  ES64L-G16RevC.01  3-Jul-2019

 ----------------------------------------------------------------------
 #P PBE1PBE/Def2TZVP SP SCF=(YQC,MaxCycle=900) int=(Grid=Superfinegrid)
  EmpiricalDispersion=GD3 SCRF=(PCM,Solvent=Chloroform)
 ----------------------------------------------------------------------

 -------------------------
 _1_alde1_3_ami2_1_opt_cfm
 -------------------------
 Symbolic Z-matrix:
 Charge =  0 Multiplicity = 1

                         Standard orientation:
 ---------------------------------------------------------------------
 Center     Atomic      Atomic             Coordinates (Angstroms)
 Number     Number       Type             X           Y           Z
 ---------------------------------------------------------------------
      1          6           0       -0.127528    0.891032   -0.056696
      2          6           0        0.282226    2.339058   -0.009519
      3          6           0       -1.460848    0.515509   -0.072365
      4          6           0       -1.812099   -0.827342   -0.080540
      5          1           0       -2.241211    1.261254   -0.089712
      6          6           0       -0.820785   -1.797217   -0.068626
      7          6           0        0.516172   -1.431208   -0.050336
      8          1           0       -1.093237   -2.842698   -0.073838
      9          6           0        0.854570   -0.087157   -0.044485
     10          6           0        1.615570   -2.459523   -0.074356
     11          1           0        1.894240    0.200866   -0.031017
     12          6           0       -3.266134   -1.216750   -0.052972
     13          6           0        1.529412    3.878159    1.139767
     14          6           0        2.300026    3.601749   -0.179097
     15          7           0        0.653327    2.736393    1.339438
     16          7           0        1.479335    2.574537   -0.825221
     17          6           0       -5.429055   -0.233142   -0.163418
     18          6           0       -5.226628   -1.088457    1.117714
     19          7           0       -4.099780   -0.255742   -0.777921
     20          7           0       -3.790143   -1.210874    1.303971
     21          6           0        3.986908   -2.510757    0.184182
     22          6           0        3.517479   -3.123004   -1.162990
     23          7           0        2.732315   -2.053962    0.787190
     24          7           0        2.187645   -2.589988   -1.404858
     25          1           0        2.614868   -2.363828    1.742179
     26          1           0        1.211959   -3.449555    0.208898
     27          1           0        2.256738   -1.662097   -1.814485
     28          1           0       -0.563561    2.980198   -0.320515
     29          1           0        1.172611    1.973048    1.765181
     30          1           0       -4.123509   -0.432766   -1.773115
     31          1           0       -3.431359   -0.387026    1.779415
     32          1           0       -3.383111   -2.246794   -0.441637
     33          1           0       -5.629615   -2.094405    0.960927
     34          1           0       -5.701040   -0.655365    1.996245
     35          1           0        3.429654   -4.210307   -1.066522
     36          1           0        4.188090   -2.897913   -1.990102
     37          6           0        3.683281    3.005778    0.108515
     38          1           0        3.588106    2.129673    0.745452
     39          1           0        4.319389    3.736183    0.602949
     40          1           0        4.155619    2.700585   -0.822114
     41          1           0        1.254223    2.793166   -1.786223
     42          6           0        2.436735    4.865008   -1.028032
     43          6           0       -6.507467   -0.828424   -1.069681
     44          1           0       -7.458412   -0.875485   -0.543815
     45          1           0       -6.232350   -1.836064   -1.377835
     46          1           0       -6.634454   -0.214145   -1.959268
     47          6           0       -5.777447    1.217083    0.188887
     48          1           0       -5.029816    1.626712    0.863694
     49          1           0       -6.753363    1.270418    0.665466
     50          1           0       -5.792057    1.824597   -0.712703
     51          6           0        4.714549   -3.539909    1.048280
     52          1           0        4.060867   -4.382245    1.270134
     53          1           0        5.032332   -3.088446    1.986338
     54          1           0        5.594159   -3.913254    0.528867
     55          6           0        4.883464   -1.289149   -0.051010
     56          1           0        5.096882   -0.798949    0.895705
     57          1           0        4.380393   -0.575162   -0.698538
     58          1           0        5.821969   -1.586681   -0.512678
     59          1           0        2.981979    5.629887   -0.479618
     60          1           0        1.455063    5.259103   -1.286734
     61          1           0        2.978069    4.645978   -1.946567
     62          1           0        2.186660    4.024276    1.994835
     63          1           0        0.899927    4.766688    1.023214
 ---------------------------------------------------------------------

 SCF Done:  E(RPBE1PBE) =  -1149.51851946     a.u. after    6 cycles
 SCF Done:  E(RPBE1PBE) =  -1149.51854082     A.U. after    9 cycles

 The electronic state is 1-A.
 Alpha  occ. eigenvalues --  -14.37049 -14.37046 -14.37006 -14.35941 -14.35885
 Alpha  occ. eigenvalues --  -14.35881 -10.27308 -10.27294 -10.27263 -10.25335
 Alpha  occ. eigenvalues --  -10.25326 -10.25318 -10.23732 -10.23732 -10.23732
 Alpha  occ. eigenvalues --  -10.22629 -10.22550 -10.22484 -10.21936 -10.21578
 Alpha  occ. eigenvalues --  -10.21280 -10.20661 -10.20643 -10.20608 -10.19897
 Alpha  occ. eigenvalues --  -10.19874 -10.19865  -0.99094  -0.98985  -0.98929
 Alpha  occ. eigenvalues --   -0.88819  -0.87856  -0.87850  -0.87779  -0.81956
 Alpha  occ. eigenvalues --   -0.81860  -0.79899  -0.76950  -0.76497  -0.70825
 Alpha  occ. eigenvalues --   -0.70774  -0.70736  -0.69859  -0.69421  -0.69355
 Alpha  occ. eigenvalues --   -0.65570  -0.64778  -0.63977  -0.59889  -0.58711
 Alpha  occ. eigenvalues --   -0.58010  -0.57965  -0.57940  -0.54343  -0.53023
 Alpha  occ. eigenvalues --   -0.51522  -0.50816  -0.50138  -0.50025  -0.49418
 Alpha  occ. eigenvalues --   -0.47168  -0.45763  -0.45586  -0.45367  -0.45229
 Alpha  occ. eigenvalues --   -0.44855  -0.44692  -0.43745  -0.43425  -0.42483
 Alpha  occ. eigenvalues --   -0.42091  -0.41911  -0.41798  -0.40758  -0.40559
 Alpha  occ. eigenvalues --   -0.40327  -0.40041  -0.39885  -0.39589  -0.37584
 Alpha  occ. eigenvalues --   -0.37430  -0.37355  -0.37207  -0.37035  -0.36970
 Alpha  occ. eigenvalues --   -0.36822  -0.36172  -0.35700  -0.35414  -0.34245
 Alpha  occ. eigenvalues --   -0.34183  -0.34007  -0.33693  -0.33305  -0.26706
 Alpha  occ. eigenvalues --   -0.26418  -0.25459  -0.25254  -0.25069  -0.23426
 Alpha  occ. eigenvalues --   -0.23215  -0.22893
 Alpha virt. eigenvalues --   -0.00856  -0.00546   0.03504   0.04152   0.04686
 Alpha virt. eigenvalues --    0.06142   0.06224   0.06476   0.07177   0.07670
 Alpha virt. eigenvalues --    0.08001   0.08689   0.09074   0.09412   0.09905

 Mulliken charges:
               1
     1  C    0.300397
     2  C   -0.144411
     3  C   -0.370346
     4  C    0.314595
     5  H    0.120317
     6  C   -0.451539
     7  C    0.291701
     8  H    0.108998
     9  C   -0.284617
    10  C   -0.126514
    11  H    0.164781
    12  C   -0.107265
    13  C   -0.125446
    14  C    0.130080
    15  N   -0.287518
    16  N   -0.295464
    17  C    0.154451
    18  C   -0.145501
    19  N   -0.298781
    20  N   -0.290245
    21  C    0.130739
    22  C   -0.126747
    23  N   -0.295152
    24  N   -0.287681
    25  H    0.205934
    26  H    0.080745
    27  H    0.209886
    28  H    0.081747
    29  H    0.209836
    30  H    0.205540
    31  H    0.209273
    32  H    0.079742
    33  H    0.090705
    34  H    0.135598
    35  H    0.087723
    36  H    0.134796
    37  C   -0.395566
    38  H    0.124496
    39  H    0.120125
    40  H    0.114413
    41  H    0.205669
    42  C   -0.431509
    43  C   -0.437963
    44  H    0.127708
    45  H    0.131601
    46  H    0.130118
    47  C   -0.387768
    48  H    0.121631
    49  H    0.118809
    50  H    0.114905
    51  C   -0.431970
    52  H    0.130743
    53  H    0.131151
    54  H    0.127391
    55  C   -0.394352
    56  H    0.114560
    57  H    0.124115
    58  H    0.120023
    59  H    0.127527
    60  H    0.130590
    61  H    0.131054
    62  H    0.134773
    63  H    0.087368
 Sum of Mulliken charges =   0.00000

 Dipole moment (field-independent basis, Debye):
    X=              0.7478    Y=              0.7740    Z=             -0.8246  Tot=              1.3558
 Quadrupole moment (field-independent basis, Debye-Ang):
   XX=           -146.0156   YY=           -159.4951   ZZ=           -166.1000
   XY=             -0.1770   XZ=              5.4919   YZ=             -5.0717

 Normal termination of Gaussian 16 at Sun Oct 17 21:43:29 2021.
