 Gaussian 16, Revision C.01,
 Gaussian 16:  ES64L-G16RevC.01  3-Jul-2019

 ----------------------------------------------------------------------
 #P PBE1PBE/Def2TZVP SP SCF=(YQC,MaxCycle=900) int=(Grid=Superfinegrid)
  EmpiricalDispersion=GD3 SCRF=(PCM,Solvent=Chloroform)
 ----------------------------------------------------------------------

 -------------------------
 _1_alde1_3_ami1_1_opt_cfm
 -------------------------
 Symbolic Z-matrix:
 Charge =  0 Multiplicity = 1

                         Standard orientation:
 ---------------------------------------------------------------------
 Center     Atomic      Atomic             Coordinates (Angstroms)
 Number     Number       Type             X           Y           Z
 ---------------------------------------------------------------------
      1          6           0       -0.129395    0.872371   -0.244746
      2          6           0        0.270556    2.322529   -0.288466
      3          6           0       -1.458021    0.486046   -0.310302
      4          6           0       -1.804689   -0.856118   -0.237965
      5          1           0       -2.238782    1.222584   -0.428624
      6          6           0       -0.812413   -1.813966   -0.093647
      7          6           0        0.520271   -1.437723   -0.023674
      8          1           0       -1.080618   -2.859069   -0.035437
      9          6           0        0.854240   -0.094475   -0.100327
     10          6           0        1.619528   -2.457819    0.102013
     11          1           0        1.890723    0.201797   -0.047145
     12          6           0       -3.256861   -1.251255   -0.267799
     13          6           0        1.514446    3.944361    0.785265
     14          6           0        2.176455    3.685381   -0.599278
     15          7           0        0.634208    2.808439    1.029779
     16          1           0        0.869034    4.829086    0.700223
     17          6           0        2.512104    4.207873    1.920741
     18          7           0        1.479739    2.508285   -1.097745
     19          1           0        3.232357    3.411899   -0.459146
     20          6           0        2.153535    4.923602   -1.519921
     21          1           0        3.204487    4.976437    1.556192
     22          6           0        3.326055    2.973830    2.312495
     23          6           0        1.775374    4.753116    3.142954
     24          1           0        2.511475    5.768025   -0.918196
     25          6           0        0.758216    5.262547   -2.042343
     26          6           0        3.115790    4.729560   -2.691740
     27          1           0        1.009763    4.047892    3.456371
     28          1           0        1.294059    5.700594    2.911696
     29          1           0        2.468094    4.910871    3.966595
     30          1           0        4.165240    3.271222    2.937661
     31          1           0        3.718734    2.461445    1.437447
     32          1           0        2.719357    2.273506    2.882759
     33          1           0        4.129925    4.568182   -2.332832
     34          1           0        3.114661    5.607204   -3.334613
     35          1           0        2.825925    3.867277   -3.289060
     36          1           0        0.793191    6.185144   -2.617903
     37          1           0        0.051900    5.398299   -1.226754
     38          1           0        0.383008    4.475828   -2.694705
     39          6           0       -5.408700   -0.360940   -0.659083
     40          6           0       -5.296758   -0.973497    0.767237
     41          7           0       -4.036043   -0.373411   -1.145306
     42          1           0       -5.725736    0.689568   -0.586492
     43          6           0       -6.445414   -1.081403   -1.546267
     44          7           0       -3.870016   -1.097536    1.039156
     45          1           0       -5.698371   -1.995268    0.736677
     46          6           0       -6.068975   -0.206185    1.848138
     47          1           0       -7.357889   -1.178825   -0.945559
     48          6           0       -6.003776   -2.478301   -1.980222
     49          6           0       -6.770211   -0.232669   -2.775555
     50          1           0       -7.082986   -0.053869    1.458812
     51          6           0       -5.466785    1.161945    2.170445
     52          6           0       -6.153773   -1.048076    3.120086
     53          1           0       -7.512599   -0.729970   -3.396120
     54          1           0       -5.877428   -0.067354   -3.375495
     55          1           0       -7.164252    0.736932   -2.478977
     56          1           0       -6.803799   -2.962336   -2.536381
     57          1           0       -5.761863   -3.101988   -1.122895
     58          1           0       -5.129530   -2.429110   -2.627097
     59          1           0       -5.152891   -1.298341    3.462605
     60          1           0       -6.693847   -1.973511    2.934362
     61          1           0       -6.668938   -0.500308    3.905952
     62          1           0       -4.555610    1.056440    2.755497
     63          1           0       -6.173218    1.744150    2.758118
     64          1           0       -5.237350    1.719247    1.265303
     65          6           0        3.912250   -2.616971    0.652413
     66          6           0        3.636659   -3.144515   -0.785560
     67          7           0        2.651408   -2.000279    1.038774
     68          1           0        4.672676   -1.823331    0.616090
     69          6           0        4.449297   -3.707704    1.602882
     70          7           0        2.321015   -2.637426   -1.155459
     71          1           0        3.550684   -4.238563   -0.742273
     72          6           0        4.735845   -2.807399   -1.801745
     73          1           0        5.259876   -4.217711    1.068260
     74          6           0        3.396903   -4.747101    1.985770
     75          6           0        5.034328   -3.069809    2.862881
     76          1           0        5.686713   -3.106179   -1.344020
     77          6           0        4.812347   -1.318292   -2.141877
     78          6           0        4.529914   -3.621432   -3.078013
     79          1           0        5.842147   -2.387389    2.607900
     80          1           0        5.427961   -3.834575    3.529078
     81          1           0        4.271962   -2.508068    3.399230
     82          1           0        2.959155   -5.210868    1.105016
     83          1           0        2.596771   -4.296634    2.570710
     84          1           0        3.852457   -5.529066    2.589701
     85          1           0        3.545031   -3.416977   -3.490078
     86          1           0        4.599899   -4.686739   -2.870999
     87          1           0        5.282941   -3.364523   -3.819667
     88          1           0        5.742149   -1.109334   -2.666728
     89          1           0        4.782015   -0.703100   -1.245800
     90          1           0        3.990964   -1.026011   -2.792757
     91          1           0        2.401719   -2.172527    2.003431
     92          1           0        1.191809   -3.436398    0.390020
     93          1           0        2.419583   -1.725189   -1.590719
     94          1           0        1.279643    2.552519   -2.087949
     95          1           0       -0.577245    2.934606   -0.649266
     96          1           0        1.153067    2.073321    1.500773
     97          1           0       -3.959494   -0.632775   -2.119622
     98          1           0       -3.525728   -0.232761    1.445841
     99          1           0       -3.345188   -2.316975   -0.552148
 ---------------------------------------------------------------------

 SCF Done:  E(RPBE1PBE) =  -1620.87737352     a.u. after    6 cycles
 SCF Done:  E(RPBE1PBE) =  -1620.87740236     A.U. after    7 cycles

 The electronic state is 1-A.
 Alpha  occ. eigenvalues --  -14.36600 -14.36573 -14.36553 -14.36105 -14.36063
 Alpha  occ. eigenvalues --  -14.36056 -10.27185 -10.27144 -10.27101 -10.24196
 Alpha  occ. eigenvalues --  -10.24192 -10.24176 -10.23922 -10.23891 -10.23888
 Alpha  occ. eigenvalues --  -10.22598 -10.22567 -10.22553 -10.22552 -10.22550
 Alpha  occ. eigenvalues --  -10.22494 -10.22334 -10.22313 -10.22306 -10.21938
 Alpha  occ. eigenvalues --  -10.21598 -10.21348 -10.20559 -10.20538 -10.20537
 Alpha  occ. eigenvalues --  -10.20505 -10.20493 -10.20482 -10.20421 -10.20415
 Alpha  occ. eigenvalues --  -10.20400 -10.20094 -10.20076 -10.20063  -0.99018
 Alpha  occ. eigenvalues --   -0.98908  -0.98845  -0.88828  -0.88117  -0.88097
 Alpha  occ. eigenvalues --   -0.88083  -0.83963  -0.83908  -0.82975  -0.80727
 Alpha  occ. eigenvalues --   -0.80714  -0.80710  -0.78648  -0.78465  -0.73663
 Alpha  occ. eigenvalues --   -0.72663  -0.72313  -0.70666  -0.70661  -0.70656
 Alpha  occ. eigenvalues --   -0.70372  -0.70365  -0.70364  -0.66503  -0.65604
 Alpha  occ. eigenvalues --   -0.64756  -0.64042  -0.64015  -0.63999  -0.60224
 Alpha  occ. eigenvalues --   -0.59235  -0.58556  -0.57968  -0.57916  -0.57074
 Alpha  occ. eigenvalues --   -0.56772  -0.56711  -0.53453  -0.53268  -0.51709
 Alpha  occ. eigenvalues --   -0.51570  -0.49759  -0.49684  -0.49478  -0.48509
 Alpha  occ. eigenvalues --   -0.47597  -0.47573  -0.47077  -0.46243  -0.46027
 Alpha  occ. eigenvalues --   -0.45670  -0.45656  -0.45644  -0.45149  -0.44784
 Alpha  occ. eigenvalues --   -0.44593  -0.44449  -0.43572  -0.43203  -0.43192
 Alpha  occ. eigenvalues --   -0.42890  -0.42714  -0.42498  -0.41105  -0.41074
 Alpha  occ. eigenvalues --   -0.40958  -0.40855  -0.40817  -0.40379  -0.39749
 Alpha  occ. eigenvalues --   -0.39715  -0.39661  -0.39440  -0.39398  -0.39300
 Alpha  occ. eigenvalues --   -0.38088  -0.38060  -0.37995  -0.37497  -0.37412
 Alpha  occ. eigenvalues --   -0.37294  -0.37093  -0.36117  -0.35903  -0.35698
 Alpha  occ. eigenvalues --   -0.35457  -0.35201  -0.34647  -0.34634  -0.34610
 Alpha  occ. eigenvalues --   -0.34172  -0.33997  -0.33964  -0.33830  -0.33695
 Alpha  occ. eigenvalues --   -0.33507  -0.33420  -0.32784  -0.32711  -0.31851
 Alpha  occ. eigenvalues --   -0.31755  -0.31654  -0.26450  -0.26285  -0.25046
 Alpha  occ. eigenvalues --   -0.24943  -0.24806  -0.23316  -0.23172  -0.22870
 Alpha virt. eigenvalues --   -0.00888  -0.00498   0.03140   0.03900   0.04110
 Alpha virt. eigenvalues --    0.04917   0.05132   0.05293   0.05386   0.05930
 Alpha virt. eigenvalues --    0.06372   0.06561   0.06802   0.07433   0.07684

 Mulliken charges:
               1
     1  C    0.340636
     2  C   -0.137807
     3  C   -0.377748
     4  C    0.342821
     5  H    0.114483
     6  C   -0.437398
     7  C    0.328002
     8  H    0.110334
     9  C   -0.345197
    10  C   -0.128439
    11  H    0.155172
    12  C   -0.117112
    13  C   -0.023318
    14  C    0.123282
    15  N   -0.271415
    16  H    0.058961
    17  C   -0.025530
    18  N   -0.315631
    19  H    0.052775
    20  C   -0.115456
    21  H    0.080161
    22  C   -0.443538
    23  C   -0.381237
    24  H    0.074908
    25  C   -0.390123
    26  C   -0.362028
    27  H    0.127197
    28  H    0.121616
    29  H    0.125679
    30  H    0.132426
    31  H    0.140139
    32  H    0.130321
    33  H    0.125393
    34  H    0.126180
    35  H    0.114138
    36  H    0.133704
    37  H    0.130041
    38  H    0.109814
    39  C    0.131856
    40  C   -0.033784
    41  N   -0.313372
    42  H    0.051193
    43  C   -0.116889
    44  N   -0.277857
    45  H    0.057223
    46  C   -0.020831
    47  H    0.074879
    48  C   -0.388432
    49  C   -0.361838
    50  H    0.079997
    51  C   -0.442658
    52  C   -0.381123
    53  H    0.126263
    54  H    0.114212
    55  H    0.125535
    56  H    0.133945
    57  H    0.129343
    58  H    0.109914
    59  H    0.127066
    60  H    0.121509
    61  H    0.125790
    62  H    0.131708
    63  H    0.132492
    64  H    0.138000
    65  C    0.123414
    66  C   -0.024077
    67  N   -0.315869
    68  H    0.052846
    69  C   -0.115540
    70  N   -0.271391
    71  H    0.059073
    72  C   -0.024846
    73  H    0.074745
    74  C   -0.390260
    75  C   -0.362163
    76  H    0.080386
    77  C   -0.443873
    78  C   -0.381306
    79  H    0.125298
    80  H    0.126192
    81  H    0.114460
    82  H    0.129697
    83  H    0.110550
    84  H    0.133720
    85  H    0.126974
    86  H    0.121724
    87  H    0.125758
    88  H    0.132585
    89  H    0.140400
    90  H    0.129984
    91  H    0.195989
    92  H    0.081850
    93  H    0.194454
    94  H    0.195250
    95  H    0.082547
    96  H    0.194869
    97  H    0.195950
    98  H    0.197133
    99  H    0.083127
 Sum of Mulliken charges =   0.00000

 Dipole moment (field-independent basis, Debye):
    X=              0.7641    Y=              0.7973    Z=             -0.6732  Tot=              1.2933
 Quadrupole moment (field-independent basis, Debye-Ang):
   XX=           -218.5269   YY=           -236.5662   ZZ=           -246.1451
   XY=              0.6573   XZ=              6.2220   YZ=             -5.2578

 Normal termination of Gaussian 16 at Mon Oct 18 02:14:20 2021.
