 Gaussian 16, Revision C.01,
 Gaussian 16:  ES64L-G16RevC.01  3-Jul-2019

 ---------------------------------------------------------------------
 #P MP2/aug-cc-pVDZ SP SCF=(YQC,MaxCycle=900) int=(Grid=Superfinegrid)
 ---------------------------------------------------------------------

 -----------------------------
 _1_alde1_2_ami4_2_opt_gas_mp2
 -----------------------------
 Symbolic Z-matrix:
 Charge =  0 Multiplicity = 1

                         Standard orientation:
 ---------------------------------------------------------------------
 Center     Atomic      Atomic             Coordinates (Angstroms)
 Number     Number       Type             X           Y           Z
 ---------------------------------------------------------------------
      1          6           0        0.069850    1.734389    0.078355
      2          6           0        0.116205    3.200336    0.196440
      3          6           0        1.228984    0.981123    0.237373
      4          6           0        1.186586   -0.407550    0.132519
      5          1           0        2.175811    1.454540    0.447556
      6          6           0       -0.030239   -1.032073   -0.134146
      7          6           0       -1.197579   -0.289712   -0.299164
      8          1           0       -0.068579   -2.110148   -0.215299
      9          6           0       -1.139672    1.097258   -0.190767
     10          6           0       -2.460176   -0.963572   -0.577185
     11          1           0       -2.039351    1.679154   -0.317547
     12          6           0        2.394947   -1.203065    0.299172
     13          8           0       -0.828963    3.937677    0.095324
     14          6           0        4.688330   -1.465627    0.650628
     15          6           0        5.667631   -1.117636   -0.496840
     16          7           0        3.514687   -0.668725    0.525064
     17          7           0        6.087058    0.262768   -0.537842
     18          6           0       -5.755968   -0.656061    0.125834
     19          6           0       -4.758567   -0.996087   -0.988457
     20          7           0       -5.343240   -1.306828    1.358601
     21          7           0       -3.528991   -0.317089   -0.742705
     22          1           0        1.132391    3.595600    0.397147
     23          1           0       -6.003448   -1.104966    2.101364
     24          1           0       -4.437150   -0.949115    1.645586
     25          1           0        6.555744    0.514943    0.326410
     26          1           0        5.272932    0.861314   -0.629341
     27          1           0       -2.417608   -2.062613   -0.634623
     28          1           0       -5.822252    0.440121    0.206144
     29          1           0       -6.739507   -1.047287   -0.146656
     30          1           0       -5.154516   -0.619795   -1.936320
     31          1           0       -4.638336   -2.089363   -1.046340
     32          1           0        2.267798   -2.294463    0.222369
     33          1           0        5.185121   -1.349557   -1.450532
     34          1           0        6.555629   -1.747348   -0.396060
     35          1           0        5.161686   -1.205540    1.603563
     36          1           0        4.476750   -2.548113    0.635595
 ---------------------------------------------------------------------

 SCF Done:  E(RHF) =  -795.490726912     a.u. after    6 cycles
 SCF Done:  E(RHF) =  -795.490785409     A.U. after   12 cycles
 E2 =    -0.2682199121D+01 EUMP2 =    -0.79817298453022D+03

 The electronic state is 1-A.
 Alpha  occ. eigenvalues --  -20.56939 -15.57584 -15.57156 -15.54848 -15.54621
 Alpha  occ. eigenvalues --  -11.34446 -11.30167 -11.29597 -11.27599 -11.27138
 Alpha  occ. eigenvalues --  -11.26558 -11.26492 -11.26414 -11.26337 -11.26106
 Alpha  occ. eigenvalues --  -11.25954 -11.25824 -11.25560  -1.40479  -1.26433
 Alpha  occ. eigenvalues --   -1.25936  -1.19331  -1.18215  -1.17599  -1.07693
 Alpha  occ. eigenvalues --   -1.07370  -0.99846  -0.98534  -0.91176  -0.90279
 Alpha  occ. eigenvalues --   -0.87894  -0.83542  -0.80299  -0.78690  -0.75747
 Alpha  occ. eigenvalues --   -0.72070  -0.70179  -0.68363  -0.67754  -0.67173
 Alpha  occ. eigenvalues --   -0.66241  -0.65537  -0.64529  -0.63534  -0.60945
 Alpha  occ. eigenvalues --   -0.60665  -0.60368  -0.57452  -0.56906  -0.55530
 Alpha  occ. eigenvalues --   -0.54970  -0.54606  -0.53794  -0.53093  -0.52496
 Alpha  occ. eigenvalues --   -0.50524  -0.49999  -0.46930  -0.43278  -0.43218
 Alpha  occ. eigenvalues --   -0.41875  -0.41357  -0.39168  -0.38745  -0.35467
 Alpha  occ. eigenvalues --   -0.33082
 Alpha virt. eigenvalues --    0.02791   0.03513   0.03693   0.04167   0.04399
 Alpha virt. eigenvalues --    0.04732   0.04859   0.05274   0.05603   0.05790
 Alpha virt. eigenvalues --    0.06113   0.06356   0.07179   0.07347   0.07961

 Mulliken charges:
               1
     1  C    0.731402
     2  C    1.105292
     3  C    0.035943
     4  C    0.239330
     5  H   -0.704655
     6  C    0.830959
     7  C    0.475721
     8  H   -0.653226
     9  C   -0.317013
    10  C    1.022437
    11  H   -0.775981
    12  C    1.093199
    13  O   -0.793429
    14  C    0.500758
    15  C    0.828037
    16  N   -0.615683
    17  N   -0.439081
    18  C    0.843761
    19  C    0.542016
    20  N   -0.408663
    21  N   -0.645806
    22  H   -0.315707
    23  H   -0.029108
    24  H    0.030723
    25  H    0.026608
    26  H    0.031954
    27  H   -0.682324
    28  H   -0.115810
    29  H   -0.158207
    30  H   -0.240487
    31  H   -0.090066
    32  H   -0.656380
    33  H   -0.150502
    34  H   -0.134923
    35  H   -0.305997
    36  H   -0.105092
 Sum of Mulliken charges =   0.00000

 Dipole moment (field-independent basis, Debye):
    X=              0.6577    Y=             -4.1603    Z=              1.2246  Tot=              4.3864
 Quadrupole moment (field-independent basis, Debye-Ang):
   XX=           -110.6307   YY=           -118.8726   ZZ=           -110.0753
   XY=             -0.1888   XZ=              8.6487   YZ=              3.9586

 Normal termination of Gaussian 16 at Mon Nov  1 15:30:36 2021.
