 Gaussian 16, Revision C.01,
 Gaussian 16:  ES64L-G16RevC.01  3-Jul-2019

 ---------------------------------------------------------------------
 #P MP2/aug-cc-pVDZ SP SCF=(YQC,MaxCycle=900) int=(Grid=Superfinegrid)
 ---------------------------------------------------------------------

 -----------------------------
 _1_alde1_3_ami2_2_opt_gas_mp2
 -----------------------------
 Symbolic Z-matrix:
 Charge =  0 Multiplicity = 1

                         Standard orientation:
 ---------------------------------------------------------------------
 Center     Atomic      Atomic             Coordinates (Angstroms)
 Number     Number       Type             X           Y           Z
 ---------------------------------------------------------------------
      1          6           0       -1.169673   -0.766423   -0.790060
      2          6           0       -2.384444   -1.568444   -0.790737
      3          6           0       -1.238045    0.627282   -0.790055
      4          6           0       -0.079215    1.394513   -0.791224
      5          1           0       -2.211449    1.093813   -0.793050
      6          6           0        1.162049    0.756951   -0.791829
      7          6           0        1.247006   -0.630305   -0.791846
      8          1           0        2.052673    1.366630   -0.796194
      9          6           0        0.074205   -1.386413   -0.790396
     10          6           0        2.548848   -1.281439   -0.794116
     11          1           0        0.156900   -2.462630   -0.793631
     12          6           0       -0.166294    2.847536   -0.792441
     13          6           0       -5.538033   -1.523638    0.508080
     14          6           0       -4.702203   -1.847229   -0.766540
     15          7           0       -5.823705   -0.104862    0.625561
     16          6           0       -6.865344   -2.279283    0.435120
     17          7           0       -3.530330   -1.040450   -0.795901
     18          1           0       -7.461214   -2.042669    1.312011
     19          6           0        0.751507    4.994088   -0.767099
     20          6           0        1.448827    5.556063    0.507948
     21          7           0        0.863948    3.575761   -0.796250
     22          1           0        1.283772    5.379902   -1.643821
     23          7           0        2.820278    5.094013    0.626310
     24          6           0        1.458202    7.083413    0.435083
     25          6           0        3.948953   -3.149524   -0.768669
     26          6           0        4.090371   -4.030850    0.508400
     27          7           0        2.664335   -2.537842   -0.796241
     28          1           0        4.014730   -3.805812   -1.643746
     29          7           0        3.004946   -4.987438    0.632333
     30          6           0        4.074598   -3.136705    1.749733
     31          1           0        3.153595   -2.558723    1.786664
     32          1           0       -6.358776    0.214224   -0.175297
     33          1           0       -4.951619    0.413299    0.637175
     34          1           0        3.364572    5.397882   -0.174249
     35          1           0        2.832900    4.079681    0.637998
     36          1           0       -2.238502   -2.659903   -0.792568
     37          1           0        3.421262   -0.609564   -0.799934
     38          1           0       -6.696101   -3.352178    0.400376
     39          1           0       -7.425254   -1.986677   -0.450822
     40          1           0       -0.294406    5.342270   -0.803566
     41          1           0        1.992019    7.422043   -0.450626
     42          1           0        1.960688    7.481093    1.312275
     43          1           0        0.444402    7.473338    0.399984
     44          1           0        4.773321   -2.417920   -0.809291
     45          1           0        4.918304   -2.451183    1.740048
     46          1           0        4.129824   -3.756049    2.640293
     47          6           0        0.686807    5.094179    1.751670
     48          1           0        0.646744    4.007524    1.787563
     49          1           0       -0.328560    5.482228    1.746342
     50          1           0        1.199096    5.450609    2.640705
     51          1           0       -5.302320   -1.579780   -1.643598
     52          1           0       -4.480643   -2.926993   -0.802321
     53          6           0       -4.757383   -1.951935    1.752142
     54          1           0       -4.586003   -3.025320    1.747503
     55          1           0       -5.322307   -1.685762    2.640901
     56          1           0       -3.796141   -1.443554    1.787985
     57          1           0        2.993877   -5.612984   -0.166434
     58          1           0        2.120160   -4.491232    0.644947
     59          6           0        5.408223   -4.802810    0.434071
     60          1           0        6.252683   -4.119819    0.395073
     61          1           0        5.432373   -5.436706   -0.450003
     62          1           0        5.503716   -5.434539    1.312676
     63          1           0       -1.184405    3.267024   -0.795443
 ---------------------------------------------------------------------

 SCF Done:  E(RHF) =  -1142.99788797     a.u. after    7 cycles
 SCF Done:  E(RHF) =  -1142.99791804     A.U. after   11 cycles
 E2 =    -0.4068358892D+01 EUMP2 =    -0.11470662769340D+04

 The electronic state is 1-A.
 Alpha  occ. eigenvalues --  -15.56786 -15.56786 -15.56785 -15.53790 -15.53790
 Alpha  occ. eigenvalues --  -15.53790 -11.29346 -11.29346 -11.29345 -11.26324
 Alpha  occ. eigenvalues --  -11.26324 -11.26324 -11.25900 -11.25859 -11.25859
 Alpha  occ. eigenvalues --  -11.25649 -11.25649 -11.25605 -11.25535 -11.25535
 Alpha  occ. eigenvalues --  -11.25534 -11.21597 -11.21597 -11.21596 -11.21174
 Alpha  occ. eigenvalues --  -11.21172 -11.21172  -1.26065  -1.25686  -1.25685
 Alpha  occ. eigenvalues --   -1.19615  -1.19040  -1.19038  -1.17115  -1.06888
 Alpha  occ. eigenvalues --   -1.06888  -1.02940  -1.02431  -1.02430  -0.95866
 Alpha  occ. eigenvalues --   -0.95131  -0.95131  -0.93728  -0.93725  -0.93724
 Alpha  occ. eigenvalues --   -0.87190  -0.87189  -0.83364  -0.76506  -0.76506
 Alpha  occ. eigenvalues --   -0.75572  -0.74589  -0.74588  -0.71548  -0.69363
 Alpha  occ. eigenvalues --   -0.66815  -0.66623  -0.66622  -0.65771  -0.65527
 Alpha  occ. eigenvalues --   -0.65527  -0.64040  -0.64039  -0.62978  -0.62150
 Alpha  occ. eigenvalues --   -0.62149  -0.60495  -0.59841  -0.59840  -0.59731
 Alpha  occ. eigenvalues --   -0.57133  -0.56896  -0.56895  -0.54861  -0.53340
 Alpha  occ. eigenvalues --   -0.53338  -0.52973  -0.52968  -0.52966  -0.52449
 Alpha  occ. eigenvalues --   -0.51801  -0.51800  -0.50889  -0.50561  -0.50559
 Alpha  occ. eigenvalues --   -0.49644  -0.49643  -0.49151  -0.47080  -0.47079
 Alpha  occ. eigenvalues --   -0.46660  -0.45498  -0.45497  -0.41587  -0.41506
 Alpha  occ. eigenvalues --   -0.41067  -0.41066  -0.38349  -0.38348  -0.37384
 Alpha  occ. eigenvalues --   -0.32715  -0.32715
 Alpha virt. eigenvalues --    0.03131   0.03450   0.03450   0.04010   0.04200
 Alpha virt. eigenvalues --    0.04201   0.04711   0.04941   0.04942   0.05422
 Alpha virt. eigenvalues --    0.05618   0.05618   0.05774   0.06075   0.06076

 Mulliken charges:
               1
     1  C    0.884029
     2  C    0.678464
     3  C    0.026538
     4  C    0.884144
     5  H   -0.845296
     6  C    0.026104
     7  C    0.883860
     8  H   -0.845638
     9  C    0.024834
    10  C    0.677891
    11  H   -0.844934
    12  C    0.677649
    13  C   -3.624250
    14  C    1.630861
    15  N   -0.021385
    16  C    1.415013
    17  N   -0.452702
    18  H    0.049627
    19  C    1.630754
    20  C   -3.622839
    21  N   -0.451955
    22  H   -0.256351
    23  N   -0.021487
    24  C    1.413969
    25  C    1.630326
    26  C   -3.622209
    27  N   -0.452538
    28  H   -0.256391
    29  N   -0.021860
    30  C    1.448340
    31  H   -0.030492
    32  H   -0.016518
    33  H    0.015496
    34  H   -0.016456
    35  H    0.015531
    36  H   -0.672629
    37  H   -0.672660
    38  H    0.004100
    39  H   -0.054180
    40  H   -0.151299
    41  H   -0.054036
    42  H    0.049659
    43  H    0.004204
    44  H   -0.151317
    45  H   -0.004169
    46  H   -0.022511
    47  C    1.448646
    48  H   -0.030469
    49  H   -0.004700
    50  H   -0.022484
    51  H   -0.256026
    52  H   -0.151495
    53  C    1.448734
    54  H   -0.004605
    55  H   -0.022527
    56  H   -0.030486
    57  H   -0.016486
    58  H    0.015577
    59  C    1.413960
    60  H    0.004284
    61  H   -0.054233
    62  H    0.049621
    63  H   -0.672600
 Sum of Mulliken charges =   0.00000

 Dipole moment (field-independent basis, Debye):
    X=             -0.0021    Y=             -0.0033    Z=             -2.9909  Tot=              2.9909
 Quadrupole moment (field-independent basis, Debye-Ang):
   XX=           -171.3366   YY=           -171.2708   ZZ=           -177.9379
   XY=              0.0159   XZ=             -0.0349   YZ=              0.0066

 Normal termination of Gaussian 16 at Mon Nov  8 15:51:24 2021.
