 Gaussian 16, Revision C.01,
 Gaussian 16:  ES64L-G16RevC.01  3-Jul-2019

 ----------------------------------------------------------------------
 #P MP2/aug-cc-pVDZ SP SCF=(YQC,MaxCycle=900) int=(Grid=Superfinegrid)
 SCRF=(PCM,Solvent=Dichloromethane)
 ----------------------------------------------------------------------

 -----------------------------
 _1_alde1_3_ami2_1_opt_dcm_mp2
 -----------------------------
 Symbolic Z-matrix:
 Charge =  0 Multiplicity = 1

                         Standard orientation:
 ---------------------------------------------------------------------
 Center     Atomic      Atomic             Coordinates (Angstroms)
 Number     Number       Type             X           Y           Z
 ---------------------------------------------------------------------
      1          6           0       -0.127528    0.891032   -0.056696
      2          6           0        0.282226    2.339058   -0.009519
      3          6           0       -1.460848    0.515509   -0.072365
      4          6           0       -1.812099   -0.827342   -0.080540
      5          1           0       -2.241211    1.261254   -0.089712
      6          6           0       -0.820785   -1.797217   -0.068626
      7          6           0        0.516172   -1.431208   -0.050336
      8          1           0       -1.093237   -2.842698   -0.073838
      9          6           0        0.854570   -0.087157   -0.044485
     10          6           0        1.615570   -2.459523   -0.074356
     11          1           0        1.894240    0.200866   -0.031017
     12          6           0       -3.266134   -1.216750   -0.052972
     13          6           0        1.529412    3.878159    1.139767
     14          6           0        2.300026    3.601749   -0.179097
     15          7           0        0.653327    2.736393    1.339438
     16          7           0        1.479335    2.574537   -0.825221
     17          6           0       -5.429055   -0.233142   -0.163418
     18          6           0       -5.226628   -1.088457    1.117714
     19          7           0       -4.099780   -0.255742   -0.777921
     20          7           0       -3.790143   -1.210874    1.303971
     21          6           0        3.986908   -2.510757    0.184182
     22          6           0        3.517479   -3.123004   -1.162990
     23          7           0        2.732315   -2.053962    0.787190
     24          7           0        2.187645   -2.589988   -1.404858
     25          1           0        2.614868   -2.363828    1.742179
     26          1           0        1.211959   -3.449555    0.208898
     27          1           0        2.256738   -1.662097   -1.814485
     28          1           0       -0.563561    2.980198   -0.320515
     29          1           0        1.172611    1.973048    1.765181
     30          1           0       -4.123509   -0.432766   -1.773115
     31          1           0       -3.431359   -0.387026    1.779415
     32          1           0       -3.383111   -2.246794   -0.441637
     33          1           0       -5.629615   -2.094405    0.960927
     34          1           0       -5.701040   -0.655365    1.996245
     35          1           0        3.429654   -4.210307   -1.066522
     36          1           0        4.188090   -2.897913   -1.990102
     37          6           0        3.683281    3.005778    0.108515
     38          1           0        3.588106    2.129673    0.745452
     39          1           0        4.319389    3.736183    0.602949
     40          1           0        4.155619    2.700585   -0.822114
     41          1           0        1.254223    2.793166   -1.786223
     42          6           0        2.436735    4.865008   -1.028032
     43          6           0       -6.507467   -0.828424   -1.069681
     44          1           0       -7.458412   -0.875485   -0.543815
     45          1           0       -6.232350   -1.836064   -1.377835
     46          1           0       -6.634454   -0.214145   -1.959268
     47          6           0       -5.777447    1.217083    0.188887
     48          1           0       -5.029816    1.626712    0.863694
     49          1           0       -6.753363    1.270418    0.665466
     50          1           0       -5.792057    1.824597   -0.712703
     51          6           0        4.714549   -3.539909    1.048280
     52          1           0        4.060867   -4.382245    1.270134
     53          1           0        5.032332   -3.088446    1.986338
     54          1           0        5.594159   -3.913254    0.528867
     55          6           0        4.883464   -1.289149   -0.051010
     56          1           0        5.096882   -0.798949    0.895705
     57          1           0        4.380393   -0.575162   -0.698538
     58          1           0        5.821969   -1.586681   -0.512678
     59          1           0        2.981979    5.629887   -0.479618
     60          1           0        1.455063    5.259103   -1.286734
     61          1           0        2.978069    4.645978   -1.946567
     62          1           0        2.186660    4.024276    1.994835
     63          1           0        0.899927    4.766688    1.023214
 ---------------------------------------------------------------------

 SCF Done:  E(RHF) =  -1143.01433356     a.u. after    6 cycles
 SCF Done:  E(RHF) =  -1143.01435623     A.U. after   10 cycles
 E2 =    -0.4088963322D+01 EUMP2 =    -0.11471033195517D+04

 The electronic state is 1-A.
 Alpha  occ. eigenvalues --  -15.55326 -15.55325 -15.55279 -15.53901 -15.53852
 Alpha  occ. eigenvalues --  -15.53850 -11.28632 -11.28623 -11.28594 -11.25843
 Alpha  occ. eigenvalues --  -11.25831 -11.25825 -11.24737 -11.24737 -11.24731
 Alpha  occ. eigenvalues --  -11.23532 -11.23453 -11.23383 -11.23007 -11.22592
 Alpha  occ. eigenvalues --  -11.22207 -11.21618 -11.21604 -11.21571 -11.20934
 Alpha  occ. eigenvalues --  -11.20899 -11.20891  -1.27949  -1.27790  -1.27726
 Alpha  occ. eigenvalues --   -1.16101  -1.14674  -1.14661  -1.14603  -1.07278
 Alpha  occ. eigenvalues --   -1.07169  -1.04683  -1.01454  -1.00912  -0.93526
 Alpha  occ. eigenvalues --   -0.93469  -0.93431  -0.92060  -0.91702  -0.91605
 Alpha  occ. eigenvalues --   -0.86637  -0.85647  -0.84447  -0.79054  -0.77515
 Alpha  occ. eigenvalues --   -0.76288  -0.76268  -0.76241  -0.71023  -0.69595
 Alpha  occ. eigenvalues --   -0.67640  -0.66875  -0.66588  -0.65962  -0.65260
 Alpha  occ. eigenvalues --   -0.62496  -0.60707  -0.60340  -0.60172  -0.59874
 Alpha  occ. eigenvalues --   -0.59435  -0.59197  -0.58525  -0.58218  -0.56744
 Alpha  occ. eigenvalues --   -0.56134  -0.56040  -0.55873  -0.54838  -0.54541
 Alpha  occ. eigenvalues --   -0.54185  -0.54030  -0.53888  -0.53684  -0.51031
 Alpha  occ. eigenvalues --   -0.50878  -0.50848  -0.50734  -0.50402  -0.50320
 Alpha  occ. eigenvalues --   -0.50017  -0.49611  -0.48702  -0.47748  -0.46941
 Alpha  occ. eigenvalues --   -0.46720  -0.46552  -0.46252  -0.45947  -0.38645
 Alpha  occ. eigenvalues --   -0.38545  -0.38514  -0.36757  -0.36491  -0.36148
 Alpha  occ. eigenvalues --   -0.32724  -0.31998
 Alpha virt. eigenvalues --    0.03399   0.03754   0.03880   0.04215   0.04575
 Alpha virt. eigenvalues --    0.04638   0.04933   0.05130   0.05295   0.05805
 Alpha virt. eigenvalues --    0.05845   0.06372   0.06436   0.06650   0.07017

 Mulliken charges:
               1
     1  C    0.765253
     2  C    0.512223
     3  C    0.391160
     4  C    0.564801
     5  H   -0.831212
     6  C    0.780912
     7  C    0.537002
     8  H   -0.751675
     9  C    0.384186
    10  C    0.294961
    11  H   -0.877137
    12  C    0.623894
    13  C    1.336094
    14  C   -2.384499
    15  N   -0.624818
    16  N   -0.167453
    17  C   -2.243351
    18  C    1.334433
    19  N   -0.305419
    20  N   -0.639777
    21  C   -2.348841
    22  C    1.343115
    23  N   -0.143667
    24  N   -0.614311
    25  H   -0.081535
    26  H   -0.419543
    27  H    0.105667
    28  H   -0.398780
    29  H    0.101810
    30  H   -0.053938
    31  H    0.098937
    32  H   -0.348002
    33  H   -0.293331
    34  H   -0.211130
    35  H   -0.283483
    36  H   -0.204543
    37  C    1.266297
    38  H   -0.162136
    39  H   -0.036188
    40  H   -0.101746
    41  H   -0.077489
    42  C    1.015039
    43  C    1.022733
    44  H   -0.038121
    45  H   -0.037397
    46  H   -0.016094
    47  C    1.116292
    48  H   -0.082809
    49  H   -0.017104
    50  H   -0.092316
    51  C    1.016723
    52  H   -0.038428
    53  H   -0.002673
    54  H   -0.029746
    55  C    1.218498
    56  H   -0.104129
    57  H   -0.172513
    58  H   -0.029449
    59  H   -0.028864
    60  H   -0.044149
    61  H   -0.004045
    62  H   -0.202825
    63  H   -0.285364
 Sum of Mulliken charges =   0.00000

 Dipole moment (field-independent basis, Debye):
    X=              0.8677    Y=              0.8946    Z=             -0.9301  Tot=              1.5551
 Quadrupole moment (field-independent basis, Debye-Ang):
   XX=           -145.2157   YY=           -160.2543   ZZ=           -169.7139
   XY=             -0.2110   XZ=              6.1429   YZ=             -5.5519

 Normal termination of Gaussian 16 at Thu Nov 11 20:20:04 2021.
