 Gaussian 16, Revision C.01,
 Gaussian 16:  ES64L-G16RevC.01  3-Jul-2019

 ----------------------------------------------------------------------
 #P PBE1PBE/Def2TZVP SP SCF=(YQC,MaxCycle=900) int=(Grid=Superfinegrid)
  EmpiricalDispersion=GD3 SCRF=(PCM,Solvent=Dichloromethane)
 ----------------------------------------------------------------------

 -------------------------
 _1_alde1_2_ami4_2_opt_dcm
 -------------------------
 Symbolic Z-matrix:
 Charge =  0 Multiplicity = 1

                         Standard orientation:
 ---------------------------------------------------------------------
 Center     Atomic      Atomic             Coordinates (Angstroms)
 Number     Number       Type             X           Y           Z
 ---------------------------------------------------------------------
      1          6           0        0.069850    1.734389    0.078355
      2          6           0        0.116205    3.200336    0.196440
      3          6           0        1.228984    0.981123    0.237373
      4          6           0        1.186586   -0.407550    0.132519
      5          1           0        2.175811    1.454540    0.447556
      6          6           0       -0.030239   -1.032073   -0.134146
      7          6           0       -1.197579   -0.289712   -0.299164
      8          1           0       -0.068579   -2.110148   -0.215299
      9          6           0       -1.139672    1.097258   -0.190767
     10          6           0       -2.460176   -0.963572   -0.577185
     11          1           0       -2.039351    1.679154   -0.317547
     12          6           0        2.394947   -1.203065    0.299172
     13          8           0       -0.828963    3.937677    0.095324
     14          6           0        4.688330   -1.465627    0.650628
     15          6           0        5.667631   -1.117636   -0.496840
     16          7           0        3.514687   -0.668725    0.525064
     17          7           0        6.087058    0.262768   -0.537842
     18          6           0       -5.755968   -0.656061    0.125834
     19          6           0       -4.758567   -0.996087   -0.988457
     20          7           0       -5.343240   -1.306828    1.358601
     21          7           0       -3.528991   -0.317089   -0.742705
     22          1           0        1.132391    3.595600    0.397147
     23          1           0       -6.003448   -1.104966    2.101364
     24          1           0       -4.437150   -0.949115    1.645586
     25          1           0        6.555744    0.514943    0.326410
     26          1           0        5.272932    0.861314   -0.629341
     27          1           0       -2.417608   -2.062613   -0.634623
     28          1           0       -5.822252    0.440121    0.206144
     29          1           0       -6.739507   -1.047287   -0.146656
     30          1           0       -5.154516   -0.619795   -1.936320
     31          1           0       -4.638336   -2.089363   -1.046340
     32          1           0        2.267798   -2.294463    0.222369
     33          1           0        5.185121   -1.349557   -1.450532
     34          1           0        6.555629   -1.747348   -0.396060
     35          1           0        5.161686   -1.205540    1.603563
     36          1           0        4.476750   -2.548113    0.635595
 ---------------------------------------------------------------------

 SCF Done:  E(RPBE1PBE) =  -799.799970932     a.u. after    7 cycles
 SCF Done:  E(RPBE1PBE) =  -799.799978403     A.U. after    8 cycles

 The electronic state is 1-A.
 Alpha  occ. eigenvalues --  -19.21390 -14.38504 -14.38492 -14.36140 -14.35936
 Alpha  occ. eigenvalues --  -10.31818 -10.27297 -10.27230 -10.25450 -10.25361
 Alpha  occ. eigenvalues --  -10.25316 -10.25190 -10.25116 -10.24814 -10.24544
 Alpha  occ. eigenvalues --  -10.24536 -10.24461 -10.24352  -1.09187  -0.97160
 Alpha  occ. eigenvalues --   -0.96946  -0.91629  -0.90818  -0.90247  -0.82063
 Alpha  occ. eigenvalues --   -0.81797  -0.75990  -0.74692  -0.69238  -0.68385
 Alpha  occ. eigenvalues --   -0.66650  -0.63128  -0.60397  -0.59064  -0.56527
 Alpha  occ. eigenvalues --   -0.54259  -0.53189  -0.51812  -0.51307  -0.50420
 Alpha  occ. eigenvalues --   -0.49751  -0.48914  -0.48057  -0.47114  -0.45780
 Alpha  occ. eigenvalues --   -0.45430  -0.44843  -0.44374  -0.42450  -0.42131
 Alpha  occ. eigenvalues --   -0.41100  -0.40210  -0.40088  -0.39325  -0.38588
 Alpha  occ. eigenvalues --   -0.36860  -0.36489  -0.35622  -0.32973  -0.28711
 Alpha  occ. eigenvalues --   -0.28479  -0.27708  -0.27597  -0.26967  -0.25671
 Alpha  occ. eigenvalues --   -0.25061
 Alpha virt. eigenvalues --   -0.07708  -0.07072  -0.02828   0.04313   0.05011
 Alpha virt. eigenvalues --    0.05205   0.06190   0.06592   0.06987   0.08049
 Alpha virt. eigenvalues --    0.08440   0.09157   0.09424   0.09482   0.10344

 Mulliken charges:
               1
     1  C    0.286635
     2  C    0.073777
     3  C   -0.314428
     4  C    0.314899
     5  H    0.139366
     6  C   -0.328454
     7  C    0.362930
     8  H    0.138680
     9  C   -0.353968
    10  C   -0.163548
    11  H    0.132303
    12  C   -0.162216
    13  O   -0.322146
    14  C   -0.117581
    15  C   -0.087082
    16  N   -0.188500
    17  N   -0.550330
    18  C   -0.104434
    19  C   -0.057514
    20  N   -0.567877
    21  N   -0.199980
    22  H    0.097858
    23  H    0.236457
    24  H    0.237152
    25  H    0.229612
    26  H    0.235196
    27  H    0.093471
    28  H    0.100780
    29  H    0.112433
    30  H    0.125818
    31  H    0.072777
    32  H    0.090204
    33  H    0.112985
    34  H    0.118478
    35  H    0.124098
    36  H    0.082148
 Sum of Mulliken charges =   0.00000

 Dipole moment (field-independent basis, Debye):
    X=              0.8888    Y=             -4.8259    Z=              1.5059  Tot=              5.1329
 Quadrupole moment (field-independent basis, Debye-Ang):
   XX=           -106.0079   YY=           -117.9371   ZZ=           -107.3333
   XY=             -0.6869   XZ=              9.1422   YZ=              3.8669

 Normal termination of Gaussian 16 at Mon Oct 18 10:52:06 2021.
