 Gaussian 16, Revision C.01,
 Gaussian 16:  ES64L-G16RevC.01  3-Jul-2019

 ----------------------------------------------------------------------
 #P MP2/aug-cc-pVDZ SP SCF=(YQC,MaxCycle=900) int=(Grid=Superfinegrid)
 SCRF=(PCM,Solvent=Dichloromethane)
 ----------------------------------------------------------------------

 -----------------------------
 _1_alde1_2_ami4_2_opt_dcm_mp2
 -----------------------------
 Symbolic Z-matrix:
 Charge =  0 Multiplicity = 1

                         Standard orientation:
 ---------------------------------------------------------------------
 Center     Atomic      Atomic             Coordinates (Angstroms)
 Number     Number       Type             X           Y           Z
 ---------------------------------------------------------------------
      1          6           0        0.069850    1.734389    0.078355
      2          6           0        0.116205    3.200336    0.196440
      3          6           0        1.228984    0.981123    0.237373
      4          6           0        1.186586   -0.407550    0.132519
      5          1           0        2.175811    1.454540    0.447556
      6          6           0       -0.030239   -1.032073   -0.134146
      7          6           0       -1.197579   -0.289712   -0.299164
      8          1           0       -0.068579   -2.110148   -0.215299
      9          6           0       -1.139672    1.097258   -0.190767
     10          6           0       -2.460176   -0.963572   -0.577185
     11          1           0       -2.039351    1.679154   -0.317547
     12          6           0        2.394947   -1.203065    0.299172
     13          8           0       -0.828963    3.937677    0.095324
     14          6           0        4.688330   -1.465627    0.650628
     15          6           0        5.667631   -1.117636   -0.496840
     16          7           0        3.514687   -0.668725    0.525064
     17          7           0        6.087058    0.262768   -0.537842
     18          6           0       -5.755968   -0.656061    0.125834
     19          6           0       -4.758567   -0.996087   -0.988457
     20          7           0       -5.343240   -1.306828    1.358601
     21          7           0       -3.528991   -0.317089   -0.742705
     22          1           0        1.132391    3.595600    0.397147
     23          1           0       -6.003448   -1.104966    2.101364
     24          1           0       -4.437150   -0.949115    1.645586
     25          1           0        6.555744    0.514943    0.326410
     26          1           0        5.272932    0.861314   -0.629341
     27          1           0       -2.417608   -2.062613   -0.634623
     28          1           0       -5.822252    0.440121    0.206144
     29          1           0       -6.739507   -1.047287   -0.146656
     30          1           0       -5.154516   -0.619795   -1.936320
     31          1           0       -4.638336   -2.089363   -1.046340
     32          1           0        2.267798   -2.294463    0.222369
     33          1           0        5.185121   -1.349557   -1.450532
     34          1           0        6.555629   -1.747348   -0.396060
     35          1           0        5.161686   -1.205540    1.603563
     36          1           0        4.476750   -2.548113    0.635595
 ---------------------------------------------------------------------

 SCF Done:  E(RHF) =  -795.506910051     a.u. after    6 cycles
 SCF Done:  E(RHF) =  -795.506982493     A.U. after   12 cycles
 E2 =    -0.2678840839D+01 EUMP2 =    -0.79818582333216D+03

 The electronic state is 1-A.
 Alpha  occ. eigenvalues --  -20.57572 -15.56856 -15.56854 -15.54861 -15.54684
 Alpha  occ. eigenvalues --  -11.35017 -11.29366 -11.29255 -11.27076 -11.26858
 Alpha  occ. eigenvalues --  -11.26452 -11.26050 -11.25999 -11.25941 -11.25571
 Alpha  occ. eigenvalues --  -11.25489 -11.25454 -11.25328  -1.41336  -1.25856
 Alpha  occ. eigenvalues --   -1.25576  -1.19098  -1.18105  -1.17450  -1.07426
 Alpha  occ. eigenvalues --   -1.07012  -0.99448  -0.98114  -0.91001  -0.89964
 Alpha  occ. eigenvalues --   -0.87510  -0.83167  -0.79998  -0.78465  -0.75223
 Alpha  occ. eigenvalues --   -0.71828  -0.69848  -0.68131  -0.67592  -0.67032
 Alpha  occ. eigenvalues --   -0.66127  -0.65370  -0.64401  -0.63361  -0.60737
 Alpha  occ. eigenvalues --   -0.60417  -0.59942  -0.57328  -0.56845  -0.55244
 Alpha  occ. eigenvalues --   -0.54927  -0.54280  -0.53509  -0.52848  -0.52531
 Alpha  occ. eigenvalues --   -0.50139  -0.49582  -0.46495  -0.43794  -0.43054
 Alpha  occ. eigenvalues --   -0.41295  -0.41121  -0.39326  -0.38825  -0.35196
 Alpha  occ. eigenvalues --   -0.32849
 Alpha virt. eigenvalues --    0.03543   0.03945   0.04137   0.04621   0.04779
 Alpha virt. eigenvalues --    0.05027   0.05103   0.05392   0.05931   0.06060
 Alpha virt. eigenvalues --    0.06292   0.06719   0.07378   0.07693   0.08072

 Mulliken charges:
               1
     1  C    0.718226
     2  C    1.138949
     3  C    0.025235
     4  C    0.259825
     5  H   -0.703675
     6  C    0.801448
     7  C    0.494724
     8  H   -0.640002
     9  C   -0.300177
    10  C    1.029732
    11  H   -0.787818
    12  C    1.118857
    13  O   -0.855185
    14  C    0.490288
    15  C    0.833587
    16  N   -0.647823
    17  N   -0.480688
    18  C    0.855450
    19  C    0.550289
    20  N   -0.450925
    21  N   -0.684963
    22  H   -0.294567
    23  H   -0.015853
    24  H    0.041393
    25  H    0.042113
    26  H    0.038919
    27  H   -0.663918
    28  H   -0.118093
    29  H   -0.151647
    30  H   -0.237890
    31  H   -0.094843
    32  H   -0.639362
    33  H   -0.149765
    34  H   -0.129922
    35  H   -0.300029
    36  H   -0.091888
 Sum of Mulliken charges =   0.00000

 Dipole moment (field-independent basis, Debye):
    X=              1.1589    Y=             -5.4392    Z=              1.5215  Tot=              5.7657
 Quadrupole moment (field-independent basis, Debye-Ang):
   XX=           -112.8453   YY=           -119.9355   ZZ=           -110.1012
   XY=             -0.1009   XZ=             10.0544   YZ=              4.5672

 Normal termination of Gaussian 16 at Sat Nov  6 11:28:56 2021.
