 Gaussian 16, Revision C.01,
 Gaussian 16:  ES64L-G16RevC.01  3-Jul-2019

 ----------------------------------------------------------------------
 #P PBE1PBE/Def2TZVP SP SCF=(YQC,MaxCycle=900) int=(Grid=Superfinegrid)
  EmpiricalDispersion=GD3
 ----------------------------------------------------------------------

 -------------------------
 _1_alde1_2_ami3_2_opt_gas
 -------------------------
 Symbolic Z-matrix:
 Charge =  0 Multiplicity = 1

                         Standard orientation:
 ---------------------------------------------------------------------
 Center     Atomic      Atomic             Coordinates (Angstroms)
 Number     Number       Type             X           Y           Z
 ---------------------------------------------------------------------
      1          6           0        0.019322    1.729755   -0.012799
      2          6           0       -0.000507    3.200313   -0.016787
      3          6           0       -1.177703    1.019852    0.051915
      4          6           0       -1.173805   -0.372205    0.054852
      5          1           0       -2.116347    1.549106    0.099985
      6          6           0        0.043953   -1.046461   -0.007055
      7          6           0        1.248510   -0.349347   -0.071169
      8          1           0        0.054849   -2.128208   -0.005105
      9          6           0        1.228351    1.043447   -0.074012
     10          6           0        2.512380   -1.072118   -0.134703
     11          1           0        2.168244    1.571225   -0.124875
     12          6           0       -2.424512   -1.118054    0.121166
     13          8           0       -0.989247    3.884721    0.030415
     14          6           0       -4.753900   -1.271289    0.247736
     15          6           0       -5.560097   -0.971673   -1.035260
     16          7           0       -3.535149   -0.529686    0.190644
     17          1           0       -4.572834   -2.361936    0.280029
     18          6           0       -5.526831   -0.849009    1.504068
     19          7           0       -6.637393   -1.939300   -1.154801
     20          1           0       -4.892807   -1.147518   -1.890101
     21          6           0       -5.997217    0.501263   -1.056107
     22          6           0       -5.931626    0.619146    1.437200
     23          6           0       -6.778191    0.882817    0.197436
     24          6           0        5.638410   -0.899581    1.036786
     25          6           0        4.842806   -1.194753   -0.253717
     26          7           0        6.720902   -1.860625    1.156377
     27          1           0        4.966468   -1.085705    1.885713
     28          6           0        6.066203    0.576226    1.072381
     29          7           0        3.614678   -0.466174   -0.199105
     30          1           0        4.672367   -2.286449   -0.295332
     31          6           0        5.620319   -0.756997   -1.501723
     32          6           0        6.851711    0.973061   -0.173573
     33          6           0        6.015131    0.713174   -1.421018
     34          1           0        1.008891    3.656002   -0.069381
     35          1           0        7.197712   -1.735917    2.042805
     36          1           0        7.402736   -1.718900    0.419356
     37          1           0       -7.314732   -1.805874   -0.412010
     38          1           0       -7.121450   -1.808756   -2.036591
     39          1           0       -7.706827    0.307196    0.255062
     40          1           0       -7.051286    1.938844    0.149069
     41          1           0       -5.030065    1.230865    1.392810
     42          1           0       -6.487228    0.888492    2.338147
     43          1           0       -6.410427   -1.482808    1.602442
     44          1           0       -4.893204   -1.021904    2.376859
     45          1           0       -5.100122    1.118089   -1.118980
     46          1           0       -6.601879    0.683381   -1.949289
     47          1           0       -2.333697   -2.216277    0.107095
     48          1           0        2.440656   -2.171347   -0.123361
     49          1           0        5.108666    1.318047   -1.378653
     50          1           0        6.574835    0.993356   -2.316059
     51          1           0        6.508790   -1.383467   -1.599893
     52          1           0        4.993168   -0.926859   -2.379766
     53          1           0        6.664711    0.754907    1.970332
     54          1           0        5.164305    1.186125    1.136264
     55          1           0        7.783891    0.403372   -0.229973
     56          1           0        7.119094    2.030250   -0.115422
 ---------------------------------------------------------------------

 SCF Done:  E(RPBE1PBE) =  -1111.64341981     a.u. after    7 cycles
 SCF Done:  E(RPBE1PBE) =  -1111.64342692     A.U. after    8 cycles

 The electronic state is 1-A.
 Alpha  occ. eigenvalues --  -19.20505 -14.38312 -14.38031 -14.36352 -14.36024
 Alpha  occ. eigenvalues --  -10.31093 -10.27427 -10.27147 -10.25479 -10.25319
 Alpha  occ. eigenvalues --  -10.25183 -10.25164 -10.25032 -10.25014 -10.24855
 Alpha  occ. eigenvalues --  -10.24838 -10.24667 -10.24479 -10.21960 -10.21594
 Alpha  occ. eigenvalues --  -10.21520 -10.21218 -10.21086 -10.21031 -10.20706
 Alpha  occ. eigenvalues --  -10.20589  -1.08177  -0.97383  -0.97058  -0.92286
 Alpha  occ. eigenvalues --   -0.91820  -0.90657  -0.84272  -0.83721  -0.81573
 Alpha  occ. eigenvalues --   -0.81043  -0.76814  -0.76123  -0.74838  -0.74307
 Alpha  occ. eigenvalues --   -0.69115  -0.68281  -0.66453  -0.63209  -0.62919
 Alpha  occ. eigenvalues --   -0.62587  -0.61561  -0.59259  -0.58364  -0.55867
 Alpha  occ. eigenvalues --   -0.55684  -0.53839  -0.52902  -0.52492  -0.51156
 Alpha  occ. eigenvalues --   -0.50358  -0.49387  -0.48799  -0.48006  -0.47070
 Alpha  occ. eigenvalues --   -0.46992  -0.46494  -0.46024  -0.45804  -0.45364
 Alpha  occ. eigenvalues --   -0.44966  -0.44088  -0.43919  -0.41705  -0.41377
 Alpha  occ. eigenvalues --   -0.41097  -0.40745  -0.40015  -0.39625  -0.39497
 Alpha  occ. eigenvalues --   -0.38971  -0.38559  -0.38464  -0.37869  -0.37269
 Alpha  occ. eigenvalues --   -0.36453  -0.36023  -0.34321  -0.33861  -0.33669
 Alpha  occ. eigenvalues --   -0.32073  -0.31646  -0.31274  -0.30705  -0.28017
 Alpha  occ. eigenvalues --   -0.27814  -0.27164  -0.26820  -0.26394  -0.25289
 Alpha  occ. eigenvalues --   -0.24947
 Alpha virt. eigenvalues --   -0.07399  -0.06849  -0.02709   0.03272   0.03626
 Alpha virt. eigenvalues --    0.04583   0.05041   0.05511   0.06090   0.06170
 Alpha virt. eigenvalues --    0.06444   0.06670   0.06941   0.07660   0.08377

 Mulliken charges:
               1
     1  C    0.282781
     2  C    0.039222
     3  C   -0.322036
     4  C    0.350029
     5  H    0.164552
     6  C   -0.329843
     7  C    0.295750
     8  H    0.115942
     9  C   -0.289036
    10  C   -0.185422
    11  H    0.147742
    12  C   -0.194986
    13  O   -0.273245
    14  C    0.235728
    15  C   -0.031072
    16  N   -0.219118
    17  H    0.048205
    18  C   -0.285918
    19  N   -0.491876
    20  H    0.081451
    21  C   -0.202061
    22  C   -0.182075
    23  C   -0.212247
    24  C   -0.029956
    25  C    0.235167
    26  N   -0.491423
    27  H    0.082624
    28  C   -0.199462
    29  N   -0.228771
    30  H    0.050332
    31  C   -0.286413
    32  C   -0.213005
    33  C   -0.178685
    34  H    0.073983
    35  H    0.215066
    36  H    0.209148
    37  H    0.209014
    38  H    0.214634
    39  H    0.081632
    40  H    0.109762
    41  H    0.115524
    42  H    0.101810
    43  H    0.111974
    44  H    0.103380
    45  H    0.112246
    46  H    0.094272
    47  H    0.071647
    48  H    0.073592
    49  H    0.105770
    50  H    0.103675
    51  H    0.113425
    52  H    0.104666
    53  H    0.096024
    54  H    0.103409
    55  H    0.083663
    56  H    0.108808
 Sum of Mulliken charges =   0.00000

 Dipole moment (field-independent basis, Debye):
    X=              1.6775    Y=             -2.1422    Z=             -0.0589  Tot=              2.7215
 Quadrupole moment (field-independent basis, Debye-Ang):
   XX=           -133.8486   YY=           -173.6485   ZZ=           -154.9702
   XY=              6.9085   XZ=              2.3224   YZ=             -0.3540

 Normal termination of Gaussian 16 at Mon Oct 18 11:27:27 2021.
