 Gaussian 16, Revision C.01,
 Gaussian 16:  ES64L-G16RevC.01  3-Jul-2019

 ----------------------------------------------------------------------
 #P PBE1PBE/Def2TZVP SP SCF=(YQC,MaxCycle=900) int=(Grid=Superfinegrid)
  EmpiricalDispersion=GD3 SCRF=(PCM,Solvent=Chloroform)
 ----------------------------------------------------------------------

 -------------------------
 _1_alde1_2_ami4_1_opt_cfm
 -------------------------
 Symbolic Z-matrix:
 Charge =  0 Multiplicity = 1

                         Standard orientation:
 ---------------------------------------------------------------------
 Center     Atomic      Atomic             Coordinates (Angstroms)
 Number     Number       Type             X           Y           Z
 ---------------------------------------------------------------------
      1          6           0        0.345219    2.086327   -0.123314
      2          6           0        0.749759    3.496334   -0.143748
      3          6           0       -0.990899    1.733669   -0.303384
      4          6           0       -1.366189    0.400017   -0.291220
      5          1           0       -1.738352    2.500354   -0.447950
      6          6           0       -0.402863   -0.580723   -0.092034
      7          6           0        0.932339   -0.242552    0.085187
      8          1           0       -0.712090   -1.614873   -0.087189
      9          6           0        1.303159    1.091315    0.067656
     10          6           0        1.983578   -1.309404    0.252632
     11          1           0        2.334033    1.373408    0.218878
     12          6           0       -2.820810    0.031850   -0.441217
     13          8           0        1.879064    3.902862   -0.039156
     14          6           0       -4.712246   -0.584450    0.689757
     15          6           0       -4.203105   -1.847941   -0.034928
     16          7           0       -3.547361    0.279155    0.794678
     17          1           0       -5.142493   -0.789728    1.667702
     18          7           0       -3.007799   -1.395451   -0.743214
     19          1           0       -4.957192   -2.271956   -0.701315
     20          6           0        4.326268   -1.257708    0.618511
     21          6           0        3.954482   -2.087118   -0.626145
     22          7           0        3.036929   -0.876182    1.189222
     23          1           0        4.861387   -0.347011    0.323400
     24          7           0        2.644042   -1.590282   -1.013715
     25          1           0        3.848523   -3.143829   -0.360621
     26          1           0        2.890163   -1.260928    2.112233
     27          1           0        1.506710   -2.246418    0.589425
     28          1           0        2.749181   -0.719188   -1.527469
     29          1           0       -2.969641   -0.017720    1.576932
     30          1           0       -3.052316   -1.562098   -1.739305
     31          1           0       -3.277693    0.672985   -1.218375
     32          1           0       -0.098431    4.199211   -0.273418
     33          1           0       -3.909534   -2.616772    0.689850
     34          1           0        4.949018   -1.812509    1.321709
     35          1           0       -5.456227   -0.068974    0.074373
     36          1           0        4.669620   -1.995228   -1.440933
 ---------------------------------------------------------------------

 SCF Done:  E(RPBE1PBE) =  -799.812928566     a.u. after    6 cycles
 SCF Done:  E(RPBE1PBE) =  -799.812935488     A.U. after    9 cycles

 The electronic state is 1-A.
 Alpha  occ. eigenvalues --  -19.20542 -14.37769 -14.37614 -14.36827 -14.36594
 Alpha  occ. eigenvalues --  -10.31028 -10.28145 -10.27910 -10.24455 -10.24270
 Alpha  occ. eigenvalues --  -10.24177 -10.24014 -10.23974 -10.23971 -10.23918
 Alpha  occ. eigenvalues --  -10.23825 -10.23288 -10.23280  -1.08297  -0.99432
 Alpha  occ. eigenvalues --   -0.99183  -0.90089  -0.87915  -0.87701  -0.81391
 Alpha  occ. eigenvalues --   -0.80818  -0.75513  -0.74289  -0.68149  -0.65841
 Alpha  occ. eigenvalues --   -0.64673  -0.62928  -0.62838  -0.60062  -0.58401
 Alpha  occ. eigenvalues --   -0.54824  -0.53771  -0.52479  -0.51569  -0.51108
 Alpha  occ. eigenvalues --   -0.49422  -0.47581  -0.45979  -0.45728  -0.44456
 Alpha  occ. eigenvalues --   -0.44106  -0.43829  -0.43035  -0.41720  -0.41412
 Alpha  occ. eigenvalues --   -0.40437  -0.39954  -0.39710  -0.39046  -0.37568
 Alpha  occ. eigenvalues --   -0.36981  -0.36396  -0.36260  -0.35139  -0.28034
 Alpha  occ. eigenvalues --   -0.27820  -0.27706  -0.26268  -0.26030  -0.23990
 Alpha  occ. eigenvalues --   -0.23693
 Alpha virt. eigenvalues --   -0.06576  -0.02032   0.03521   0.04094   0.04706
 Alpha virt. eigenvalues --    0.05889   0.06404   0.07827   0.08019   0.08479
 Alpha virt. eigenvalues --    0.09070   0.09429   0.10277   0.11160   0.11481

 Mulliken charges:
               1
     1  C    0.249127
     2  C    0.062868
     3  C   -0.336922
     4  C    0.247318
     5  H    0.124999
     6  C   -0.378307
     7  C    0.376882
     8  H    0.121159
     9  C   -0.332293
    10  C   -0.121564
    11  H    0.135168
    12  C   -0.077112
    13  O   -0.326032
    14  C   -0.135671
    15  C   -0.132625
    16  N   -0.305556
    17  H    0.137870
    18  N   -0.307696
    19  H    0.112383
    20  C   -0.134340
    21  C   -0.125394
    22  N   -0.308170
    23  H    0.088052
    24  N   -0.301717
    25  H    0.090456
    26  H    0.215264
    27  H    0.096412
    28  H    0.213698
    29  H    0.211848
    30  H    0.219047
    31  H    0.095614
    32  H    0.088506
    33  H    0.088555
    34  H    0.117610
    35  H    0.094407
    36  H    0.136155
 Sum of Mulliken charges =   0.00000

 Dipole moment (field-independent basis, Debye):
    X=             -2.9537    Y=             -4.4641    Z=              0.0109  Tot=              5.3529
 Quadrupole moment (field-independent basis, Debye-Ang):
   XX=            -92.4361   YY=           -118.0862   ZZ=           -102.4200
   XY=            -10.3089   XZ=              3.7718   YZ=             -6.9673

 Normal termination of Gaussian 16 at Mon Oct 18 05:57:38 2021.
