 Gaussian 16, Revision C.01,
 Gaussian 16:  ES64L-G16RevC.01  3-Jul-2019

 ----------------------------------------------------------------------
 #P PBE1PBE/Def2TZVP SP SCF=(YQC,MaxCycle=900) int=(Grid=Superfinegrid)
  EmpiricalDispersion=GD3
 ----------------------------------------------------------------------

 -------------------------
 _1_alde1_2_ami1_1_opt_gas
 -------------------------
 Symbolic Z-matrix:
 Charge =  0 Multiplicity = 1

                         Standard orientation:
 ---------------------------------------------------------------------
 Center     Atomic      Atomic             Coordinates (Angstroms)
 Number     Number       Type             X           Y           Z
 ---------------------------------------------------------------------
      1          6           0       -0.039197   -1.334061    2.017131
      2          6           0       -0.094621   -2.130189    3.247446
      3          6           0       -1.210566   -0.809200    1.473536
      4          6           0       -1.166450   -0.054933    0.312542
      5          1           0       -2.151934   -0.983609    1.972420
      6          6           0        0.054216    0.160173   -0.313171
      7          6           0        1.228874   -0.362678    0.214085
      8          1           0        0.094110    0.742448   -1.222119
      9          6           0        1.180641   -1.101881    1.384150
     10          6           0        2.548083   -0.083886   -0.456904
     11          1           0        2.097515   -1.503480    1.789793
     12          6           0       -2.442120    0.477499   -0.280952
     13          8           0       -1.094426   -2.404122    3.861782
     14          6           0       -4.724882    0.838135    0.120125
     15          6           0       -4.516930   -0.095125   -1.111782
     16          7           0       -3.412249    0.829183    0.751200
     17          1           0       -5.444331    0.402213    0.825233
     18          6           0       -5.241635    2.237290   -0.275664
     19          7           0       -3.124738   -0.535812   -1.064738
     20          1           0       -4.612861    0.509837   -2.023477
     21          6           0       -5.513153   -1.259054   -1.201242
     22          1           0       -4.529491    2.681262   -0.982241
     23          6           0       -5.355211    3.148805    0.947223
     24          6           0       -6.610545    2.140528   -0.946794
     25          1           0       -6.515028   -0.826345   -1.106934
     26          6           0       -5.331986   -2.290670   -0.086446
     27          6           0       -5.401210   -1.936640   -2.565897
     28          1           0       -7.326840    1.679578   -0.269562
     29          1           0       -6.569801    1.551421   -1.858789
     30          1           0       -6.972818    3.134127   -1.201924
     31          1           0       -6.008224    2.698331    1.692039
     32          1           0       -5.774429    4.110224    0.658280
     33          1           0       -4.388111    3.335255    1.409233
     34          1           0       -4.384314   -2.286560   -2.724453
     35          1           0       -5.650736   -1.240329   -3.363241
     36          1           0       -6.078992   -2.785247   -2.625305
     37          1           0       -5.206140   -1.810787    0.881044
     38          1           0       -4.467490   -2.924096   -0.275632
     39          1           0       -6.206937   -2.934966   -0.036625
     40          6           0        4.868404   -0.450043   -0.245626
     41          6           0        4.541872    1.071175   -0.295845
     42          7           0        3.559735   -1.081506   -0.113059
     43          1           0        5.429700   -0.669671    0.674553
     44          6           0        5.713711   -0.943622   -1.438552
     45          7           0        3.113416    1.173593   -0.000708
     46          1           0        4.684308    1.440029   -1.319180
     47          6           0        5.367517    1.939114    0.657411
     48          1           0        6.554582   -0.250440   -1.544131
     49          6           0        4.943210   -0.957836   -2.758367
     50          6           0        6.276412   -2.334848   -1.146826
     51          1           0        5.188070    1.583706    1.679912
     52          6           0        4.914111    3.395034    0.555253
     53          6           0        6.863100    1.845269    0.364591
     54          1           0        5.473638   -3.053590   -0.993670
     55          1           0        6.892639   -2.319402   -0.250492
     56          1           0        6.888361   -2.678610   -1.977796
     57          1           0        4.127522   -1.678582   -2.732344
     58          1           0        5.610153   -1.240108   -3.570066
     59          1           0        4.529547    0.021814   -2.985881
     60          1           0        7.411452    2.508051    1.030328
     61          1           0        7.067680    2.147441   -0.660460
     62          1           0        7.235095    0.834774    0.510653
     63          1           0        5.427688    4.004529    1.295317
     64          1           0        3.842790    3.475868    0.714086
     65          1           0        5.142216    3.787933   -0.432934
     66          1           0        3.473017   -1.927934   -0.659998
     67          1           0        2.390116    0.004116   -1.548541
     68          1           0        2.988700    1.228693    1.007932
     69          1           0       -3.185842    1.690275    1.229493
     70          1           0       -3.067468   -1.413324   -0.556439
     71          1           0       -2.213676    1.324348   -0.958655
     72          1           0        0.898957   -2.484555    3.590912
 ---------------------------------------------------------------------

 SCF Done:  E(RPBE1PBE) =  -1271.18052259     a.u. after    6 cycles
 SCF Done:  E(RPBE1PBE) =  -1271.18055112     A.U. after    9 cycles

 The electronic state is 1-A.
 Alpha  occ. eigenvalues --  -19.19420 -14.37295 -14.36972 -14.36647 -14.36454
 Alpha  occ. eigenvalues --  -10.30028 -10.28058 -10.27692 -10.25041 -10.24885
 Alpha  occ. eigenvalues --  -10.24541 -10.24416 -10.23797 -10.23682 -10.23519
 Alpha  occ. eigenvalues --  -10.23417 -10.23301 -10.23274 -10.23166 -10.22817
 Alpha  occ. eigenvalues --  -10.22743 -10.22719 -10.21458 -10.21285 -10.21279
 Alpha  occ. eigenvalues --  -10.21067 -10.20952 -10.20698 -10.20526 -10.20214
 Alpha  occ. eigenvalues --   -1.07066  -0.99788  -0.99371  -0.89899  -0.88908
 Alpha  occ. eigenvalues --   -0.88347  -0.84731  -0.83975  -0.81527  -0.81153
 Alpha  occ. eigenvalues --   -0.79946  -0.79476  -0.73964  -0.73022  -0.71453
 Alpha  occ. eigenvalues --   -0.71018  -0.70930  -0.70602  -0.67613  -0.66698
 Alpha  occ. eigenvalues --   -0.65058  -0.64670  -0.64253  -0.60566  -0.60002
 Alpha  occ. eigenvalues --   -0.58702  -0.58378  -0.57610  -0.57214  -0.54051
 Alpha  occ. eigenvalues --   -0.53382  -0.51957  -0.50846  -0.50217  -0.49494
 Alpha  occ. eigenvalues --   -0.48405  -0.48345  -0.47057  -0.46834  -0.46665
 Alpha  occ. eigenvalues --   -0.46242  -0.45743  -0.44944  -0.44495  -0.44128
 Alpha  occ. eigenvalues --   -0.43830  -0.43642  -0.43257  -0.42682  -0.42328
 Alpha  occ. eigenvalues --   -0.42021  -0.41464  -0.40798  -0.40767  -0.40400
 Alpha  occ. eigenvalues --   -0.40140  -0.39837  -0.39723  -0.39334  -0.39200
 Alpha  occ. eigenvalues --   -0.38423  -0.37924  -0.37634  -0.37250  -0.36467
 Alpha  occ. eigenvalues --   -0.36433  -0.35718  -0.35359  -0.35308  -0.35097
 Alpha  occ. eigenvalues --   -0.34487  -0.34480  -0.34166  -0.33944  -0.33292
 Alpha  occ. eigenvalues --   -0.32404  -0.31861  -0.27503  -0.27131  -0.26662
 Alpha  occ. eigenvalues --   -0.25560  -0.25047  -0.24095  -0.23673
 Alpha virt. eigenvalues --   -0.06018  -0.01540   0.03148   0.03603   0.03914
 Alpha virt. eigenvalues --    0.04390   0.04765   0.04958   0.05726   0.05947
 Alpha virt. eigenvalues --    0.06137   0.07506   0.07989   0.08205   0.08359

 Mulliken charges:
               1
     1  C    0.255704
     2  C    0.036394
     3  C   -0.313702
     4  C    0.334153
     5  H    0.148880
     6  C   -0.423694
     7  C    0.272635
     8  H    0.103751
     9  C   -0.275377
    10  C   -0.095649
    11  H    0.127091
    12  C   -0.076572
    13  O   -0.283335
    14  C    0.077929
    15  C   -0.009994
    16  N   -0.275696
    17  H    0.068063
    18  C   -0.098842
    19  N   -0.252795
    20  H    0.067882
    21  C   -0.065483
    22  H    0.079809
    23  C   -0.361885
    24  C   -0.382739
    25  H    0.089161
    26  C   -0.425946
    27  C   -0.360506
    28  H    0.117651
    29  H    0.128396
    30  H    0.125458
    31  H    0.121468
    32  H    0.123584
    33  H    0.106002
    34  H    0.129567
    35  H    0.113945
    36  H    0.121521
    37  H    0.146078
    38  H    0.124058
    39  H    0.126233
    40  C    0.160570
    41  C   -0.086480
    42  N   -0.296473
    43  H    0.062434
    44  C   -0.149076
    45  N   -0.244094
    46  H    0.051430
    47  C   -0.055742
    48  H    0.085681
    49  C   -0.372084
    50  C   -0.340956
    51  H    0.078421
    52  C   -0.348129
    53  C   -0.392015
    54  H    0.107518
    55  H    0.122148
    56  H    0.123720
    57  H    0.103366
    58  H    0.131501
    59  H    0.126619
    60  H    0.129151
    61  H    0.118377
    62  H    0.128563
    63  H    0.120404
    64  H    0.133725
    65  H    0.107901
    66  H    0.187193
    67  H    0.077958
    68  H    0.193878
    69  H    0.174470
    70  H    0.184679
    71  H    0.063098
    72  H    0.069045
 Sum of Mulliken charges =  -0.00000

 Dipole moment (field-independent basis, Debye):
    X=              2.0282    Y=              1.8362    Z=             -2.6913  Tot=              3.8377
 Quadrupole moment (field-independent basis, Debye-Ang):
   XX=           -163.6950   YY=           -188.7053   ZZ=           -200.1580
   XY=             -7.5521   XZ=              4.8052   YZ=              8.6553

 Normal termination of Gaussian 16 at Mon Oct 18 11:25:16 2021.
