 Gaussian 16, Revision C.01,
 Gaussian 16:  ES64L-G16RevC.01  3-Jul-2019

 ----------------------------------------------------------------------
 #P PBE1PBE/Def2TZVP SP SCF=(YQC,MaxCycle=900) int=(Grid=Superfinegrid)
  EmpiricalDispersion=GD3 SCRF=(PCM,Solvent=Dichloromethane)
 ----------------------------------------------------------------------

 -------------------------
 _1_alde1_3_ami4_1_opt_dcm
 -------------------------
 Symbolic Z-matrix:
 Charge =  0 Multiplicity = 1

                         Standard orientation:
 ---------------------------------------------------------------------
 Center     Atomic      Atomic             Coordinates (Angstroms)
 Number     Number       Type             X           Y           Z
 ---------------------------------------------------------------------
      1          6           0       -1.594822   -0.666401   -0.154053
      2          6           0       -3.043692   -1.073667   -0.179864
      3          6           0       -1.256224    0.676472   -0.242331
      4          6           0        0.070592    1.071553   -0.182798
      5          1           0       -2.040788    1.407002   -0.369615
      6          6           0        1.061342    0.113358   -0.028862
      7          6           0        0.734491   -1.230986    0.062958
      8          1           0        2.095928    0.416372    0.018781
      9          6           0       -0.596234   -1.616083   -0.000548
     10          6           0        1.832054   -2.251551    0.196350
     11          1           0       -0.857447   -2.662015    0.069543
     12          6           0        0.450328    2.526324   -0.246165
     13          6           0       -5.081845   -0.866171    0.837227
     14          6           0       -5.190363   -0.144772   -0.525878
     15          7           0       -3.659087   -0.933480    1.129201
     16          7           0       -3.835267   -0.207271   -1.065487
     17          6           0        2.369770    3.886847   -0.491841
     18          6           0        1.571358    4.231755    0.786313
     19          7           0        1.674916    2.724672   -1.037749
     20          7           0        0.764960    3.055614    1.069742
     21          6           0        4.145268   -2.387413    0.663474
     22          6           0        3.783624   -3.057748   -0.682238
     23          7           0        2.891895   -1.780137    1.100788
     24          7           0        2.502972   -2.488660   -1.070173
     25          1           0        2.674172   -1.966289    2.070533
     26          1           0        1.407092   -3.218217    0.526304
     27          1           0        2.646804   -1.591681   -1.526559
     28          1           0       -3.801670   -0.516604   -2.027535
     29          1           0       -3.126077   -2.139645   -0.464941
     30          1           0       -3.347081   -0.055694    1.536390
     31          1           0        1.477753    2.805090   -2.026161
     32          1           0        1.322663    2.365292    1.565724
     33          1           0       -0.396670    3.117408   -0.641887
     34          1           0       -5.468133    0.907391   -0.395133
     35          1           0       -5.935498   -0.619517   -1.171916
     36          1           0       -5.454081   -1.891956    0.750598
     37          1           0       -5.624753   -0.362234    1.634392
     38          1           0        3.398915    3.598377   -0.248644
     39          1           0        2.404515    4.734554   -1.183391
     40          1           0        0.889767    5.065588    0.590546
     41          1           0        2.205466    4.488867    1.632602
     42          1           0        4.889752   -1.595389    0.524226
     43          1           0        4.546292   -3.114907    1.376663
     44          1           0        3.642224   -4.133893   -0.540482
     45          1           0        4.534251   -2.902165   -1.454763
 ---------------------------------------------------------------------

 SCF Done:  E(RPBE1PBE) =  -913.816502189     a.u. after    6 cycles
 SCF Done:  E(RPBE1PBE) =  -913.816516979     A.U. after    9 cycles

 The electronic state is 1-A.
 Alpha  occ. eigenvalues --  -14.37258 -14.37242 -14.37240 -14.36343 -14.36324
 Alpha  occ. eigenvalues --  -14.36302 -10.27472 -10.27436 -10.27398 -10.24116
 Alpha  occ. eigenvalues --  -10.24113 -10.24104 -10.23771 -10.23752 -10.23746
 Alpha  occ. eigenvalues --  -10.22888 -10.22867 -10.22806 -10.22185 -10.21862
 Alpha  occ. eigenvalues --  -10.21661  -0.99040  -0.98918  -0.98873  -0.88919
 Alpha  occ. eigenvalues --   -0.87389  -0.87361  -0.87351  -0.80523  -0.80499
 Alpha  occ. eigenvalues --   -0.75746  -0.73794  -0.73308  -0.66164  -0.65029
 Alpha  occ. eigenvalues --   -0.63890  -0.62368  -0.62294  -0.62146  -0.59984
 Alpha  occ. eigenvalues --   -0.58775  -0.55276  -0.53533  -0.52456  -0.52056
 Alpha  occ. eigenvalues --   -0.50756  -0.50356  -0.49904  -0.48025  -0.45068
 Alpha  occ. eigenvalues --   -0.45035  -0.44011  -0.43936  -0.43737  -0.43324
 Alpha  occ. eigenvalues --   -0.41255  -0.41016  -0.40854  -0.40532  -0.40481
 Alpha  occ. eigenvalues --   -0.39473  -0.38713  -0.38654  -0.38448  -0.36828
 Alpha  occ. eigenvalues --   -0.36049  -0.35995  -0.35685  -0.34338  -0.34012
 Alpha  occ. eigenvalues --   -0.26949  -0.26720  -0.25965  -0.25725  -0.25613
 Alpha  occ. eigenvalues --   -0.23638  -0.23500  -0.23178
 Alpha virt. eigenvalues --   -0.01094  -0.00782   0.03949   0.04703   0.05077
 Alpha virt. eigenvalues --    0.06447   0.06528   0.06644   0.07973   0.08536
 Alpha virt. eigenvalues --    0.08755   0.09213   0.09442   0.09586   0.09747

 Mulliken charges:
               1
     1  C    0.324776
     2  C   -0.116177
     3  C   -0.371718
     4  C    0.331014
     5  H    0.110678
     6  C   -0.332606
     7  C    0.319131
     8  H    0.117928
     9  C   -0.426499
    10  C   -0.125256
    11  H    0.114890
    12  C   -0.134224
    13  C   -0.150466
    14  C   -0.112414
    15  N   -0.306849
    16  N   -0.318584
    17  C   -0.113535
    18  C   -0.148168
    19  N   -0.322265
    20  N   -0.301429
    21  C   -0.111733
    22  C   -0.150446
    23  N   -0.322694
    24  N   -0.301371
    25  H    0.212998
    26  H    0.091118
    27  H    0.214756
    28  H    0.213535
    29  H    0.091966
    30  H    0.214967
    31  H    0.212986
    32  H    0.214872
    33  H    0.092356
    34  H    0.088119
    35  H    0.106788
    36  H    0.097020
    37  H    0.137522
    38  H    0.087808
    39  H    0.107202
    40  H    0.096784
    41  H    0.137399
    42  H    0.088439
    43  H    0.106456
    44  H    0.097477
    45  H    0.137450
 Sum of Mulliken charges =   0.00000

 Dipole moment (field-independent basis, Debye):
    X=              0.5356    Y=              0.5789    Z=             -0.7953  Tot=              1.1200
 Quadrupole moment (field-independent basis, Debye-Ang):
   XX=           -105.9203   YY=           -117.3729   ZZ=           -124.7899
   XY=              0.9183   XZ=              6.5449   YZ=             -5.7995

 Normal termination of Gaussian 16 at Mon Oct 18 05:54:30 2021.
