 Gaussian 16, Revision C.01,
 Gaussian 16:  ES64L-G16RevC.01  3-Jul-2019

 ---------------------------------------------------------------------
 #P MP2/aug-cc-pVDZ SP SCF=(YQC,MaxCycle=900) int=(Grid=Superfinegrid)
 ---------------------------------------------------------------------

 -----------------------------
 _1_alde1_2_ami2_2_opt_gas_mp2
 -----------------------------
 Symbolic Z-matrix:
 Charge =  0 Multiplicity = 1

                         Standard orientation:
 ---------------------------------------------------------------------
 Center     Atomic      Atomic             Coordinates (Angstroms)
 Number     Number       Type             X           Y           Z
 ---------------------------------------------------------------------
      1          6           0       -0.418655    2.824876    0.044975
      2          6           0       -0.849522    4.185819    0.396407
      3          6           0       -1.356420    1.831369   -0.210148
      4          6           0       -0.943280    0.541703   -0.545568
      5          1           0       -2.414191    2.039220   -0.157550
      6          6           0        0.417372    0.262802   -0.621216
      7          6           0        1.369753    1.250853   -0.367828
      8          1           0        0.764619   -0.725757   -0.881745
      9          6           0        0.943216    2.531218   -0.034690
     10          6           0        2.792371    0.950361   -0.450979
     11          1           0        1.653820    3.319767    0.167423
     12          6           0       -1.920575   -0.504091   -0.815675
     13          8           0       -0.112961    5.109090    0.629778
     14          6           0       -4.099896   -1.321946   -0.994119
     15          6           0       -4.976335   -1.550069    0.275452
     16          7           0       -3.160821   -0.281009   -0.756114
     17          7           0       -5.606844   -0.325547    0.731276
     18          6           0        4.961820   -1.575489    0.265448
     19          6           0        4.602487   -0.484000   -0.788787
     20          7           0        4.146754   -2.766943    0.116781
     21          7           0        3.208798   -0.204253   -0.743120
     22          1           0       -1.950289    4.307616    0.432534
     23          1           0        4.286647   -3.179512   -0.799281
     24          1           0        3.166537   -2.519272    0.197025
     25          1           0       -6.215785    0.049185    0.011789
     26          1           0       -4.895726    0.370528    0.927011
     27          1           0       -1.509004   -1.490307   -1.079248
     28          1           0        3.473056    1.791136   -0.249721
     29          6           0       -4.099848   -2.081321    1.411237
     30          6           0        6.428795   -1.968431    0.087121
     31          1           0        4.819143   -0.889019   -1.783401
     32          1           0        5.225078    0.410644   -0.623348
     33          1           0        6.681706   -2.743333    0.805188
     34          1           0        7.078915   -1.112283    0.245913
     35          1           0        6.603225   -2.356744   -0.914270
     36          1           0       -4.757287   -0.986190   -1.803574
     37          1           0       -3.622625   -2.270485   -1.291141
     38          1           0       -3.662049   -3.039430    1.143147
     39          1           0       -4.705059   -2.204760    2.304657
     40          1           0       -3.298598   -1.378712    1.630978
     41          6           0       -6.072926   -2.562063   -0.058843
     42          1           0       -6.696272   -2.197779   -0.872718
     43          1           0       -6.700932   -2.710880    0.814950
     44          1           0       -5.641307   -3.515500   -0.351511
     45          6           0        4.734229   -1.019773    1.672534
     46          1           0        3.698628   -0.709107    1.793763
     47          1           0        5.380328   -0.165291    1.857273
     48          1           0        4.950370   -1.793110    2.403939
 ---------------------------------------------------------------------

 SCF Done:  E(RHF) =  -951.652844879     a.u. after    6 cycles
 SCF Done:  E(RHF) =  -951.652937520     A.U. after   12 cycles
 E2 =    -0.3298146286D+01 EUMP2 =    -0.95495108380615D+03

 The electronic state is 1-A.
 Alpha  occ. eigenvalues --  -20.57273 -15.57441 -15.57388 -15.54147 -15.54123
 Alpha  occ. eigenvalues --  -11.34805 -11.30009 -11.29932 -11.27400 -11.27195
 Alpha  occ. eigenvalues --  -11.27185 -11.26703 -11.26691 -11.26637 -11.26568
 Alpha  occ. eigenvalues --  -11.26378 -11.25963 -11.25921 -11.21885 -11.21880
 Alpha  occ. eigenvalues --  -11.21531 -11.21507  -1.40813  -1.26566  -1.26274
 Alpha  occ. eigenvalues --   -1.20100  -1.19439  -1.18296  -1.07800  -1.07610
 Alpha  occ. eigenvalues --   -1.03141  -1.02857  -0.96178  -0.95802  -0.94061
 Alpha  occ. eigenvalues --   -0.94044  -0.91021  -0.88019  -0.85017  -0.77681
 Alpha  occ. eigenvalues --   -0.77080  -0.75734  -0.75174  -0.72772  -0.70307
 Alpha  occ. eigenvalues --   -0.67599  -0.67145  -0.66336  -0.66032  -0.65799
 Alpha  occ. eigenvalues --   -0.64745  -0.64216  -0.63120  -0.62583  -0.61011
 Alpha  occ. eigenvalues --   -0.60311  -0.60249  -0.57733  -0.57496  -0.56879
 Alpha  occ. eigenvalues --   -0.54330  -0.53936  -0.53413  -0.53295  -0.53238
 Alpha  occ. eigenvalues --   -0.52552  -0.52276  -0.51179  -0.51102  -0.50084
 Alpha  occ. eigenvalues --   -0.49533  -0.47501  -0.47044  -0.46011  -0.43629
 Alpha  occ. eigenvalues --   -0.43379  -0.41873  -0.41668  -0.38720  -0.38430
 Alpha  occ. eigenvalues --   -0.35035  -0.33524
 Alpha virt. eigenvalues --    0.02989   0.03395   0.03660   0.04010   0.04271
 Alpha virt. eigenvalues --    0.04465   0.04675   0.04902   0.05207   0.05446
 Alpha virt. eigenvalues --    0.05749   0.05981   0.06313   0.06363   0.06603

 Mulliken charges:
               1
     1  C    0.368672
     2  C    1.189936
     3  C    0.199885
     4  C    0.987999
     5  H   -0.813954
     6  C   -0.039890
     7  C    1.074572
     8  H   -0.829398
     9  C    0.111367
    10  C    0.564954
    11  H   -0.728885
    12  C    0.401186
    13  O   -0.812123
    14  C    1.565229
    15  C   -3.597724
    16  N   -0.429130
    17  N   -0.020040
    18  C   -3.599999
    19  C    1.648908
    20  N   -0.017623
    21  N   -0.404981
    22  H   -0.301952
    23  H   -0.017516
    24  H    0.012086
    25  H   -0.017279
    26  H    0.007724
    27  H   -0.627370
    28  H   -0.649953
    29  C    1.427719
    30  C    1.407304
    31  H   -0.257827
    32  H   -0.140220
    33  H    0.049232
    34  H    0.001206
    35  H   -0.055003
    36  H   -0.258597
    37  H   -0.138251
    38  H   -0.004697
    39  H   -0.019914
    40  H   -0.036295
    41  C    1.413268
    42  H   -0.052050
    43  H    0.048796
    44  H    0.002990
    45  C    1.441740
    46  H   -0.031613
    47  H   -0.000901
    48  H   -0.021591
 Sum of Mulliken charges =   0.00000

 Dipole moment (field-independent basis, Debye):
    X=              0.4739    Y=             -1.9861    Z=             -2.5305  Tot=              3.2516
 Quadrupole moment (field-independent basis, Debye-Ang):
   XX=           -133.0310   YY=           -157.4449   ZZ=           -140.1742
   XY=              4.0697   XZ=              3.6670   YZ=              2.1968

 Normal termination of Gaussian 16 at Mon Nov  8 16:36:41 2021.
