 Gaussian 16, Revision C.01,
 Gaussian 16:  ES64L-G16RevC.01  3-Jul-2019

 ----------------------------------------------------------------------
 #P PBE1PBE/Def2TZVP SP SCF=(YQC,MaxCycle=900) int=(Grid=Superfinegrid)
  EmpiricalDispersion=GD3 SCRF=(PCM,Solvent=Chloroform)
 ----------------------------------------------------------------------

 -------------------------
 _1_alde1_2_ami1_1_opt_cfm
 -------------------------
 Symbolic Z-matrix:
 Charge =  0 Multiplicity = 1

                         Standard orientation:
 ---------------------------------------------------------------------
 Center     Atomic      Atomic             Coordinates (Angstroms)
 Number     Number       Type             X           Y           Z
 ---------------------------------------------------------------------
      1          6           0       -0.039197   -1.334061    2.017131
      2          6           0       -0.094621   -2.130189    3.247446
      3          6           0       -1.210566   -0.809200    1.473536
      4          6           0       -1.166450   -0.054933    0.312542
      5          1           0       -2.151934   -0.983609    1.972420
      6          6           0        0.054216    0.160173   -0.313171
      7          6           0        1.228874   -0.362678    0.214085
      8          1           0        0.094110    0.742448   -1.222119
      9          6           0        1.180641   -1.101881    1.384150
     10          6           0        2.548083   -0.083886   -0.456904
     11          1           0        2.097515   -1.503480    1.789793
     12          6           0       -2.442120    0.477499   -0.280952
     13          8           0       -1.094426   -2.404122    3.861782
     14          6           0       -4.724882    0.838135    0.120125
     15          6           0       -4.516930   -0.095125   -1.111782
     16          7           0       -3.412249    0.829183    0.751200
     17          1           0       -5.444331    0.402213    0.825233
     18          6           0       -5.241635    2.237290   -0.275664
     19          7           0       -3.124738   -0.535812   -1.064738
     20          1           0       -4.612861    0.509837   -2.023477
     21          6           0       -5.513153   -1.259054   -1.201242
     22          1           0       -4.529491    2.681262   -0.982241
     23          6           0       -5.355211    3.148805    0.947223
     24          6           0       -6.610545    2.140528   -0.946794
     25          1           0       -6.515028   -0.826345   -1.106934
     26          6           0       -5.331986   -2.290670   -0.086446
     27          6           0       -5.401210   -1.936640   -2.565897
     28          1           0       -7.326840    1.679578   -0.269562
     29          1           0       -6.569801    1.551421   -1.858789
     30          1           0       -6.972818    3.134127   -1.201924
     31          1           0       -6.008224    2.698331    1.692039
     32          1           0       -5.774429    4.110224    0.658280
     33          1           0       -4.388111    3.335255    1.409233
     34          1           0       -4.384314   -2.286560   -2.724453
     35          1           0       -5.650736   -1.240329   -3.363241
     36          1           0       -6.078992   -2.785247   -2.625305
     37          1           0       -5.206140   -1.810787    0.881044
     38          1           0       -4.467490   -2.924096   -0.275632
     39          1           0       -6.206937   -2.934966   -0.036625
     40          6           0        4.868404   -0.450043   -0.245626
     41          6           0        4.541872    1.071175   -0.295845
     42          7           0        3.559735   -1.081506   -0.113059
     43          1           0        5.429700   -0.669671    0.674553
     44          6           0        5.713711   -0.943622   -1.438552
     45          7           0        3.113416    1.173593   -0.000708
     46          1           0        4.684308    1.440029   -1.319180
     47          6           0        5.367517    1.939114    0.657411
     48          1           0        6.554582   -0.250440   -1.544131
     49          6           0        4.943210   -0.957836   -2.758367
     50          6           0        6.276412   -2.334848   -1.146826
     51          1           0        5.188070    1.583706    1.679912
     52          6           0        4.914111    3.395034    0.555253
     53          6           0        6.863100    1.845269    0.364591
     54          1           0        5.473638   -3.053590   -0.993670
     55          1           0        6.892639   -2.319402   -0.250492
     56          1           0        6.888361   -2.678610   -1.977796
     57          1           0        4.127522   -1.678582   -2.732344
     58          1           0        5.610153   -1.240108   -3.570066
     59          1           0        4.529547    0.021814   -2.985881
     60          1           0        7.411452    2.508051    1.030328
     61          1           0        7.067680    2.147441   -0.660460
     62          1           0        7.235095    0.834774    0.510653
     63          1           0        5.427688    4.004529    1.295317
     64          1           0        3.842790    3.475868    0.714086
     65          1           0        5.142216    3.787933   -0.432934
     66          1           0        3.473017   -1.927934   -0.659998
     67          1           0        2.390116    0.004116   -1.548541
     68          1           0        2.988700    1.228693    1.007932
     69          1           0       -3.185842    1.690275    1.229493
     70          1           0       -3.067468   -1.413324   -0.556439
     71          1           0       -2.213676    1.324348   -0.958655
     72          1           0        0.898957   -2.484555    3.590912
 ---------------------------------------------------------------------

 SCF Done:  E(RPBE1PBE) =  -1271.19004841     a.u. after    6 cycles
 SCF Done:  E(RPBE1PBE) =  -1271.19006262     A.U. after    8 cycles

 The electronic state is 1-A.
 Alpha  occ. eigenvalues --  -19.20522 -14.37239 -14.36919 -14.36684 -14.36459
 Alpha  occ. eigenvalues --  -10.30992 -10.27929 -10.27787 -10.24681 -10.24505
 Alpha  occ. eigenvalues --  -10.24464 -10.24276 -10.24061 -10.24033 -10.23909
 Alpha  occ. eigenvalues --  -10.23818 -10.23657 -10.23317 -10.22806 -10.22607
 Alpha  occ. eigenvalues --  -10.22553 -10.22375 -10.20749 -10.20693 -10.20625
 Alpha  occ. eigenvalues --  -10.20605 -10.20593 -10.20520 -10.20203 -10.20176
 Alpha  occ. eigenvalues --   -1.08262  -0.99604  -0.99456  -0.90252  -0.88644
 Alpha  occ. eigenvalues --   -0.88391  -0.84457  -0.83788  -0.81021  -0.80952
 Alpha  occ. eigenvalues --   -0.80292  -0.79567  -0.73771  -0.72953  -0.70795
 Alpha  occ. eigenvalues --   -0.70625  -0.70592  -0.70466  -0.68068  -0.66804
 Alpha  occ. eigenvalues --   -0.64975  -0.64293  -0.64104  -0.60546  -0.60040
 Alpha  occ. eigenvalues --   -0.58447  -0.57930  -0.57653  -0.57289  -0.54259
 Alpha  occ. eigenvalues --   -0.53306  -0.51973  -0.50731  -0.50333  -0.49562
 Alpha  occ. eigenvalues --   -0.48442  -0.48027  -0.47117  -0.46572  -0.46349
 Alpha  occ. eigenvalues --   -0.46136  -0.45823  -0.44917  -0.44605  -0.44112
 Alpha  occ. eigenvalues --   -0.43654  -0.43565  -0.43207  -0.42822  -0.42306
 Alpha  occ. eigenvalues --   -0.42180  -0.41542  -0.40607  -0.40204  -0.39956
 Alpha  occ. eigenvalues --   -0.39912  -0.39668  -0.39546  -0.39131  -0.38836
 Alpha  occ. eigenvalues --   -0.38082  -0.37955  -0.37707  -0.37369  -0.36332
 Alpha  occ. eigenvalues --   -0.36236  -0.35573  -0.35018  -0.34832  -0.34605
 Alpha  occ. eigenvalues --   -0.34158  -0.34090  -0.33871  -0.33724  -0.33209
 Alpha  occ. eigenvalues --   -0.31974  -0.31729  -0.27963  -0.27775  -0.27454
 Alpha  occ. eigenvalues --   -0.25580  -0.25375  -0.23884  -0.23723
 Alpha virt. eigenvalues --   -0.06708  -0.01868   0.03235   0.03850   0.04208
 Alpha virt. eigenvalues --    0.04971   0.05090   0.05589   0.06012   0.06289
 Alpha virt. eigenvalues --    0.06569   0.07966   0.08451   0.08565   0.08773

 Mulliken charges:
               1
     1  C    0.239918
     2  C    0.055135
     3  C   -0.313749
     4  C    0.332683
     5  H    0.134969
     6  C   -0.446346
     7  C    0.287743
     8  H    0.119709
     9  C   -0.273693
    10  C   -0.082659
    11  H    0.127656
    12  C   -0.066700
    13  O   -0.326174
    14  C    0.065848
    15  C   -0.017319
    16  N   -0.297847
    17  H    0.075315
    18  C   -0.090002
    19  N   -0.282401
    20  H    0.077838
    21  C   -0.054394
    22  H    0.084206
    23  C   -0.380407
    24  C   -0.397383
    25  H    0.095440
    26  C   -0.437450
    27  C   -0.378437
    28  H    0.121876
    29  H    0.131801
    30  H    0.130773
    31  H    0.123498
    32  H    0.128631
    33  H    0.115171
    34  H    0.125823
    35  H    0.121397
    36  H    0.127383
    37  H    0.143240
    38  H    0.129213
    39  H    0.132673
    40  C    0.143018
    41  C   -0.089406
    42  N   -0.316463
    43  H    0.069424
    44  C   -0.138702
    45  N   -0.274537
    46  H    0.062730
    47  C   -0.042309
    48  H    0.089117
    49  C   -0.387538
    50  C   -0.360321
    51  H    0.084255
    52  C   -0.367810
    53  C   -0.407241
    54  H    0.114089
    55  H    0.125802
    56  H    0.128041
    57  H    0.111226
    58  H    0.135867
    59  H    0.129699
    60  H    0.133215
    61  H    0.124027
    62  H    0.133515
    63  H    0.126134
    64  H    0.129494
    65  H    0.114226
    66  H    0.201675
    67  H    0.090378
    68  H    0.205295
    69  H    0.188523
    70  H    0.194430
    71  H    0.078710
    72  H    0.088460
 Sum of Mulliken charges =  -0.00000

 Dipole moment (field-independent basis, Debye):
    X=              2.5211    Y=              2.1707    Z=             -3.1977  Tot=              4.6144
 Quadrupole moment (field-independent basis, Debye-Ang):
   XX=           -159.2653   YY=           -188.8310   ZZ=           -201.6570
   XY=             -9.3971   XZ=              5.9369   YZ=              9.7028

 Normal termination of Gaussian 16 at Mon Oct 18 16:09:37 2021.
