 Gaussian 16, Revision C.01,
 Gaussian 16:  ES64L-G16RevC.01  3-Jul-2019

 ----------------------------------------------------------------------
 #P MP2/aug-cc-pVDZ SP SCF=(YQC,MaxCycle=900) int=(Grid=Superfinegrid)
 SCRF=(PCM,Solvent=Dichloromethane)
 ----------------------------------------------------------------------

 -----------------------------
 _1_alde1_3_ami1_1_opt_dcm_mp2
 -----------------------------
 Symbolic Z-matrix:
 Charge =  0 Multiplicity = 1

                         Standard orientation:
 ---------------------------------------------------------------------
 Center     Atomic      Atomic             Coordinates (Angstroms)
 Number     Number       Type             X           Y           Z
 ---------------------------------------------------------------------
      1          6           0       -0.129395    0.872371   -0.244746
      2          6           0        0.270556    2.322529   -0.288466
      3          6           0       -1.458021    0.486046   -0.310302
      4          6           0       -1.804689   -0.856118   -0.237965
      5          1           0       -2.238782    1.222584   -0.428624
      6          6           0       -0.812413   -1.813966   -0.093647
      7          6           0        0.520271   -1.437723   -0.023674
      8          1           0       -1.080618   -2.859069   -0.035437
      9          6           0        0.854240   -0.094475   -0.100327
     10          6           0        1.619528   -2.457819    0.102013
     11          1           0        1.890723    0.201797   -0.047145
     12          6           0       -3.256861   -1.251255   -0.267799
     13          6           0        1.514446    3.944361    0.785265
     14          6           0        2.176455    3.685381   -0.599278
     15          7           0        0.634208    2.808439    1.029779
     16          1           0        0.869034    4.829086    0.700223
     17          6           0        2.512104    4.207873    1.920741
     18          7           0        1.479739    2.508285   -1.097745
     19          1           0        3.232357    3.411899   -0.459146
     20          6           0        2.153535    4.923602   -1.519921
     21          1           0        3.204487    4.976437    1.556192
     22          6           0        3.326055    2.973830    2.312495
     23          6           0        1.775374    4.753116    3.142954
     24          1           0        2.511475    5.768025   -0.918196
     25          6           0        0.758216    5.262547   -2.042343
     26          6           0        3.115790    4.729560   -2.691740
     27          1           0        1.009763    4.047892    3.456371
     28          1           0        1.294059    5.700594    2.911696
     29          1           0        2.468094    4.910871    3.966595
     30          1           0        4.165240    3.271222    2.937661
     31          1           0        3.718734    2.461445    1.437447
     32          1           0        2.719357    2.273506    2.882759
     33          1           0        4.129925    4.568182   -2.332832
     34          1           0        3.114661    5.607204   -3.334613
     35          1           0        2.825925    3.867277   -3.289060
     36          1           0        0.793191    6.185144   -2.617903
     37          1           0        0.051900    5.398299   -1.226754
     38          1           0        0.383008    4.475828   -2.694705
     39          6           0       -5.408700   -0.360940   -0.659083
     40          6           0       -5.296758   -0.973497    0.767237
     41          7           0       -4.036043   -0.373411   -1.145306
     42          1           0       -5.725736    0.689568   -0.586492
     43          6           0       -6.445414   -1.081403   -1.546267
     44          7           0       -3.870016   -1.097536    1.039156
     45          1           0       -5.698371   -1.995268    0.736677
     46          6           0       -6.068975   -0.206185    1.848138
     47          1           0       -7.357889   -1.178825   -0.945559
     48          6           0       -6.003776   -2.478301   -1.980222
     49          6           0       -6.770211   -0.232669   -2.775555
     50          1           0       -7.082986   -0.053869    1.458812
     51          6           0       -5.466785    1.161945    2.170445
     52          6           0       -6.153773   -1.048076    3.120086
     53          1           0       -7.512599   -0.729970   -3.396120
     54          1           0       -5.877428   -0.067354   -3.375495
     55          1           0       -7.164252    0.736932   -2.478977
     56          1           0       -6.803799   -2.962336   -2.536381
     57          1           0       -5.761863   -3.101988   -1.122895
     58          1           0       -5.129530   -2.429110   -2.627097
     59          1           0       -5.152891   -1.298341    3.462605
     60          1           0       -6.693847   -1.973511    2.934362
     61          1           0       -6.668938   -0.500308    3.905952
     62          1           0       -4.555610    1.056440    2.755497
     63          1           0       -6.173218    1.744150    2.758118
     64          1           0       -5.237350    1.719247    1.265303
     65          6           0        3.912250   -2.616971    0.652413
     66          6           0        3.636659   -3.144515   -0.785560
     67          7           0        2.651408   -2.000279    1.038774
     68          1           0        4.672676   -1.823331    0.616090
     69          6           0        4.449297   -3.707704    1.602882
     70          7           0        2.321015   -2.637426   -1.155459
     71          1           0        3.550684   -4.238563   -0.742273
     72          6           0        4.735845   -2.807399   -1.801745
     73          1           0        5.259876   -4.217711    1.068260
     74          6           0        3.396903   -4.747101    1.985770
     75          6           0        5.034328   -3.069809    2.862881
     76          1           0        5.686713   -3.106179   -1.344020
     77          6           0        4.812347   -1.318292   -2.141877
     78          6           0        4.529914   -3.621432   -3.078013
     79          1           0        5.842147   -2.387389    2.607900
     80          1           0        5.427961   -3.834575    3.529078
     81          1           0        4.271962   -2.508068    3.399230
     82          1           0        2.959155   -5.210868    1.105016
     83          1           0        2.596771   -4.296634    2.570710
     84          1           0        3.852457   -5.529066    2.589701
     85          1           0        3.545031   -3.416977   -3.490078
     86          1           0        4.599899   -4.686739   -2.870999
     87          1           0        5.282941   -3.364523   -3.819667
     88          1           0        5.742149   -1.109334   -2.666728
     89          1           0        4.782015   -0.703100   -1.245800
     90          1           0        3.990964   -1.026011   -2.792757
     91          1           0        2.401719   -2.172527    2.003431
     92          1           0        1.191809   -3.436398    0.390020
     93          1           0        2.419583   -1.725189   -1.590719
     94          1           0        1.279643    2.552519   -2.087949
     95          1           0       -0.577245    2.934606   -0.649266
     96          1           0        1.153067    2.073321    1.500773
     97          1           0       -3.959494   -0.632775   -2.119622
     98          1           0       -3.525728   -0.232761    1.445841
     99          1           0       -3.345188   -2.316975   -0.552148
 ---------------------------------------------------------------------

 SCF Done:  E(RHF) =  -1611.45474602     a.u. after    6 cycles
 SCF Done:  E(RHF) =  -1611.45478056     A.U. after   10 cycles
 E2 =    -0.5918458170D+01 EUMP2 =    -0.16173732387264D+04

 The electronic state is 1-A.
 Alpha  occ. eigenvalues --  -15.54771 -15.54756 -15.54740 -15.54070 -15.54035
 Alpha  occ. eigenvalues --  -15.54030 -11.28495 -11.28462 -11.28424 -11.24821
 Alpha  occ. eigenvalues --  -11.24819 -11.24809 -11.24578 -11.24550 -11.24550
 Alpha  occ. eigenvalues --  -11.23512 -11.23464 -11.23407 -11.23006 -11.22925
 Alpha  occ. eigenvalues --  -11.22912 -11.22912 -11.22715 -11.22698 -11.22691
 Alpha  occ. eigenvalues --  -11.22610 -11.22280 -11.21468 -11.21454 -11.21451
 Alpha  occ. eigenvalues --  -11.21392 -11.21385 -11.21375 -11.21371 -11.21363
 Alpha  occ. eigenvalues --  -11.21352 -11.21092 -11.21079 -11.21067  -1.27898
 Alpha  occ. eigenvalues --   -1.27737  -1.27673  -1.16122  -1.14960  -1.14948
 Alpha  occ. eigenvalues --   -1.14938  -1.09656  -1.09596  -1.08467  -1.05800
 Alpha  occ. eigenvalues --   -1.05791  -1.05787  -1.03504  -1.03254  -0.96853
 Alpha  occ. eigenvalues --   -0.95849  -0.95483  -0.93243  -0.93240  -0.93236
 Alpha  occ. eigenvalues --   -0.92957  -0.92953  -0.92951  -0.87814  -0.86667
 Alpha  occ. eigenvalues --   -0.85425  -0.84764  -0.84739  -0.84704  -0.79365
 Alpha  occ. eigenvalues --   -0.78034  -0.77352  -0.77002  -0.76925  -0.75412
 Alpha  occ. eigenvalues --   -0.75028  -0.75017  -0.70214  -0.69937  -0.68041
 Alpha  occ. eigenvalues --   -0.67887  -0.66030  -0.65524  -0.65455  -0.63964
 Alpha  occ. eigenvalues --   -0.62819  -0.62785  -0.62341  -0.61384  -0.61034
 Alpha  occ. eigenvalues --   -0.60413  -0.60379  -0.60368  -0.60035  -0.59236
 Alpha  occ. eigenvalues --   -0.59011  -0.58767  -0.58062  -0.57573  -0.57489
 Alpha  occ. eigenvalues --   -0.57245  -0.57190  -0.56630  -0.55103  -0.55076
 Alpha  occ. eigenvalues --   -0.54940  -0.54779  -0.54495  -0.54363  -0.53603
 Alpha  occ. eigenvalues --   -0.53542  -0.53492  -0.53307  -0.53250  -0.53079
 Alpha  occ. eigenvalues --   -0.51729  -0.51712  -0.51630  -0.51302  -0.51140
 Alpha  occ. eigenvalues --   -0.50922  -0.49777  -0.49187  -0.48806  -0.48568
 Alpha  occ. eigenvalues --   -0.48281  -0.48172  -0.47272  -0.47202  -0.47169
 Alpha  occ. eigenvalues --   -0.46875  -0.46550  -0.46539  -0.46413  -0.46345
 Alpha  occ. eigenvalues --   -0.45969  -0.45852  -0.45247  -0.45101  -0.43704
 Alpha  occ. eigenvalues --   -0.43611  -0.43548  -0.38168  -0.38102  -0.38036
 Alpha  occ. eigenvalues --   -0.36512  -0.36215  -0.35958  -0.32775  -0.32029
 Alpha virt. eigenvalues --    0.03181   0.03465   0.03584   0.03722   0.04124
 Alpha virt. eigenvalues --    0.04176   0.04267   0.04529   0.04590   0.05089
 Alpha virt. eigenvalues --    0.05307   0.05340   0.05557   0.05719   0.05800

 Mulliken charges:
               1
     1  C    1.687410
     2  C    0.585156
     3  C   -0.059502
     4  C    1.480854
     5  H   -0.960137
     6  C    0.433341
     7  C    1.296867
     8  H   -0.876669
     9  C   -0.437762
    10  C    0.544363
    11  H   -1.596850
    12  C    0.411576
    13  C    0.580708
    14  C    0.759415
    15  N   -0.869091
    16  H   -0.678237
    17  C   -0.747183
    18  N   -0.741137
    19  H   -0.790797
    20  C   -0.826773
    21  H   -0.324121
    22  C    1.080281
    23  C    1.043521
    24  H   -0.335963
    25  C    1.183735
    26  C    1.024727
    27  H   -0.021386
    28  H   -0.073742
    29  H   -0.078234
    30  H   -0.198223
    31  H   -0.113611
    32  H   -0.008360
    33  H   -0.061047
    34  H   -0.103245
    35  H   -0.043262
    36  H   -0.180747
    37  H   -0.020932
    38  H   -0.027152
    39  C    0.797252
    40  C    0.426323
    41  N   -0.724175
    42  H   -0.746534
    43  C   -0.932271
    44  N   -0.699081
    45  H   -0.676926
    46  C   -0.681192
    47  H   -0.333200
    48  C    1.127212
    49  C    0.973308
    50  H   -0.307809
    51  C    1.078618
    52  C    1.028334
    53  H   -0.092613
    54  H   -0.036623
    55  H   -0.059977
    56  H   -0.181317
    57  H   -0.035941
    58  H   -0.021189
    59  H   -0.026438
    60  H   -0.077617
    61  H   -0.078627
    62  H    0.011451
    63  H   -0.186608
    64  H   -0.096540
    65  C    0.622025
    66  C    0.538317
    67  N   -0.792415
    68  H   -0.781372
    69  C   -0.781534
    70  N   -0.857800
    71  H   -0.678711
    72  C   -0.745039
    73  H   -0.332201
    74  C    1.162655
    75  C    1.009295
    76  H   -0.328416
    77  C    1.088794
    78  C    1.040048
    79  H   -0.059976
    80  H   -0.107483
    81  H   -0.031971
    82  H   -0.025321
    83  H   -0.039661
    84  H   -0.180948
    85  H   -0.023902
    86  H   -0.070810
    87  H   -0.077255
    88  H   -0.198111
    89  H   -0.118401
    90  H   -0.001302
    91  H    0.059004
    92  H   -0.532141
    93  H    0.315097
    94  H    0.053805
    95  H   -0.620818
    96  H    0.304891
    97  H    0.056486
    98  H    0.271763
    99  H   -0.522200
 Sum of Mulliken charges =   0.00000

 Dipole moment (field-independent basis, Debye):
    X=              0.8199    Y=              0.8446    Z=             -0.8109  Tot=              1.4294
 Quadrupole moment (field-independent basis, Debye-Ang):
   XX=           -219.4274   YY=           -238.3720   ZZ=           -251.0792
   XY=              0.7413   XZ=              7.2209   YZ=             -6.0557

 Normal termination of Gaussian 16 at Tue Oct 26 14:22:32 2021.
