 Gaussian 16, Revision C.01,
 Gaussian 16:  ES64L-G16RevC.01  3-Jul-2019

 ----------------------------------------------------------------------
 #P PBE1PBE/Def2TZVP SP SCF=(YQC,MaxCycle=900) int=(Grid=Superfinegrid)
  EmpiricalDispersion=GD3 SCRF=(PCM,Solvent=Dichloromethane)
 ----------------------------------------------------------------------

 -------------------------
 _1_alde1_3_ami2_1_opt_dcm
 -------------------------
 Symbolic Z-matrix:
 Charge =  0 Multiplicity = 1

                         Standard orientation:
 ---------------------------------------------------------------------
 Center     Atomic      Atomic             Coordinates (Angstroms)
 Number     Number       Type             X           Y           Z
 ---------------------------------------------------------------------
      1          6           0       -0.127528    0.891032   -0.056696
      2          6           0        0.282226    2.339058   -0.009519
      3          6           0       -1.460848    0.515509   -0.072365
      4          6           0       -1.812099   -0.827342   -0.080540
      5          1           0       -2.241211    1.261254   -0.089712
      6          6           0       -0.820785   -1.797217   -0.068626
      7          6           0        0.516172   -1.431208   -0.050336
      8          1           0       -1.093237   -2.842698   -0.073838
      9          6           0        0.854570   -0.087157   -0.044485
     10          6           0        1.615570   -2.459523   -0.074356
     11          1           0        1.894240    0.200866   -0.031017
     12          6           0       -3.266134   -1.216750   -0.052972
     13          6           0        1.529412    3.878159    1.139767
     14          6           0        2.300026    3.601749   -0.179097
     15          7           0        0.653327    2.736393    1.339438
     16          7           0        1.479335    2.574537   -0.825221
     17          6           0       -5.429055   -0.233142   -0.163418
     18          6           0       -5.226628   -1.088457    1.117714
     19          7           0       -4.099780   -0.255742   -0.777921
     20          7           0       -3.790143   -1.210874    1.303971
     21          6           0        3.986908   -2.510757    0.184182
     22          6           0        3.517479   -3.123004   -1.162990
     23          7           0        2.732315   -2.053962    0.787190
     24          7           0        2.187645   -2.589988   -1.404858
     25          1           0        2.614868   -2.363828    1.742179
     26          1           0        1.211959   -3.449555    0.208898
     27          1           0        2.256738   -1.662097   -1.814485
     28          1           0       -0.563561    2.980198   -0.320515
     29          1           0        1.172611    1.973048    1.765181
     30          1           0       -4.123509   -0.432766   -1.773115
     31          1           0       -3.431359   -0.387026    1.779415
     32          1           0       -3.383111   -2.246794   -0.441637
     33          1           0       -5.629615   -2.094405    0.960927
     34          1           0       -5.701040   -0.655365    1.996245
     35          1           0        3.429654   -4.210307   -1.066522
     36          1           0        4.188090   -2.897913   -1.990102
     37          6           0        3.683281    3.005778    0.108515
     38          1           0        3.588106    2.129673    0.745452
     39          1           0        4.319389    3.736183    0.602949
     40          1           0        4.155619    2.700585   -0.822114
     41          1           0        1.254223    2.793166   -1.786223
     42          6           0        2.436735    4.865008   -1.028032
     43          6           0       -6.507467   -0.828424   -1.069681
     44          1           0       -7.458412   -0.875485   -0.543815
     45          1           0       -6.232350   -1.836064   -1.377835
     46          1           0       -6.634454   -0.214145   -1.959268
     47          6           0       -5.777447    1.217083    0.188887
     48          1           0       -5.029816    1.626712    0.863694
     49          1           0       -6.753363    1.270418    0.665466
     50          1           0       -5.792057    1.824597   -0.712703
     51          6           0        4.714549   -3.539909    1.048280
     52          1           0        4.060867   -4.382245    1.270134
     53          1           0        5.032332   -3.088446    1.986338
     54          1           0        5.594159   -3.913254    0.528867
     55          6           0        4.883464   -1.289149   -0.051010
     56          1           0        5.096882   -0.798949    0.895705
     57          1           0        4.380393   -0.575162   -0.698538
     58          1           0        5.821969   -1.586681   -0.512678
     59          1           0        2.981979    5.629887   -0.479618
     60          1           0        1.455063    5.259103   -1.286734
     61          1           0        2.978069    4.645978   -1.946567
     62          1           0        2.186660    4.024276    1.994835
     63          1           0        0.899927    4.766688    1.023214
 ---------------------------------------------------------------------

 SCF Done:  E(RPBE1PBE) =  -1149.52079138     a.u. after    6 cycles
 SCF Done:  E(RPBE1PBE) =  -1149.52081518     A.U. after    9 cycles

 The electronic state is 1-A.
 Alpha  occ. eigenvalues --  -14.37171 -14.37171 -14.37133 -14.35988 -14.35931
 Alpha  occ. eigenvalues --  -14.35930 -10.27396 -10.27382 -10.27349 -10.25352
 Alpha  occ. eigenvalues --  -10.25340 -10.25336 -10.23763 -10.23760 -10.23757
 Alpha  occ. eigenvalues --  -10.22790 -10.22711 -10.22645 -10.22091 -10.21736
 Alpha  occ. eigenvalues --  -10.21440 -10.20603 -10.20591 -10.20556 -10.19898
 Alpha  occ. eigenvalues --  -10.19878 -10.19872  -0.99171  -0.99060  -0.99002
 Alpha  occ. eigenvalues --   -0.88969  -0.87921  -0.87917  -0.87855  -0.82024
 Alpha  occ. eigenvalues --   -0.81927  -0.79922  -0.77043  -0.76587  -0.70806
 Alpha  occ. eigenvalues --   -0.70753  -0.70717  -0.69905  -0.69489  -0.69420
 Alpha  occ. eigenvalues --   -0.65657  -0.64865  -0.64054  -0.59999  -0.58817
 Alpha  occ. eigenvalues --   -0.58040  -0.57995  -0.57968  -0.54441  -0.53106
 Alpha  occ. eigenvalues --   -0.51586  -0.50864  -0.50218  -0.50128  -0.49473
 Alpha  occ. eigenvalues --   -0.47244  -0.45787  -0.45596  -0.45378  -0.45245
 Alpha  occ. eigenvalues --   -0.44899  -0.44708  -0.43775  -0.43472  -0.42532
 Alpha  occ. eigenvalues --   -0.42133  -0.41947  -0.41847  -0.40794  -0.40583
 Alpha  occ. eigenvalues --   -0.40323  -0.40102  -0.39954  -0.39652  -0.37648
 Alpha  occ. eigenvalues --   -0.37444  -0.37354  -0.37225  -0.37077  -0.37012
 Alpha  occ. eigenvalues --   -0.36864  -0.36211  -0.35725  -0.35476  -0.34277
 Alpha  occ. eigenvalues --   -0.34189  -0.34014  -0.33761  -0.33400  -0.26857
 Alpha  occ. eigenvalues --   -0.26587  -0.25595  -0.25398  -0.25211  -0.23487
 Alpha  occ. eigenvalues --   -0.23286  -0.22970
 Alpha virt. eigenvalues --   -0.01022  -0.00711   0.03526   0.04194   0.04758
 Alpha virt. eigenvalues --    0.06150   0.06224   0.06481   0.07148   0.07681
 Alpha virt. eigenvalues --    0.07987   0.08660   0.09095   0.09466   0.09918

 Mulliken charges:
               1
     1  C    0.296594
     2  C   -0.138882
     3  C   -0.373066
     4  C    0.315037
     5  H    0.121102
     6  C   -0.457818
     7  C    0.289742
     8  H    0.112799
     9  C   -0.288374
    10  C   -0.121354
    11  H    0.164049
    12  C   -0.101918
    13  C   -0.126433
    14  C    0.133796
    15  N   -0.296194
    16  N   -0.302079
    17  C    0.158563
    18  C   -0.146204
    19  N   -0.305103
    20  N   -0.299387
    21  C    0.134435
    22  C   -0.127730
    23  N   -0.301627
    24  N   -0.296350
    25  H    0.208906
    26  H    0.084089
    27  H    0.212322
    28  H    0.084784
    29  H    0.212207
    30  H    0.208530
    31  H    0.211616
    32  H    0.083104
    33  H    0.092559
    34  H    0.137495
    35  H    0.089687
    36  H    0.136915
    37  C   -0.400971
    38  H    0.125001
    39  H    0.121919
    40  H    0.115519
    41  H    0.208809
    42  C   -0.433812
    43  C   -0.440273
    44  H    0.128948
    45  H    0.132712
    46  H    0.131242
    47  C   -0.393886
    48  H    0.122758
    49  H    0.120478
    50  H    0.115933
    51  C   -0.434340
    52  H    0.131985
    53  H    0.132144
    54  H    0.128712
    55  C   -0.399773
    56  H    0.115648
    57  H    0.124690
    58  H    0.121834
    59  H    0.128806
    60  H    0.131879
    61  H    0.132057
    62  H    0.136816
    63  H    0.089356
 Sum of Mulliken charges =   0.00000

 Dipole moment (field-independent basis, Debye):
    X=              0.7795    Y=              0.8066    Z=             -0.8649  Tot=              1.4165
 Quadrupole moment (field-independent basis, Debye-Ang):
   XX=           -144.8621   YY=           -158.9197   ZZ=           -166.0824
   XY=             -0.1878   XZ=              5.6904   YZ=             -5.2317

 Normal termination of Gaussian 16 at Mon Oct 18 15:37:23 2021.
