 Gaussian 16, Revision C.01,
 Gaussian 16:  ES64L-G16RevC.01  3-Jul-2019

 ----------------------------------------------------------------------
 #P MP2/aug-cc-pVDZ SP SCF=(YQC,MaxCycle=900) int=(Grid=Superfinegrid)
 SCRF=(PCM,Solvent=Chloroform)
 ----------------------------------------------------------------------

 -----------------------------
 _1_alde1_3_ami1_2_opt_cfm_mp2
 -----------------------------
 Symbolic Z-matrix:
 Charge =  0 Multiplicity = 1

                         Standard orientation:
 ---------------------------------------------------------------------
 Center     Atomic      Atomic             Coordinates (Angstroms)
 Number     Number       Type             X           Y           Z
 ---------------------------------------------------------------------
      1          6           0        0.109299    1.555408   -1.350686
      2          6           0       -0.011570    2.994275   -1.658257
      3          6           0        1.357583    1.014216   -1.075232
      4          6           0        1.488846   -0.332407   -0.731466
      5          1           0        2.246025    1.626586   -1.101595
      6          6           0        0.355306   -1.135274   -0.670766
      7          6           0       -0.898839   -0.609912   -0.973843
      8          1           0        0.429424   -2.177090   -0.397565
      9          6           0       -1.015363    0.734023   -1.320518
     10          6           0       -2.097845   -1.431331   -0.912660
     11          1           0       -1.982119    1.149725   -1.571471
     12          6           0        2.800606   -0.892945   -0.438023
     13          6           0       -3.132273    3.719588   -0.592775
     14          6           0       -1.684337    3.544532   -0.073548
     15          7           0       -3.273402    2.944776   -1.825221
     16          1           0       -3.281859    4.795285   -0.783020
     17          6           0       -4.194329    3.264867    0.428588
     18          7           0       -0.778267    3.852788   -1.148272
     19          1           0       -1.569093    2.508413    0.275853
     20          6           0       -1.325614    4.476432    1.106727
     21          1           0       -3.952279    3.729389    1.388915
     22          6           0       -4.217305    1.748637    0.611179
     23          6           0       -5.583798    3.759760    0.020748
     24          1           0       -2.038980    4.289130    1.915307
     25          6           0       -1.376981    5.953085    0.724261
     26          6           0        0.069151    4.117100    1.620368
     27          1           0       -6.300477    3.550382    0.811705
     28          1           0       -5.929544    3.260316   -0.881876
     29          1           0       -5.576641    4.833522   -0.156488
     30          1           0       -5.010200    1.470198    1.301899
     31          1           0       -3.274888    1.386302    1.013276
     32          1           0       -4.398002    1.260563   -0.342286
     33          1           0        0.816595    4.331203    0.859983
     34          1           0        0.127756    3.059863    1.873169
     35          1           0        0.304883    4.696977    2.509906
     36          1           0       -2.398437    6.280350    0.549259
     37          1           0       -0.795559    6.117600   -0.178322
     38          1           0       -0.962378    6.558484    1.527149
     39          6           0        5.126637   -0.765226   -0.208469
     40          6           0        5.663296   -0.021579    1.038149
     41          7           0        3.847457   -0.193692   -0.504558
     42          1           0        5.033529   -1.833103    0.057922
     43          6           0        6.009224   -0.645314   -1.468679
     44          7           0        4.809621   -0.406687    2.158095
     45          1           0        5.592730    1.059252    0.821593
     46          6           0        7.130172   -0.345203    1.380699
     47          1           0        6.993740   -1.060329   -1.234587
     48          6           0        6.165058    0.803790   -1.920934
     49          6           0        5.404444   -1.483706   -2.595249
     50          1           0        7.743239   -0.086684    0.512371
     51          6           0        7.319289   -1.823044    1.711165
     52          6           0        7.613954    0.516949    2.549093
     53          1           0        6.054387   -1.467123   -3.467218
     54          1           0        4.432126   -1.088800   -2.881711
     55          1           0        5.278205   -2.518141   -2.281299
     56          1           0        6.707127    0.843580   -2.863489
     57          1           0        6.713598    1.387924   -1.187067
     58          1           0        5.185002    1.250996   -2.060411
     59          1           0        7.390094    1.567981    2.374942
     60          1           0        8.690593    0.413496    2.665368
     61          1           0        7.145520    0.206871    3.479807
     62          1           0        7.170946   -2.443190    0.831343
     63          1           0        6.600241   -2.119326    2.469509
     64          1           0        8.324988   -1.998003    2.086706
     65          6           0       -3.303237   -3.343854   -0.346343
     66          6           0       -3.696651   -3.422894    1.168185
     67          7           0       -2.085909   -2.603098   -0.447985
     68          1           0       -4.118417   -2.827452   -0.883244
     69          6           0       -3.140238   -4.726956   -1.010442
     70          7           0       -2.553687   -3.446231    2.062734
     71          1           0       -4.255086   -4.352633    1.330446
     72          6           0       -4.605730   -2.237229    1.557463
     73          1           0       -4.086137   -5.263434   -0.870377
     74          6           0       -2.006950   -5.552318   -0.407819
     75          6           0       -2.906479   -4.540615   -2.510105
     76          1           0       -4.123390   -1.314367    1.213134
     77          6           0       -4.765260   -2.163310    3.075599
     78          6           0       -5.992349   -2.343775    0.924858
     79          1           0       -1.968957   -4.015126   -2.679300
     80          1           0       -3.711735   -3.961483   -2.958475
     81          1           0       -2.859078   -5.505207   -3.010274
     82          1           0       -1.832274   -6.438937   -1.014277
     83          1           0       -2.252381   -5.881633    0.599054
     84          1           0       -1.093416   -4.963942   -0.383430
     85          1           0       -6.481078   -3.261102    1.246437
     86          1           0       -5.953759   -2.342264   -0.161497
     87          1           0       -6.605791   -1.501590    1.237639
     88          1           0       -5.255737   -3.061864    3.441640
     89          1           0       -5.370776   -1.301024    3.346029
     90          1           0       -3.798212   -2.083785    3.559899
     91          1           0       -1.985381   -2.620665    1.898171
     92          1           0       -1.968552   -4.247698    1.863587
     93          1           0       -2.621563    3.303315   -2.516483
     94          1           0       -4.208583    3.070016   -2.198166
     95          1           0        5.020896    0.164905    2.967975
     96          1           0        3.837379   -0.244141    1.917975
     97          1           0        0.676853    3.369125   -2.413913
     98          1           0        2.816300   -1.957783   -0.157027
     99          1           0       -3.018415   -0.953439   -1.284256
 ---------------------------------------------------------------------

 SCF Done:  E(RHF) =  -1611.41654653     a.u. after    7 cycles
 SCF Done:  E(RHF) =  -1611.41658613     A.U. after   15 cycles
 E2 =    -0.5922943170D+01 EUMP2 =    -0.16173395292997D+04

 The electronic state is 1-A.
 Alpha  occ. eigenvalues --  -15.56192 -15.55934 -15.55784 -15.54330 -15.53968
 Alpha  occ. eigenvalues --  -15.53250 -11.28632 -11.28593 -11.28559 -11.25353
 Alpha  occ. eigenvalues --  -11.25337 -11.25275 -11.25209 -11.25129 -11.25093
 Alpha  occ. eigenvalues --  -11.25035 -11.25013 -11.24975 -11.24946 -11.24919
 Alpha  occ. eigenvalues --  -11.24725 -11.22714 -11.22630 -11.22569 -11.22539
 Alpha  occ. eigenvalues --  -11.22303 -11.22212 -11.21567 -11.21275 -11.21171
 Alpha  occ. eigenvalues --  -11.21051 -11.21033 -11.20996 -11.20983 -11.20912
 Alpha  occ. eigenvalues --  -11.20731 -11.20563 -11.20487 -11.20190  -1.25798
 Alpha  occ. eigenvalues --   -1.25483  -1.25370  -1.18942  -1.18461  -1.18158
 Alpha  occ. eigenvalues --   -1.16593  -1.08952  -1.08746  -1.07924  -1.06161
 Alpha  occ. eigenvalues --   -1.06106  -1.05841  -1.04568  -1.04551  -0.96896
 Alpha  occ. eigenvalues --   -0.96462  -0.95851  -0.93058  -0.92805  -0.92782
 Alpha  occ. eigenvalues --   -0.92552  -0.92504  -0.92129  -0.89077  -0.88889
 Alpha  occ. eigenvalues --   -0.87595  -0.85079  -0.84315  -0.82663  -0.79175
 Alpha  occ. eigenvalues --   -0.78609  -0.76621  -0.76300  -0.75385  -0.74423
 Alpha  occ. eigenvalues --   -0.73455  -0.72223  -0.69489  -0.68724  -0.68370
 Alpha  occ. eigenvalues --   -0.67796  -0.67060  -0.66800  -0.66087  -0.66022
 Alpha  occ. eigenvalues --   -0.63787  -0.63602  -0.63097  -0.62805  -0.61952
 Alpha  occ. eigenvalues --   -0.61224  -0.60510  -0.60019  -0.59811  -0.59254
 Alpha  occ. eigenvalues --   -0.59131  -0.58627  -0.58058  -0.57916  -0.57663
 Alpha  occ. eigenvalues --   -0.57317  -0.56966  -0.56789  -0.56750  -0.56242
 Alpha  occ. eigenvalues --   -0.54513  -0.54406  -0.54300  -0.53999  -0.53579
 Alpha  occ. eigenvalues --   -0.53426  -0.53244  -0.53123  -0.52662  -0.52620
 Alpha  occ. eigenvalues --   -0.52588  -0.52231  -0.52118  -0.51345  -0.51156
 Alpha  occ. eigenvalues --   -0.50476  -0.48812  -0.48580  -0.47954  -0.47818
 Alpha  occ. eigenvalues --   -0.47506  -0.47301  -0.47138  -0.47078  -0.46827
 Alpha  occ. eigenvalues --   -0.46793  -0.46563  -0.46264  -0.46138  -0.45849
 Alpha  occ. eigenvalues --   -0.45632  -0.45009  -0.44562  -0.43954  -0.42957
 Alpha  occ. eigenvalues --   -0.42229  -0.40660  -0.40402  -0.40025  -0.39296
 Alpha  occ. eigenvalues --   -0.38203  -0.37987  -0.36946  -0.33146  -0.32161
 Alpha virt. eigenvalues --    0.03030   0.03383   0.03476   0.03653   0.04026
 Alpha virt. eigenvalues --    0.04087   0.04391   0.04486   0.04659   0.05096
 Alpha virt. eigenvalues --    0.05187   0.05316   0.05628   0.05694   0.05851

 Mulliken charges:
               1
     1  C    0.605632
     2  C    0.343803
     3  C   -0.101371
     4  C    0.990194
     5  H   -0.948794
     6  C    0.735859
     7  C    0.476782
     8  H   -1.023276
     9  C    1.090741
    10  C    0.366857
    11  H   -0.757915
    12  C    0.157484
    13  C    0.832509
    14  C    0.675098
    15  N   -0.319150
    16  H   -0.378117
    17  C   -0.797657
    18  N   -0.524665
    19  H   -0.875957
    20  C   -1.107294
    21  H   -0.324171
    22  C    0.886277
    23  C    1.180176
    24  H   -0.271029
    25  C    1.226285
    26  C    1.035828
    27  H   -0.069619
    28  H   -0.077709
    29  H   -0.130199
    30  H   -0.316884
    31  H   -0.136190
    32  H    0.006341
    33  H    0.017573
    34  H   -0.052656
    35  H   -0.224357
    36  H   -0.080214
    37  H   -0.006075
    38  H   -0.147285
    39  C   -0.861793
    40  C    0.878586
    41  N   -0.005953
    42  H   -0.398888
    43  C   -1.220573
    44  N   -0.291542
    45  H   -0.316338
    46  C   -1.269015
    47  H   -0.324965
    48  C    1.236772
    49  C    1.334011
    50  H   -0.312428
    51  C    1.261453
    52  C    1.214178
    53  H   -0.145285
    54  H    0.075722
    55  H   -0.052611
    56  H   -0.126392
    57  H   -0.080268
    58  H   -0.149006
    59  H   -0.064577
    60  H   -0.085433
    61  H   -0.067856
    62  H   -0.114473
    63  H    0.051928
    64  H   -0.167251
    65  C   -0.371429
    66  C    1.032781
    67  N   -0.168854
    68  H   -0.595299
    69  C   -0.627591
    70  N   -0.374381
    71  H   -0.559271
    72  C   -2.101739
    73  H   -0.397040
    74  C    1.178021
    75  C    1.255199
    76  H   -0.380488
    77  C    1.589678
    78  C    1.677553
    79  H    0.029400
    80  H   -0.070943
    81  H   -0.160256
    82  H   -0.198383
    83  H   -0.061995
    84  H   -0.044583
    85  H   -0.070224
    86  H   -0.102573
    87  H   -0.132897
    88  H   -0.066127
    89  H   -0.066090
    90  H   -0.032908
    91  H    0.069751
    92  H   -0.038986
    93  H    0.007498
    94  H    0.015750
    95  H   -0.018746
    96  H   -0.014321
    97  H   -0.486891
    98  H   -0.706292
    99  H   -0.962186
 Sum of Mulliken charges =   0.00000

 Dipole moment (field-independent basis, Debye):
    X=             -1.4430    Y=              0.8809    Z=             -2.0124  Tot=              2.6283
 Quadrupole moment (field-independent basis, Debye-Ang):
   XX=           -238.7286   YY=           -256.0943   ZZ=           -258.5990
   XY=             -3.2751   XZ=              6.8738   YZ=              9.2359

 Normal termination of Gaussian 16 at Wed Nov 10 01:48:26 2021.
