 Gaussian 16, Revision C.01,
 Gaussian 16:  ES64L-G16RevC.01  3-Jul-2019

 ----------------------------------------------------------------------
 #P MP2/aug-cc-pVDZ SP SCF=(YQC,MaxCycle=900) int=(Grid=Superfinegrid)
 SCRF=(PCM,Solvent=Chloroform)
 ----------------------------------------------------------------------

 -----------------------------
 _1_alde1_2_ami3_1_opt_cfm_mp2
 -----------------------------
 Symbolic Z-matrix:
 Charge =  0 Multiplicity = 1

                         Standard orientation:
 ---------------------------------------------------------------------
 Center     Atomic      Atomic             Coordinates (Angstroms)
 Number     Number       Type             X           Y           Z
 ---------------------------------------------------------------------
      1          6           0        0.003438    2.081018   -0.102015
      2          6           0        0.045940    3.546434   -0.138313
      3          6           0       -1.100423    1.401081   -0.613485
      4          6           0       -1.139278    0.017448   -0.582902
      5          1           0       -1.932428    1.940080   -1.040572
      6          6           0       -0.064261   -0.683666   -0.047640
      7          6           0        1.042826   -0.016200    0.465393
      8          1           0       -0.089295   -1.763893   -0.030466
      9          6           0        1.071659    1.367197    0.441022
     10          6           0        2.203501   -0.821479    1.001228
     11          1           0        1.917414    1.899767    0.846927
     12          6           0       -2.338673   -0.747540   -1.093761
     13          8           0        0.955695    4.233588    0.251915
     14          6           0       -4.386909    0.126617   -0.489373
     15          6           0       -4.316141   -1.332948   -0.008611
     16          7           0       -3.396714    0.162371   -1.556750
     17          1           0       -4.008362    0.776849    0.312851
     18          6           0       -5.815623    0.510911   -0.812118
     19          7           0       -2.888371   -1.618912   -0.026040
     20          1           0       -4.777388   -1.976610   -0.773029
     21          6           0       -5.070494   -1.494556    1.295280
     22          1           0       -6.204989   -0.135563   -1.602696
     23          6           0       -6.638249    0.331948    0.468191
     24          1           0       -4.627951   -0.852783    2.061509
     25          6           0       -6.524668   -1.084786    1.039007
     26          1           0       -7.687299    0.553810    0.263790
     27          1           0       -6.286243    1.047613    1.214885
     28          1           0       -6.969772   -1.791268    0.334482
     29          1           0       -7.090979   -1.143049    1.970295
     30          6           0        4.300511    0.023374    0.533118
     31          6           0        4.216978   -1.413987   -0.009194
     32          7           0        3.254758    0.047186    1.545763
     33          1           0        3.986870    0.715094   -0.261948
     34          6           0        5.718853    0.352731    0.948660
     35          7           0        2.782861   -1.659379   -0.079102
     36          1           0        4.617444   -2.100600    0.752207
     37          6           0        5.037204   -1.546479   -1.275868
     38          1           0        6.046166   -0.334316    1.733378
     39          6           0        6.606366    0.199047   -0.290932
     40          1           0        4.655693   -0.861532   -2.037601
     41          6           0        6.485661   -1.190338   -0.924245
     42          1           0        6.316500    0.953715   -1.025618
     43          1           0        7.648274    0.381029   -0.020766
     44          1           0        6.871058   -1.936997   -0.225861
     45          1           0        7.101097   -1.229241   -1.824945
     46          1           0        3.613565   -0.336109    2.414494
     47          1           0        1.832008   -1.492903    1.788425
     48          1           0        2.425780   -1.344285   -0.977665
     49          1           0       -3.811180   -0.191166   -2.413541
     50          1           0       -2.476254   -1.359456    0.866580
     51          1           0       -2.015746   -1.390372   -1.925004
     52          1           0       -0.864897    4.003928   -0.576924
     53          1           0       -5.872868    1.544327   -1.157419
     54          1           0       -5.024484   -2.526830    1.645704
     55          1           0        5.783268    1.370348    1.336423
     56          1           0        4.982407   -2.562124   -1.670961
 ---------------------------------------------------------------------

 SCF Done:  E(RHF) =  -1105.49332517     a.u. after    6 cycles
 SCF Done:  E(RHF) =  -1105.49339195     A.U. after   12 cycles
 E2 =    -0.3868716720D+01 EUMP2 =    -0.11093621086733D+04

 The electronic state is 1-A.
 Alpha  occ. eigenvalues --  -20.56707 -15.55378 -15.55214 -15.55139 -15.55110
 Alpha  occ. eigenvalues --  -11.34152 -11.29423 -11.29264 -11.25021 -11.24919
 Alpha  occ. eigenvalues --  -11.24824 -11.24819 -11.24759 -11.24740 -11.24669
 Alpha  occ. eigenvalues --  -11.24601 -11.24574 -11.24159 -11.22494 -11.22444
 Alpha  occ. eigenvalues --  -11.22411 -11.22360 -11.22326 -11.22291 -11.22260
 Alpha  occ. eigenvalues --  -11.22212  -1.40360  -1.28165  -1.27939  -1.17398
 Alpha  occ. eigenvalues --   -1.15098  -1.14916  -1.11469  -1.10974  -1.05612
 Alpha  occ. eigenvalues --   -1.04964  -1.00095  -0.99935  -0.98398  -0.97699
 Alpha  occ. eigenvalues --   -0.89693  -0.88328  -0.86687  -0.82930  -0.82631
 Alpha  occ. eigenvalues --   -0.81983  -0.81810  -0.78771  -0.78244  -0.77391
 Alpha  occ. eigenvalues --   -0.76462  -0.70832  -0.69396  -0.67366  -0.66776
 Alpha  occ. eigenvalues --   -0.66252  -0.65528  -0.63912  -0.63467  -0.62862
 Alpha  occ. eigenvalues --   -0.62658  -0.62428  -0.60791  -0.60019  -0.59555
 Alpha  occ. eigenvalues --   -0.59135  -0.58983  -0.56121  -0.55580  -0.55325
 Alpha  occ. eigenvalues --   -0.54879  -0.54742  -0.54165  -0.53984  -0.52092
 Alpha  occ. eigenvalues --   -0.51632  -0.50453  -0.50158  -0.49172  -0.49101
 Alpha  occ. eigenvalues --   -0.48937  -0.48457  -0.47313  -0.46647  -0.46478
 Alpha  occ. eigenvalues --   -0.45250  -0.45066  -0.45000  -0.44833  -0.42836
 Alpha  occ. eigenvalues --   -0.38461  -0.37923  -0.37560  -0.37423  -0.34406
 Alpha  occ. eigenvalues --   -0.33252
 Alpha virt. eigenvalues --    0.03399   0.03697   0.03836   0.03930   0.04237
 Alpha virt. eigenvalues --    0.04492   0.04605   0.05369   0.05575   0.05781
 Alpha virt. eigenvalues --    0.06027   0.06135   0.06282   0.06621   0.06814

 Mulliken charges:
               1
     1  C   -0.036412
     2  C    1.414264
     3  C    1.021644
     4  C    0.187841
     5  H   -0.844460
     6  C    0.634356
     7  C    0.045890
     8  H   -1.131264
     9  C    0.522038
    10  C    0.559943
    11  H   -0.900159
    12  C    0.674683
    13  O   -0.861608
    14  C    0.252687
    15  C   -0.156497
    16  N   -0.712805
    17  H   -0.399321
    18  C    0.697024
    19  N   -0.575017
    20  H   -0.401826
    21  C    0.710187
    22  H   -0.027968
    23  C    0.399848
    24  H   -0.042664
    25  C    0.435451
    26  H   -0.145922
    27  H   -0.094749
    28  H   -0.097118
    29  H   -0.137093
    30  C    0.250195
    31  C   -0.145105
    32  N   -0.693277
    33  H   -0.406627
    34  C    0.714887
    35  N   -0.590299
    36  H   -0.399354
    37  C    0.682969
    38  H   -0.032498
    39  C    0.402785
    40  H   -0.041470
    41  C    0.442275
    42  H   -0.094397
    43  H   -0.147457
    44  H   -0.097148
    45  H   -0.139869
    46  H    0.077051
    47  H   -0.206150
    48  H    0.167156
    49  H    0.097260
    50  H    0.174726
    51  H   -0.181801
    52  H   -0.324207
    53  H   -0.129786
    54  H   -0.120789
    55  H   -0.128677
    56  H   -0.121370
 Sum of Mulliken charges =   0.00000

 Dipole moment (field-independent basis, Debye):
    X=             -2.4083    Y=             -3.5874    Z=             -0.8393  Tot=              4.4016
 Quadrupole moment (field-independent basis, Debye-Ang):
   XX=           -126.0910   YY=           -185.3251   ZZ=           -152.9556
   XY=            -10.6747   XZ=              1.7496   YZ=             -4.6380

 Normal termination of Gaussian 16 at Tue Oct 26 20:55:16 2021.
