 Gaussian 16, Revision C.01,
 Gaussian 16:  ES64L-G16RevC.01  3-Jul-2019

 ----------------------------------------------------------------------
 #P PBE1PBE/Def2TZVP SP SCF=(YQC,MaxCycle=900) int=(Grid=Superfinegrid)
  EmpiricalDispersion=GD3 SCRF=(PCM,Solvent=Dichloromethane)
 ----------------------------------------------------------------------

 -------------------------
 _1_alde1_2_ami3_2_opt_dcm
 -------------------------
 Symbolic Z-matrix:
 Charge =  0 Multiplicity = 1

                         Standard orientation:
 ---------------------------------------------------------------------
 Center     Atomic      Atomic             Coordinates (Angstroms)
 Number     Number       Type             X           Y           Z
 ---------------------------------------------------------------------
      1          6           0        0.019322    1.729755   -0.012799
      2          6           0       -0.000507    3.200313   -0.016787
      3          6           0       -1.177703    1.019852    0.051915
      4          6           0       -1.173805   -0.372205    0.054852
      5          1           0       -2.116347    1.549106    0.099985
      6          6           0        0.043953   -1.046461   -0.007055
      7          6           0        1.248510   -0.349347   -0.071169
      8          1           0        0.054849   -2.128208   -0.005105
      9          6           0        1.228351    1.043447   -0.074012
     10          6           0        2.512380   -1.072118   -0.134703
     11          1           0        2.168244    1.571225   -0.124875
     12          6           0       -2.424512   -1.118054    0.121166
     13          8           0       -0.989247    3.884721    0.030415
     14          6           0       -4.753900   -1.271289    0.247736
     15          6           0       -5.560097   -0.971673   -1.035260
     16          7           0       -3.535149   -0.529686    0.190644
     17          1           0       -4.572834   -2.361936    0.280029
     18          6           0       -5.526831   -0.849009    1.504068
     19          7           0       -6.637393   -1.939300   -1.154801
     20          1           0       -4.892807   -1.147518   -1.890101
     21          6           0       -5.997217    0.501263   -1.056107
     22          6           0       -5.931626    0.619146    1.437200
     23          6           0       -6.778191    0.882817    0.197436
     24          6           0        5.638410   -0.899581    1.036786
     25          6           0        4.842806   -1.194753   -0.253717
     26          7           0        6.720902   -1.860625    1.156377
     27          1           0        4.966468   -1.085705    1.885713
     28          6           0        6.066203    0.576226    1.072381
     29          7           0        3.614678   -0.466174   -0.199105
     30          1           0        4.672367   -2.286449   -0.295332
     31          6           0        5.620319   -0.756997   -1.501723
     32          6           0        6.851711    0.973061   -0.173573
     33          6           0        6.015131    0.713174   -1.421018
     34          1           0        1.008891    3.656002   -0.069381
     35          1           0        7.197712   -1.735917    2.042805
     36          1           0        7.402736   -1.718900    0.419356
     37          1           0       -7.314732   -1.805874   -0.412010
     38          1           0       -7.121450   -1.808756   -2.036591
     39          1           0       -7.706827    0.307196    0.255062
     40          1           0       -7.051286    1.938844    0.149069
     41          1           0       -5.030065    1.230865    1.392810
     42          1           0       -6.487228    0.888492    2.338147
     43          1           0       -6.410427   -1.482808    1.602442
     44          1           0       -4.893204   -1.021904    2.376859
     45          1           0       -5.100122    1.118089   -1.118980
     46          1           0       -6.601879    0.683381   -1.949289
     47          1           0       -2.333697   -2.216277    0.107095
     48          1           0        2.440656   -2.171347   -0.123361
     49          1           0        5.108666    1.318047   -1.378653
     50          1           0        6.574835    0.993356   -2.316059
     51          1           0        6.508790   -1.383467   -1.599893
     52          1           0        4.993168   -0.926859   -2.379766
     53          1           0        6.664711    0.754907    1.970332
     54          1           0        5.164305    1.186125    1.136264
     55          1           0        7.783891    0.403372   -0.229973
     56          1           0        7.119094    2.030250   -0.115422
 ---------------------------------------------------------------------

 SCF Done:  E(RPBE1PBE) =  -1111.65564170     a.u. after    6 cycles
 SCF Done:  E(RPBE1PBE) =  -1111.65566435     A.U. after    8 cycles

 The electronic state is 1-A.
 Alpha  occ. eigenvalues --  -19.21309 -14.38040 -14.37954 -14.36145 -14.36094
 Alpha  occ. eigenvalues --  -10.31738 -10.27054 -10.26970 -10.25271 -10.25176
 Alpha  occ. eigenvalues --  -10.25126 -10.25023 -10.24962 -10.24832 -10.24765
 Alpha  occ. eigenvalues --  -10.24703 -10.24633 -10.24627 -10.21511 -10.21442
 Alpha  occ. eigenvalues --  -10.21028 -10.20917 -10.20821 -10.20698 -10.20682
 Alpha  occ. eigenvalues --  -10.20562  -1.09090  -0.97141  -0.96948  -0.92115
 Alpha  occ. eigenvalues --   -0.91727  -0.90615  -0.84028  -0.83577  -0.81559
 Alpha  occ. eigenvalues --   -0.80922  -0.76550  -0.75943  -0.74592  -0.74194
 Alpha  occ. eigenvalues --   -0.69141  -0.68248  -0.66262  -0.62925  -0.62661
 Alpha  occ. eigenvalues --   -0.62468  -0.61359  -0.59323  -0.58231  -0.55779
 Alpha  occ. eigenvalues --   -0.55388  -0.53746  -0.52632  -0.52364  -0.51115
 Alpha  occ. eigenvalues --   -0.50176  -0.49442  -0.48622  -0.47961  -0.47243
 Alpha  occ. eigenvalues --   -0.46746  -0.46483  -0.45860  -0.45764  -0.45383
 Alpha  occ. eigenvalues --   -0.44780  -0.44305  -0.44017  -0.41719  -0.41275
 Alpha  occ. eigenvalues --   -0.41000  -0.40578  -0.39945  -0.39514  -0.39347
 Alpha  occ. eigenvalues --   -0.38697  -0.38418  -0.38286  -0.37735  -0.37044
 Alpha  occ. eigenvalues --   -0.36285  -0.35848  -0.33910  -0.33809  -0.33589
 Alpha  occ. eigenvalues --   -0.31736  -0.31595  -0.31020  -0.30620  -0.28551
 Alpha  occ. eigenvalues --   -0.27976  -0.26988  -0.26778  -0.26414  -0.25359
 Alpha  occ. eigenvalues --   -0.25136
 Alpha virt. eigenvalues --   -0.07576  -0.06895  -0.02591   0.03985   0.04043
 Alpha virt. eigenvalues --    0.04518   0.05533   0.05971   0.06307   0.06759
 Alpha virt. eigenvalues --    0.07082   0.07223   0.07329   0.08166   0.08870

 Mulliken charges:
               1
     1  C    0.266458
     2  C    0.062540
     3  C   -0.327240
     4  C    0.335031
     5  H    0.154639
     6  C   -0.333831
     7  C    0.295269
     8  H    0.138946
     9  C   -0.293880
    10  C   -0.185437
    11  H    0.157729
    12  C   -0.192289
    13  O   -0.323895
    14  C    0.251718
    15  C   -0.035692
    16  N   -0.238376
    17  H    0.048871
    18  C   -0.293213
    19  N   -0.539520
    20  H    0.088444
    21  C   -0.206716
    22  C   -0.184677
    23  C   -0.224076
    24  C   -0.034555
    25  C    0.250304
    26  N   -0.539569
    27  H    0.088781
    28  C   -0.206320
    29  N   -0.243663
    30  H    0.049530
    31  C   -0.293072
    32  C   -0.224083
    33  C   -0.183744
    34  H    0.096603
    35  H    0.234384
    36  H    0.226238
    37  H    0.226061
    38  H    0.234218
    39  H    0.095081
    40  H    0.110982
    41  H    0.106595
    42  H    0.106338
    43  H    0.120701
    44  H    0.109071
    45  H    0.105195
    46  H    0.103435
    47  H    0.092963
    48  H    0.093958
    49  H    0.103123
    50  H    0.107098
    51  H    0.121316
    52  H    0.109427
    53  H    0.104130
    54  H    0.101971
    55  H    0.095804
    56  H    0.110896
 Sum of Mulliken charges =   0.00000

 Dipole moment (field-independent basis, Debye):
    X=              2.2424    Y=             -2.9389    Z=             -0.0863  Tot=              3.6977
 Quadrupole moment (field-independent basis, Debye-Ang):
   XX=           -128.8114   YY=           -175.7804   ZZ=           -154.5230
   XY=              8.8442   XZ=              2.7677   YZ=             -0.4311

 Normal termination of Gaussian 16 at Mon Oct 18 20:54:59 2021.
