 Gaussian 16, Revision C.01,
 Gaussian 16:  ES64L-G16RevC.01  3-Jul-2019

 ----------------------------------------------------------------------
 #P PBE1PBE/Def2TZVP SP SCF=(YQC,MaxCycle=900) int=(Grid=Superfinegrid)
  EmpiricalDispersion=GD3
 ----------------------------------------------------------------------

 -------------------------
 _1_alde1_3_ami2_1_opt_gas
 -------------------------
 Symbolic Z-matrix:
 Charge =  0 Multiplicity = 1

                         Standard orientation:
 ---------------------------------------------------------------------
 Center     Atomic      Atomic             Coordinates (Angstroms)
 Number     Number       Type             X           Y           Z
 ---------------------------------------------------------------------
      1          6           0       -0.127528    0.891032   -0.056696
      2          6           0        0.282226    2.339058   -0.009519
      3          6           0       -1.460848    0.515509   -0.072365
      4          6           0       -1.812099   -0.827342   -0.080540
      5          1           0       -2.241211    1.261254   -0.089712
      6          6           0       -0.820785   -1.797217   -0.068626
      7          6           0        0.516172   -1.431208   -0.050336
      8          1           0       -1.093237   -2.842698   -0.073838
      9          6           0        0.854570   -0.087157   -0.044485
     10          6           0        1.615570   -2.459523   -0.074356
     11          1           0        1.894240    0.200866   -0.031017
     12          6           0       -3.266134   -1.216750   -0.052972
     13          6           0        1.529412    3.878159    1.139767
     14          6           0        2.300026    3.601749   -0.179097
     15          7           0        0.653327    2.736393    1.339438
     16          7           0        1.479335    2.574537   -0.825221
     17          6           0       -5.429055   -0.233142   -0.163418
     18          6           0       -5.226628   -1.088457    1.117714
     19          7           0       -4.099780   -0.255742   -0.777921
     20          7           0       -3.790143   -1.210874    1.303971
     21          6           0        3.986908   -2.510757    0.184182
     22          6           0        3.517479   -3.123004   -1.162990
     23          7           0        2.732315   -2.053962    0.787190
     24          7           0        2.187645   -2.589988   -1.404858
     25          1           0        2.614868   -2.363828    1.742179
     26          1           0        1.211959   -3.449555    0.208898
     27          1           0        2.256738   -1.662097   -1.814485
     28          1           0       -0.563561    2.980198   -0.320515
     29          1           0        1.172611    1.973048    1.765181
     30          1           0       -4.123509   -0.432766   -1.773115
     31          1           0       -3.431359   -0.387026    1.779415
     32          1           0       -3.383111   -2.246794   -0.441637
     33          1           0       -5.629615   -2.094405    0.960927
     34          1           0       -5.701040   -0.655365    1.996245
     35          1           0        3.429654   -4.210307   -1.066522
     36          1           0        4.188090   -2.897913   -1.990102
     37          6           0        3.683281    3.005778    0.108515
     38          1           0        3.588106    2.129673    0.745452
     39          1           0        4.319389    3.736183    0.602949
     40          1           0        4.155619    2.700585   -0.822114
     41          1           0        1.254223    2.793166   -1.786223
     42          6           0        2.436735    4.865008   -1.028032
     43          6           0       -6.507467   -0.828424   -1.069681
     44          1           0       -7.458412   -0.875485   -0.543815
     45          1           0       -6.232350   -1.836064   -1.377835
     46          1           0       -6.634454   -0.214145   -1.959268
     47          6           0       -5.777447    1.217083    0.188887
     48          1           0       -5.029816    1.626712    0.863694
     49          1           0       -6.753363    1.270418    0.665466
     50          1           0       -5.792057    1.824597   -0.712703
     51          6           0        4.714549   -3.539909    1.048280
     52          1           0        4.060867   -4.382245    1.270134
     53          1           0        5.032332   -3.088446    1.986338
     54          1           0        5.594159   -3.913254    0.528867
     55          6           0        4.883464   -1.289149   -0.051010
     56          1           0        5.096882   -0.798949    0.895705
     57          1           0        4.380393   -0.575162   -0.698538
     58          1           0        5.821969   -1.586681   -0.512678
     59          1           0        2.981979    5.629887   -0.479618
     60          1           0        1.455063    5.259103   -1.286734
     61          1           0        2.978069    4.645978   -1.946567
     62          1           0        2.186660    4.024276    1.994835
     63          1           0        0.899927    4.766688    1.023214
 ---------------------------------------------------------------------

 SCF Done:  E(RPBE1PBE) =  -1149.50828107     a.u. after    6 cycles
 SCF Done:  E(RPBE1PBE) =  -1149.50831613     A.U. after    9 cycles

 The electronic state is 1-A.
 Alpha  occ. eigenvalues --  -14.36593 -14.36592 -14.36556 -14.35848 -14.35785
 Alpha  occ. eigenvalues --  -14.35782 -10.27025 -10.27008 -10.26966 -10.25353
 Alpha  occ. eigenvalues --  -10.25344 -10.25336 -10.23685 -10.23685 -10.23680
 Alpha  occ. eigenvalues --  -10.22054 -10.21976 -10.21908 -10.21389 -10.21012
 Alpha  occ. eigenvalues --  -10.20980 -10.20955 -10.20918 -10.20719 -10.19974
 Alpha  occ. eigenvalues --  -10.19945 -10.19939  -0.98857  -0.98756  -0.98698
 Alpha  occ. eigenvalues --   -0.88313  -0.87662  -0.87657  -0.87524  -0.81778
 Alpha  occ. eigenvalues --   -0.81678  -0.79887  -0.76639  -0.76208  -0.70997
 Alpha  occ. eigenvalues --   -0.70945  -0.70905  -0.69743  -0.69230  -0.69153
 Alpha  occ. eigenvalues --   -0.65284  -0.64488  -0.63738  -0.59508  -0.58366
 Alpha  occ. eigenvalues --   -0.57969  -0.57926  -0.57899  -0.54017  -0.52774
 Alpha  occ. eigenvalues --   -0.51340  -0.50712  -0.49928  -0.49661  -0.49270
 Alpha  occ. eigenvalues --   -0.46945  -0.45760  -0.45636  -0.45424  -0.45244
 Alpha  occ. eigenvalues --   -0.44784  -0.44692  -0.43691  -0.43301  -0.42382
 Alpha  occ. eigenvalues --   -0.42011  -0.41855  -0.41683  -0.40719  -0.40583
 Alpha  occ. eigenvalues --   -0.40437  -0.39851  -0.39607  -0.39369  -0.37514
 Alpha  occ. eigenvalues --   -0.37489  -0.37439  -0.37193  -0.36978  -0.36866
 Alpha  occ. eigenvalues --   -0.36625  -0.36093  -0.35698  -0.35193  -0.34256
 Alpha  occ. eigenvalues --   -0.34227  -0.34060  -0.33418  -0.32980  -0.26168
 Alpha  occ. eigenvalues --   -0.25810  -0.24933  -0.24713  -0.24536  -0.23262
 Alpha  occ. eigenvalues --   -0.23005  -0.22653
 Alpha virt. eigenvalues --   -0.00261   0.00047   0.03268   0.03853   0.04286
 Alpha virt. eigenvalues --    0.05983   0.06102   0.06327   0.07166   0.07542
 Alpha virt. eigenvalues --    0.07937   0.08696   0.08851   0.09059   0.09673

 Mulliken charges:
               1
     1  C    0.316836
     2  C   -0.166602
     3  C   -0.357215
     4  C    0.310753
     5  H    0.115920
     6  C   -0.424249
     7  C    0.299831
     8  H    0.092825
     9  C   -0.267255
    10  C   -0.148084
    11  H    0.163754
    12  C   -0.128425
    13  C   -0.119952
    14  C    0.116964
    15  N   -0.247591
    16  N   -0.267722
    17  C    0.138881
    18  C   -0.141301
    19  N   -0.271952
    20  N   -0.248974
    21  C    0.116856
    22  C   -0.121656
    23  N   -0.267666
    24  N   -0.247289
    25  H    0.191361
    26  H    0.067436
    27  H    0.197624
    28  H    0.069542
    29  H    0.197750
    30  H    0.191048
    31  H    0.197330
    32  H    0.066398
    33  H    0.082630
    34  H    0.126427
    35  H    0.079211
    36  H    0.125163
    37  C   -0.373027
    38  H    0.120761
    39  H    0.112995
    40  H    0.109871
    41  H    0.190675
    42  C   -0.421683
    43  C   -0.427572
    44  H    0.122040
    45  H    0.126765
    46  H    0.124511
    47  C   -0.362191
    48  H    0.116469
    49  H    0.111871
    50  H    0.110328
    51  C   -0.421698
    52  H    0.125528
    53  H    0.125957
    54  H    0.121537
    55  C   -0.371551
    56  H    0.110126
    57  H    0.120165
    58  H    0.112890
    59  H    0.121721
    60  H    0.125241
    61  H    0.125856
    62  H    0.125063
    63  H    0.078742
 Sum of Mulliken charges =   0.00000

 Dipole moment (field-independent basis, Debye):
    X=              0.5851    Y=              0.6258    Z=             -0.6629  Tot=              1.0833
 Quadrupole moment (field-independent basis, Debye-Ang):
   XX=           -150.7671   YY=           -161.6027   ZZ=           -166.2163
   XY=             -0.1586   XZ=              4.5382   YZ=             -4.2699

 Normal termination of Gaussian 16 at Mon Oct 18 11:59:45 2021.
