 Gaussian 16, Revision C.01,
 Gaussian 16:  ES64L-G16RevC.01  3-Jul-2019

 ----------------------------------------------------------------------
 #P MP2/aug-cc-pVDZ SP SCF=(YQC,MaxCycle=900) int=(Grid=Superfinegrid)
 SCRF=(PCM,Solvent=Chloroform)
 ----------------------------------------------------------------------

 -----------------------------
 _1_alde1_2_ami1_1_opt_cfm_mp2
 -----------------------------
 Symbolic Z-matrix:
 Charge =  0 Multiplicity = 1

                         Standard orientation:
 ---------------------------------------------------------------------
 Center     Atomic      Atomic             Coordinates (Angstroms)
 Number     Number       Type             X           Y           Z
 ---------------------------------------------------------------------
      1          6           0       -0.039197   -1.334061    2.017131
      2          6           0       -0.094621   -2.130189    3.247446
      3          6           0       -1.210566   -0.809200    1.473536
      4          6           0       -1.166450   -0.054933    0.312542
      5          1           0       -2.151934   -0.983609    1.972420
      6          6           0        0.054216    0.160173   -0.313171
      7          6           0        1.228874   -0.362678    0.214085
      8          1           0        0.094110    0.742448   -1.222119
      9          6           0        1.180641   -1.101881    1.384150
     10          6           0        2.548083   -0.083886   -0.456904
     11          1           0        2.097515   -1.503480    1.789793
     12          6           0       -2.442120    0.477499   -0.280952
     13          8           0       -1.094426   -2.404122    3.861782
     14          6           0       -4.724882    0.838135    0.120125
     15          6           0       -4.516930   -0.095125   -1.111782
     16          7           0       -3.412249    0.829183    0.751200
     17          1           0       -5.444331    0.402213    0.825233
     18          6           0       -5.241635    2.237290   -0.275664
     19          7           0       -3.124738   -0.535812   -1.064738
     20          1           0       -4.612861    0.509837   -2.023477
     21          6           0       -5.513153   -1.259054   -1.201242
     22          1           0       -4.529491    2.681262   -0.982241
     23          6           0       -5.355211    3.148805    0.947223
     24          6           0       -6.610545    2.140528   -0.946794
     25          1           0       -6.515028   -0.826345   -1.106934
     26          6           0       -5.331986   -2.290670   -0.086446
     27          6           0       -5.401210   -1.936640   -2.565897
     28          1           0       -7.326840    1.679578   -0.269562
     29          1           0       -6.569801    1.551421   -1.858789
     30          1           0       -6.972818    3.134127   -1.201924
     31          1           0       -6.008224    2.698331    1.692039
     32          1           0       -5.774429    4.110224    0.658280
     33          1           0       -4.388111    3.335255    1.409233
     34          1           0       -4.384314   -2.286560   -2.724453
     35          1           0       -5.650736   -1.240329   -3.363241
     36          1           0       -6.078992   -2.785247   -2.625305
     37          1           0       -5.206140   -1.810787    0.881044
     38          1           0       -4.467490   -2.924096   -0.275632
     39          1           0       -6.206937   -2.934966   -0.036625
     40          6           0        4.868404   -0.450043   -0.245626
     41          6           0        4.541872    1.071175   -0.295845
     42          7           0        3.559735   -1.081506   -0.113059
     43          1           0        5.429700   -0.669671    0.674553
     44          6           0        5.713711   -0.943622   -1.438552
     45          7           0        3.113416    1.173593   -0.000708
     46          1           0        4.684308    1.440029   -1.319180
     47          6           0        5.367517    1.939114    0.657411
     48          1           0        6.554582   -0.250440   -1.544131
     49          6           0        4.943210   -0.957836   -2.758367
     50          6           0        6.276412   -2.334848   -1.146826
     51          1           0        5.188070    1.583706    1.679912
     52          6           0        4.914111    3.395034    0.555253
     53          6           0        6.863100    1.845269    0.364591
     54          1           0        5.473638   -3.053590   -0.993670
     55          1           0        6.892639   -2.319402   -0.250492
     56          1           0        6.888361   -2.678610   -1.977796
     57          1           0        4.127522   -1.678582   -2.732344
     58          1           0        5.610153   -1.240108   -3.570066
     59          1           0        4.529547    0.021814   -2.985881
     60          1           0        7.411452    2.508051    1.030328
     61          1           0        7.067680    2.147441   -0.660460
     62          1           0        7.235095    0.834774    0.510653
     63          1           0        5.427688    4.004529    1.295317
     64          1           0        3.842790    3.475868    0.714086
     65          1           0        5.142216    3.787933   -0.432934
     66          1           0        3.473017   -1.927934   -0.659998
     67          1           0        2.390116    0.004116   -1.548541
     68          1           0        2.988700    1.228693    1.007932
     69          1           0       -3.185842    1.690275    1.229493
     70          1           0       -3.067468   -1.413324   -0.556439
     71          1           0       -2.213676    1.324348   -0.958655
     72          1           0        0.898957   -2.484555    3.590912
 ---------------------------------------------------------------------

 SCF Done:  E(RHF) =  -1263.96411922     a.u. after    7 cycles
 SCF Done:  E(RHF) =  -1263.96414135     A.U. after   11 cycles
 E2 =    -0.4528990056D+01 EUMP2 =    -0.12684931314094D+04

 The electronic state is 1-A.
 Alpha  occ. eigenvalues --  -20.56753 -15.55187 -15.54878 -15.54567 -15.54328
 Alpha  occ. eigenvalues --  -11.34220 -11.29088 -11.28945 -11.25238 -11.25089
 Alpha  occ. eigenvalues --  -11.25044 -11.25039 -11.24956 -11.24876 -11.24709
 Alpha  occ. eigenvalues --  -11.24609 -11.24592 -11.24468 -11.23132 -11.22955
 Alpha  occ. eigenvalues --  -11.22924 -11.22765 -11.21680 -11.21621 -11.21619
 Alpha  occ. eigenvalues --  -11.21547 -11.21468 -11.21451 -11.21131 -11.21120
 Alpha  occ. eigenvalues --   -1.40416  -1.28314  -1.28155  -1.17511  -1.15366
 Alpha  occ. eigenvalues --   -1.15097  -1.10113  -1.09351  -1.06088  -1.06008
 Alpha  occ. eigenvalues --   -1.05375  -1.04333  -0.96855  -0.96022  -0.93396
 Alpha  occ. eigenvalues --   -0.93164  -0.93130  -0.93002  -0.89769  -0.88035
 Alpha  occ. eigenvalues --   -0.85571  -0.84938  -0.84752  -0.79568  -0.79038
 Alpha  occ. eigenvalues --   -0.77291  -0.76805  -0.76302  -0.75815  -0.71369
 Alpha  occ. eigenvalues --   -0.70099  -0.68437  -0.67112  -0.66439  -0.66086
 Alpha  occ. eigenvalues --   -0.64375  -0.63423  -0.62874  -0.62268  -0.61334
 Alpha  occ. eigenvalues --   -0.61053  -0.60704  -0.59893  -0.58797  -0.58553
 Alpha  occ. eigenvalues --   -0.58120  -0.58054  -0.57065  -0.56745  -0.56226
 Alpha  occ. eigenvalues --   -0.55938  -0.55526  -0.54287  -0.53991  -0.53778
 Alpha  occ. eigenvalues --   -0.53687  -0.53484  -0.53414  -0.52990  -0.52292
 Alpha  occ. eigenvalues --   -0.51896  -0.51609  -0.50906  -0.49934  -0.49309
 Alpha  occ. eigenvalues --   -0.48813  -0.48460  -0.47675  -0.47566  -0.47147
 Alpha  occ. eigenvalues --   -0.46817  -0.46668  -0.46359  -0.46259  -0.45574
 Alpha  occ. eigenvalues --   -0.43780  -0.43460  -0.42800  -0.38554  -0.38394
 Alpha  occ. eigenvalues --   -0.36942  -0.36447  -0.34573  -0.33494
 Alpha virt. eigenvalues --    0.03247   0.03606   0.03832   0.03894   0.04220
 Alpha virt. eigenvalues --    0.04378   0.04544   0.05168   0.05347   0.05474
 Alpha virt. eigenvalues --    0.05694   0.05744   0.06010   0.06095   0.06483

 Mulliken charges:
               1
     1  C    0.428687
     2  C    1.220921
     3  C   -0.051767
     4  C    1.732660
     5  H   -0.968778
     6  C   -0.274499
     7  C    1.818141
     8  H   -0.856883
     9  C    0.463189
    10  C    0.206700
    11  H   -0.932213
    12  C    0.255155
    13  O   -0.850988
    14  C    0.524661
    15  C    0.000304
    16  N   -0.490450
    17  H   -0.737010
    18  C   -1.150175
    19  N   -0.624127
    20  H   -0.643689
    21  C   -0.823424
    22  H   -0.178407
    23  C    1.017543
    24  C    1.166151
    25  H   -0.343482
    26  C    1.134217
    27  C    1.086416
    28  H    0.010392
    29  H   -0.033046
    30  H   -0.181030
    31  H   -0.015435
    32  H   -0.059375
    33  H   -0.133983
    34  H   -0.005603
    35  H   -0.069617
    36  H   -0.067765
    37  H   -0.038914
    38  H   -0.012045
    39  H   -0.184897
    40  C    0.815167
    41  C    0.804396
    42  N   -0.727828
    43  H   -0.775142
    44  C   -1.095103
    45  N   -0.812444
    46  H   -0.620144
    47  C   -1.159990
    48  H   -0.388710
    49  C    1.187193
    50  C    1.003593
    51  H   -0.191768
    52  C    1.061402
    53  C    1.141346
    54  H   -0.062098
    55  H   -0.066708
    56  H   -0.079302
    57  H   -0.030620
    58  H   -0.179676
    59  H   -0.017282
    60  H   -0.184821
    61  H    0.029976
    62  H    0.003812
    63  H   -0.066810
    64  H   -0.103144
    65  H   -0.026672
    66  H    0.092890
    67  H   -0.397605
    68  H    0.140375
    69  H   -0.050237
    70  H    0.248720
    71  H   -0.499780
    72  H   -0.330517
 Sum of Mulliken charges =   0.00000

 Dipole moment (field-independent basis, Debye):
    X=              2.9551    Y=              2.2215    Z=             -3.3402  Tot=              4.9824
 Quadrupole moment (field-independent basis, Debye-Ang):
   XX=           -162.0896   YY=           -192.4977   ZZ=           -205.4518
   XY=            -11.1910   XZ=              7.2666   YZ=              9.5943

 Normal termination of Gaussian 16 at Thu Nov 11 01:54:14 2021.
