 Gaussian 16, Revision C.01,
 Gaussian 16:  ES64L-G16RevC.01  3-Jul-2019

 ----------------------------------------------------------------------
 #P PBE1PBE/Def2TZVP SP SCF=(YQC,MaxCycle=900) int=(Grid=Superfinegrid)
  EmpiricalDispersion=GD3
 ----------------------------------------------------------------------

 -------------------------
 _1_alde1_2_ami2_1_opt_gas
 -------------------------
 Symbolic Z-matrix:
 Charge =  0 Multiplicity = 1

                         Standard orientation:
 ---------------------------------------------------------------------
 Center     Atomic      Atomic             Coordinates (Angstroms)
 Number     Number       Type             X           Y           Z
 ---------------------------------------------------------------------
      1          6           0       -0.437457    2.506953    0.050321
      2          6           0       -0.924964    3.889890    0.019304
      3          6           0       -1.344261    1.449446   -0.009493
      4          6           0       -0.894742    0.140242    0.018986
      5          1           0       -2.399627    1.660250   -0.094223
      6          6           0        0.467944   -0.109823    0.111690
      7          6           0        1.381721    0.934373    0.183063
      8          1           0        0.837458   -1.123827    0.141291
      9          6           0        0.927271    2.242424    0.148449
     10          6           0        2.860976    0.652089    0.243420
     11          1           0        1.634355    3.058169    0.193160
     12          6           0       -1.885991   -0.993620   -0.001895
     13          8           0       -2.081211    4.224762   -0.031736
     14          6           0       -4.233142   -1.335827   -0.204265
     15          6           0       -3.647165   -1.958039    1.092169
     16          7           0       -3.072762   -0.655957   -0.786675
     17          6           0       -5.299568   -0.284359    0.119711
     18          7           0       -2.386431   -1.275130    1.334958
     19          1           0       -3.426383   -3.018186    0.931045
     20          1           0       -6.173597   -0.752020    0.566522
     21          6           0        4.699976    0.004271   -0.949407
     22          6           0        4.392097   -1.155655    0.036571
     23          7           0        3.468475    0.767307   -1.073939
     24          1           0        5.045859   -0.343655   -1.920594
     25          7           0        3.148652   -0.714576    0.675348
     26          6           0        4.113341   -2.461028   -0.716316
     27          1           0        3.778302   -3.225852   -0.020213
     28          1           0        2.854804    0.321098   -1.750590
     29          1           0        3.350107    1.406166    0.890816
     30          1           0        3.162696   -0.811794    1.681666
     31          1           0       -2.958240   -0.837620   -1.774378
     32          1           0       -2.561952   -0.390221    1.803698
     33          1           0       -1.389319   -1.914615   -0.363897
     34          1           0       -0.114452    4.646688    0.050963
     35          1           0       -4.313838   -1.865194    1.947178
     36          1           0       -4.900369    0.454256    0.810431
     37          1           0       -5.600590    0.230041   -0.789303
     38          1           0        5.459603    0.665928   -0.521233
     39          1           0        5.011644   -2.811152   -1.218795
     40          1           0        3.330557   -2.306458   -1.455011
     41          6           0        5.527991   -1.357232    1.039073
     42          1           0        6.451657   -1.598172    0.518002
     43          1           0        5.291169   -2.173806    1.718454
     44          1           0        5.686805   -0.451973    1.623238
     45          6           0       -4.811426   -2.406409   -1.129445
     46          1           0       -5.215625   -1.948000   -2.029979
     47          1           0       -5.611631   -2.945245   -0.627385
     48          1           0       -4.040844   -3.120592   -1.416444
 ---------------------------------------------------------------------

 SCF Done:  E(RPBE1PBE) =  -956.938859737     a.u. after    6 cycles
 SCF Done:  E(RPBE1PBE) =  -956.938877449     A.U. after    9 cycles

 The electronic state is 1-A.
 Alpha  occ. eigenvalues --  -19.19510 -14.37774 -14.37338 -14.36968 -14.36413
 Alpha  occ. eigenvalues --  -10.30140 -10.28368 -10.27922 -10.26296 -10.25777
 Alpha  occ. eigenvalues --  -10.24633 -10.24200 -10.23876 -10.23770 -10.23603
 Alpha  occ. eigenvalues --  -10.23544 -10.23109 -10.22824 -10.21685 -10.21267
 Alpha  occ. eigenvalues --  -10.20778 -10.20129  -1.07166  -0.99974  -0.99503
 Alpha  occ. eigenvalues --   -0.89937  -0.88763  -0.88262  -0.82806  -0.81851
 Alpha  occ. eigenvalues --   -0.78839  -0.77762  -0.71754  -0.71243  -0.70510
 Alpha  occ. eigenvalues --   -0.70141  -0.67545  -0.65723  -0.65038  -0.60376
 Alpha  occ. eigenvalues --   -0.58953  -0.58566  -0.58058  -0.54067  -0.53432
 Alpha  occ. eigenvalues --   -0.52071  -0.51011  -0.50509  -0.48734  -0.47011
 Alpha  occ. eigenvalues --   -0.46538  -0.46163  -0.45778  -0.45350  -0.44975
 Alpha  occ. eigenvalues --   -0.44371  -0.43330  -0.42911  -0.42500  -0.42113
 Alpha  occ. eigenvalues --   -0.41388  -0.41194  -0.40692  -0.40578  -0.38345
 Alpha  occ. eigenvalues --   -0.38020  -0.37911  -0.37558  -0.37224  -0.37118
 Alpha  occ. eigenvalues --   -0.36365  -0.35901  -0.35081  -0.34577  -0.34467
 Alpha  occ. eigenvalues --   -0.27637  -0.27306  -0.26754  -0.25908  -0.25490
 Alpha  occ. eigenvalues --   -0.24275  -0.23695
 Alpha virt. eigenvalues --   -0.06001  -0.01808   0.02915   0.03521   0.03885
 Alpha virt. eigenvalues --    0.05072   0.05831   0.06460   0.07180   0.07957
 Alpha virt. eigenvalues --    0.08367   0.08541   0.09243   0.09787   0.09856

 Mulliken charges:
               1
     1  C    0.255035
     2  C    0.039059
     3  C   -0.307359
     4  C    0.360937
     5  H    0.154427
     6  C   -0.374948
     7  C    0.227055
     8  H    0.128160
     9  C   -0.333413
    10  C   -0.071112
    11  H    0.108638
    12  C   -0.112946
    13  O   -0.282650
    14  C    0.115604
    15  C   -0.135423
    16  N   -0.265180
    17  C   -0.355382
    18  N   -0.252843
    19  H    0.083406
    20  H    0.112263
    21  C   -0.134988
    22  C    0.108134
    23  N   -0.253488
    24  H    0.130147
    25  N   -0.276528
    26  C   -0.351905
    27  H    0.114495
    28  H    0.194237
    29  H    0.073261
    30  H    0.199455
    31  H    0.192515
    32  H    0.197282
    33  H    0.069193
    34  H    0.068892
    35  H    0.129375
    36  H    0.117340
    37  H    0.115870
    38  H    0.085522
    39  H    0.113770
    40  H    0.109327
    41  C   -0.426086
    42  H    0.124523
    43  H    0.127919
    44  H    0.127259
    45  C   -0.424757
    46  H    0.127972
    47  H    0.123276
    48  H    0.124658
 Sum of Mulliken charges =   0.00000

 Dipole moment (field-independent basis, Debye):
    X=              2.5121    Y=             -3.6040    Z=             -0.0255  Tot=              4.3932
 Quadrupole moment (field-independent basis, Debye-Ang):
   XX=           -122.8292   YY=           -145.4231   ZZ=           -130.6839
   XY=             11.2826   XZ=              2.6064   YZ=              5.1070

 Normal termination of Gaussian 16 at Sun Oct 17 21:11:17 2021.
