 Gaussian 16, Revision C.01,
 Gaussian 16:  ES64L-G16RevC.01  3-Jul-2019

 ---------------------------------------------------------------------
 #P MP2/aug-cc-pVDZ SP SCF=(YQC,MaxCycle=900) int=(Grid=Superfinegrid)
 ---------------------------------------------------------------------

 -----------------------------
 _1_alde1_2_ami4_1_opt_gas_mp2
 -----------------------------
 Symbolic Z-matrix:
 Charge =  0 Multiplicity = 1

                         Standard orientation:
 ---------------------------------------------------------------------
 Center     Atomic      Atomic             Coordinates (Angstroms)
 Number     Number       Type             X           Y           Z
 ---------------------------------------------------------------------
      1          6           0        0.345219    2.086327   -0.123314
      2          6           0        0.749759    3.496334   -0.143748
      3          6           0       -0.990899    1.733669   -0.303384
      4          6           0       -1.366189    0.400017   -0.291220
      5          1           0       -1.738352    2.500354   -0.447950
      6          6           0       -0.402863   -0.580723   -0.092034
      7          6           0        0.932339   -0.242552    0.085187
      8          1           0       -0.712090   -1.614873   -0.087189
      9          6           0        1.303159    1.091315    0.067656
     10          6           0        1.983578   -1.309404    0.252632
     11          1           0        2.334033    1.373408    0.218878
     12          6           0       -2.820810    0.031850   -0.441217
     13          8           0        1.879064    3.902862   -0.039156
     14          6           0       -4.712246   -0.584450    0.689757
     15          6           0       -4.203105   -1.847941   -0.034928
     16          7           0       -3.547361    0.279155    0.794678
     17          1           0       -5.142493   -0.789728    1.667702
     18          7           0       -3.007799   -1.395451   -0.743214
     19          1           0       -4.957192   -2.271956   -0.701315
     20          6           0        4.326268   -1.257708    0.618511
     21          6           0        3.954482   -2.087118   -0.626145
     22          7           0        3.036929   -0.876182    1.189222
     23          1           0        4.861387   -0.347011    0.323400
     24          7           0        2.644042   -1.590282   -1.013715
     25          1           0        3.848523   -3.143829   -0.360621
     26          1           0        2.890163   -1.260928    2.112233
     27          1           0        1.506710   -2.246418    0.589425
     28          1           0        2.749181   -0.719188   -1.527469
     29          1           0       -2.969641   -0.017720    1.576932
     30          1           0       -3.052316   -1.562098   -1.739305
     31          1           0       -3.277693    0.672985   -1.218375
     32          1           0       -0.098431    4.199211   -0.273418
     33          1           0       -3.909534   -2.616772    0.689850
     34          1           0        4.949018   -1.812509    1.321709
     35          1           0       -5.456227   -0.068974    0.074373
     36          1           0        4.669620   -1.995228   -1.440933
 ---------------------------------------------------------------------

 SCF Done:  E(RHF) =  -795.491540923     a.u. after    6 cycles
 SCF Done:  E(RHF) =  -795.491580548     A.U. after   12 cycles
 E2 =    -0.2698316747D+01 EUMP2 =    -0.79818989729405D+03

 The electronic state is 1-A.
 Alpha  occ. eigenvalues --  -20.55709 -15.56097 -15.55609 -15.55428 -15.54798
 Alpha  occ. eigenvalues --  -11.33265 -11.29763 -11.29230 -11.26103 -11.25970
 Alpha  occ. eigenvalues --  -11.25569 -11.25361 -11.25091 -11.24473 -11.24394
 Alpha  occ. eigenvalues --  -11.24250 -11.24138 -11.24011  -1.39211  -1.28509
 Alpha  occ. eigenvalues --   -1.27906  -1.17083  -1.15016  -1.14422  -1.06413
 Alpha  occ. eigenvalues --   -1.05754  -0.99331  -0.97930  -0.89509  -0.86830
 Alpha  occ. eigenvalues --   -0.85369  -0.83197  -0.82887  -0.79072  -0.77070
 Alpha  occ. eigenvalues --   -0.71649  -0.70759  -0.69183  -0.67951  -0.67594
 Alpha  occ. eigenvalues --   -0.65954  -0.63730  -0.61792  -0.60980  -0.59455
 Alpha  occ. eigenvalues --   -0.59095  -0.58542  -0.56101  -0.55129  -0.54567
 Alpha  occ. eigenvalues --   -0.54443  -0.53837  -0.53472  -0.52966  -0.50864
 Alpha  occ. eigenvalues --   -0.50288  -0.49853  -0.48507  -0.47987  -0.41865
 Alpha  occ. eigenvalues --   -0.39809  -0.39368  -0.37882  -0.37164  -0.34116
 Alpha  occ. eigenvalues --   -0.33084
 Alpha virt. eigenvalues --    0.02974   0.03384   0.03916   0.04253   0.04635
 Alpha virt. eigenvalues --    0.04885   0.05298   0.05703   0.06288   0.06341
 Alpha virt. eigenvalues --    0.06929   0.07131   0.07243   0.07743   0.08261

 Mulliken charges:
               1
     1  C    0.447409
     2  C    1.247883
     3  C    0.131771
     4  C    0.972279
     5  H   -0.734336
     6  C    0.646821
     7  C    0.980255
     8  H   -0.829587
     9  C   -0.351128
    10  C    0.474289
    11  H   -0.822191
    12  C    0.651020
    13  O   -0.796443
    14  C    0.664164
    15  C    0.650186
    16  N   -0.586488
    17  H   -0.198531
    18  N   -0.505074
    19  H   -0.203187
    20  C    0.662378
    21  C    0.692521
    22  N   -0.406229
    23  H   -0.253202
    24  N   -0.579196
    25  H   -0.252998
    26  H   -0.067911
    27  H   -0.320321
    28  H    0.051517
    29  H    0.049429
    30  H   -0.012137
    31  H   -0.151462
    32  H   -0.327724
    33  H   -0.253770
    34  H   -0.211524
    35  H   -0.253842
    36  H   -0.204639
 Sum of Mulliken charges =   0.00000

 Dipole moment (field-independent basis, Debye):
    X=             -2.7277    Y=             -3.9305    Z=              0.0164  Tot=              4.7843
 Quadrupole moment (field-independent basis, Debye-Ang):
   XX=            -96.2280   YY=           -118.8793   ZZ=           -105.0038
   XY=            -10.1391   XZ=              3.5743   YZ=             -6.7834

 Normal termination of Gaussian 16 at Mon Nov  1 12:53:24 2021.
