 Gaussian 16, Revision C.01,
 Gaussian 16:  ES64L-G16RevC.01  3-Jul-2019

 ----------------------------------------------------------------------
 #P PBE1PBE/Def2TZVP SP SCF=(YQC,MaxCycle=900) int=(Grid=Superfinegrid)
  EmpiricalDispersion=GD3 SCRF=(PCM,Solvent=Dichloromethane)
 ----------------------------------------------------------------------

 -------------------------
 _1_alde1_3_ami4_2_opt_dcm
 -------------------------
 Symbolic Z-matrix:
 Charge =  0 Multiplicity = 1

                         Standard orientation:
 ---------------------------------------------------------------------
 Center     Atomic      Atomic             Coordinates (Angstroms)
 Number     Number       Type             X           Y           Z
 ---------------------------------------------------------------------
      1          6           0       -0.362819   -1.562710   -0.526628
      2          6           0       -1.197398   -2.767940   -0.690230
      3          6           0       -0.903432   -0.302319   -0.308054
      4          6           0       -0.076975    0.811984   -0.147728
      5          1           0       -1.969269   -0.143988   -0.288084
      6          6           0        1.301014    0.657176   -0.216111
      7          6           0        1.859924   -0.598769   -0.451559
      8          1           0        1.966024    1.498330   -0.094902
      9          6           0        1.022733   -1.698111   -0.611316
     10          6           0        3.304506   -0.761935   -0.535623
     11          1           0        1.449932   -2.675435   -0.791076
     12          6           0       -0.662619    2.123707    0.093623
     13          6           0       -4.145143   -1.868807    0.636351
     14          6           0       -2.774669   -2.449516    1.060460
     15          7           0       -5.119240   -2.854130    0.227090
     16          7           0       -2.199208   -3.163501   -0.037747
     17          1           0       -2.947504   -3.189809    1.850267
     18          6           0       -2.462851    3.564592    0.486649
     19          6           0       -3.618815    3.798877   -0.491121
     20          7           0       -1.904068    2.272034    0.254334
     21          7           0       -4.725149    2.927197   -0.140704
     22          6           0        5.502339    0.020284   -0.474664
     23          6           0        6.150440    0.439590    0.850437
     24          7           0        4.091162    0.214037   -0.399505
     25          1           0        5.787323   -1.018634   -0.704765
     26          7           0        7.590879    0.276414    0.760925
     27          1           0        7.972727    0.906549    0.062758
     28          1           0        8.025831    0.498722    1.649458
     29          1           0       -5.311706   -3.495106    0.990220
     30          1           0       -4.742246   -3.402641   -0.539283
     31          1           0       -5.447545    2.961754   -0.851762
     32          1           0       -4.386119    1.972447   -0.081501
     33          1           0       -0.865500   -3.445059   -1.475504
     34          1           0        0.046442    2.965322    0.137919
     35          1           0        3.661562   -1.785865   -0.729439
     36          1           0       -2.140012   -1.645585    1.457783
     37          1           0        5.880207    0.673442   -1.268856
     38          1           0       -1.716853    4.372320    0.400634
     39          1           0       -2.879262    3.564743    1.498622
     40          1           0       -3.242695    3.647330   -1.518222
     41          1           0       -3.959075    4.835282   -0.403141
     42          1           0       -3.998341   -1.184657   -0.204384
     43          1           0       -4.556710   -1.301186    1.475198
     44          1           0        5.828246    1.467204    1.083950
     45          1           0        5.786496   -0.216458    1.646443
 ---------------------------------------------------------------------

 SCF Done:  E(RPBE1PBE) =  -913.785878007     a.u. after    6 cycles
 SCF Done:  E(RPBE1PBE) =  -913.785891373     A.U. after    9 cycles

 The electronic state is 1-A.
 Alpha  occ. eigenvalues --  -14.38369 -14.38298 -14.38141 -14.36285 -14.35838
 Alpha  occ. eigenvalues --  -14.35735 -10.27041 -10.27023 -10.26924 -10.25095
 Alpha  occ. eigenvalues --  -10.24829 -10.24777 -10.24661 -10.24545 -10.24517
 Alpha  occ. eigenvalues --  -10.24501 -10.24360 -10.24261 -10.24229 -10.24190
 Alpha  occ. eigenvalues --  -10.24154  -0.96935  -0.96631  -0.96312  -0.91313
 Alpha  occ. eigenvalues --   -0.90887  -0.90643  -0.89793  -0.81687  -0.81129
 Alpha  occ. eigenvalues --   -0.75966  -0.75181  -0.74839  -0.68216  -0.67447
 Alpha  occ. eigenvalues --   -0.66199  -0.63745  -0.62309  -0.60617  -0.57276
 Alpha  occ. eigenvalues --   -0.55917  -0.53947  -0.52930  -0.51686  -0.51259
 Alpha  occ. eigenvalues --   -0.50852  -0.50236  -0.49771  -0.48698  -0.48217
 Alpha  occ. eigenvalues --   -0.47547  -0.46229  -0.45796  -0.45281  -0.45018
 Alpha  occ. eigenvalues --   -0.43323  -0.42525  -0.41951  -0.40769  -0.40518
 Alpha  occ. eigenvalues --   -0.40040  -0.39355  -0.39062  -0.38386  -0.37086
 Alpha  occ. eigenvalues --   -0.36540  -0.36175  -0.35022  -0.34254  -0.31368
 Alpha  occ. eigenvalues --   -0.27936  -0.27547  -0.27040  -0.26582  -0.26163
 Alpha  occ. eigenvalues --   -0.25528  -0.25290  -0.25170
 Alpha virt. eigenvalues --   -0.06533  -0.05659  -0.01999   0.03714   0.04449
 Alpha virt. eigenvalues --    0.04756   0.05662   0.05821   0.06591   0.06985
 Alpha virt. eigenvalues --    0.07584   0.07966   0.08176   0.08979   0.09307

 Mulliken charges:
               1
     1  C    0.283635
     2  C   -0.164507
     3  C   -0.337496
     4  C    0.350570
     5  H    0.155881
     6  C   -0.351929
     7  C    0.303390
     8  H    0.125675
     9  C   -0.328668
    10  C   -0.139440
    11  H    0.140544
    12  C   -0.168548
    13  C   -0.101471
    14  C   -0.155737
    15  N   -0.545476
    16  N   -0.214464
    17  H    0.119158
    18  C   -0.063494
    19  C   -0.084088
    20  N   -0.215913
    21  N   -0.569464
    22  C   -0.083887
    23  C   -0.107595
    24  N   -0.189185
    25  H    0.076967
    26  N   -0.558821
    27  H    0.236864
    28  H    0.239766
    29  H    0.229379
    30  H    0.233777
    31  H    0.234069
    32  H    0.235929
    33  H    0.134647
    34  H    0.096629
    35  H    0.091882
    36  H    0.123772
    37  H    0.118774
    38  H    0.090625
    39  H    0.107946
    40  H    0.098075
    41  H    0.107426
    42  H    0.115135
    43  H    0.123495
    44  H    0.095256
    45  H    0.110913
 Sum of Mulliken charges =   0.00000

 Dipole moment (field-independent basis, Debye):
    X=              4.2047    Y=              1.5039    Z=             -0.3591  Tot=              4.4800
 Quadrupole moment (field-independent basis, Debye-Ang):
   XX=           -137.6501   YY=           -120.9428   ZZ=           -123.4673
   XY=              5.3467   XZ=              4.2835   YZ=             -3.4506

 Normal termination of Gaussian 16 at Tue Oct 19 02:05:01 2021.
