 Gaussian 16, Revision C.01,
 Gaussian 16:  ES64L-G16RevC.01  3-Jul-2019

 ----------------------------------------------------------------------
 #P PBE1PBE/Def2TZVP SP SCF=(YQC,MaxCycle=900) int=(Grid=Superfinegrid)
  EmpiricalDispersion=GD3 SCRF=(PCM,Solvent=Dichloromethane)
 ----------------------------------------------------------------------

 -------------------------
 _1_alde1_2_ami1_2_opt_dcm
 -------------------------
 Symbolic Z-matrix:
 Charge =  0 Multiplicity = 1

                         Standard orientation:
 ---------------------------------------------------------------------
 Center     Atomic      Atomic             Coordinates (Angstroms)
 Number     Number       Type             X           Y           Z
 ---------------------------------------------------------------------
      1          6           0        0.013202   -0.162008    2.237961
      2          6           0       -0.004966   -0.266537    3.704936
      3          6           0        1.211755    0.047341    1.562934
      4          6           0        1.229416    0.146686    0.173341
      5          1           0        2.144105    0.138658    2.098874
      6          6           0        0.033189    0.031273   -0.531471
      7          6           0       -1.173985   -0.178893    0.131584
      8          1           0        0.042424    0.106628   -1.610832
      9          6           0       -1.175622   -0.273437    1.520610
     10          6           0       -2.413879   -0.299245   -0.622994
     11          1           0       -2.105109   -0.437352    2.043207
     12          6           0        2.479690    0.370374   -0.538746
     13          8           0       -0.986213   -0.445301    4.378173
     14          6           0        4.802952    0.657011   -0.637620
     15          6           0        5.742259   -0.537244   -0.285975
     16          7           0        3.580954    0.448411    0.069384
     17          1           0        4.653643    0.686906   -1.731328
     18          6           0        5.381330    2.024306   -0.205448
     19          7           0        6.052560   -0.608542    1.127949
     20          1           0        6.682521   -0.404017   -0.830981
     21          6           0        5.137842   -1.890222   -0.714339
     22          1           0        5.449354    2.036606    0.887357
     23          6           0        4.427377    3.141447   -0.628781
     24          6           0        6.762322    2.277475   -0.805254
     25          1           0        4.208688   -2.035420   -0.151763
     26          6           0        6.108867   -3.012290   -0.350120
     27          6           0        4.829254   -1.951752   -2.208716
     28          1           0        7.510072    1.598609   -0.403953
     29          1           0        7.077903    3.294124   -0.580450
     30          1           0        6.732917    2.160666   -1.886818
     31          1           0        4.807165    4.105410   -0.297934
     32          1           0        3.441551    2.994515   -0.193177
     33          1           0        4.328008    3.165609   -1.712620
     34          1           0        4.556557   -2.968166   -2.484601
     35          1           0        5.703023   -1.663069   -2.789897
     36          1           0        4.001095   -1.302110   -2.478661
     37          1           0        5.652444   -3.982092   -0.533529
     38          1           0        6.384386   -2.940373    0.697005
     39          1           0        7.012203   -2.935231   -0.951095
     40          6           0       -5.667210    0.604368   -0.296456
     41          6           0       -4.738599   -0.552014   -0.782101
     42          7           0       -5.990737    0.512195    1.112236
     43          1           0       -6.603453    0.548232   -0.861845
     44          6           0       -5.043142    1.990875   -0.556901
     45          7           0       -3.523270   -0.446795   -0.044525
     46          1           0       -4.579310   -0.452135   -1.870493
     47          6           0       -5.338415   -1.952983   -0.520814
     48          1           0       -4.117093    2.056210    0.025193
     49          6           0       -6.003569    3.073706   -0.067358
     50          6           0       -4.722571    2.226589   -2.031382
     51          1           0       -5.417418   -2.093447    0.562070
     52          6           0       -4.392840   -3.024109   -1.064626
     53          6           0       -6.715820   -2.114998   -1.159060
     54          1           0       -3.901143    1.602408   -2.372669
     55          1           0       -4.434840    3.264808   -2.182211
     56          1           0       -5.595716    2.021446   -2.647981
     57          1           0       -6.286104    2.881338    0.962523
     58          1           0       -6.904118    3.079263   -0.677578
     59          1           0       -5.534960    4.052830   -0.132475
     60          1           0       -7.046076   -3.146769   -1.059045
     61          1           0       -6.673713   -1.871464   -2.218968
     62          1           0       -7.459354   -1.478506   -0.686724
     63          1           0       -3.411819   -2.944513   -0.601659
     64          1           0       -4.278475   -2.918956   -2.142226
     65          1           0       -4.789128   -4.015577   -0.857235
     66          1           0        0.996947   -0.164581    4.168546
     67          1           0       -5.130093    0.479635    1.648683
     68          1           0       -6.512727   -0.333035    1.309241
     69          1           0        6.568565    0.210642    1.425685
     70          1           0        5.184943   -0.639669    1.653067
     71          1           0       -2.315160   -0.255722   -1.719769
     72          1           0        2.397428    0.468878   -1.632861
 ---------------------------------------------------------------------

 SCF Done:  E(RPBE1PBE) =  -1271.16884663     a.u. after    6 cycles
 SCF Done:  E(RPBE1PBE) =  -1271.16887253     A.U. after    9 cycles

 The electronic state is 1-A.
 Alpha  occ. eigenvalues --  -19.21373 -14.38280 -14.38187 -14.35413 -14.35296
 Alpha  occ. eigenvalues --  -10.31800 -10.27194 -10.27101 -10.25396 -10.25302
 Alpha  occ. eigenvalues --  -10.25247 -10.25134 -10.25065 -10.24773 -10.24748
 Alpha  occ. eigenvalues --  -10.24691 -10.24531 -10.24464 -10.22658 -10.22569
 Alpha  occ. eigenvalues --  -10.21852 -10.21791 -10.20694 -10.20628 -10.20328
 Alpha  occ. eigenvalues --  -10.20325 -10.20283 -10.20258 -10.19350 -10.19290
 Alpha  occ. eigenvalues --   -1.09156  -0.97398  -0.97210  -0.91979  -0.91298
 Alpha  occ. eigenvalues --   -0.90420  -0.83572  -0.82999  -0.81432  -0.81174
 Alpha  occ. eigenvalues --   -0.81056  -0.80297  -0.73835  -0.73089  -0.70647
 Alpha  occ. eigenvalues --   -0.70585  -0.69810  -0.69757  -0.69038  -0.68103
 Alpha  occ. eigenvalues --   -0.66490  -0.64734  -0.62783  -0.59358  -0.58461
 Alpha  occ. eigenvalues --   -0.58197  -0.58056  -0.56740  -0.56328  -0.54215
 Alpha  occ. eigenvalues --   -0.52780  -0.51396  -0.50298  -0.50072  -0.49600
 Alpha  occ. eigenvalues --   -0.49009  -0.48395  -0.47964  -0.47691  -0.47318
 Alpha  occ. eigenvalues --   -0.46819  -0.46667  -0.45360  -0.45049  -0.44727
 Alpha  occ. eigenvalues --   -0.44303  -0.44129  -0.43943  -0.42076  -0.41902
 Alpha  occ. eigenvalues --   -0.41300  -0.41047  -0.40887  -0.39903  -0.39799
 Alpha  occ. eigenvalues --   -0.39492  -0.39392  -0.39109  -0.39078  -0.38938
 Alpha  occ. eigenvalues --   -0.38720  -0.38163  -0.37770  -0.37582  -0.36546
 Alpha  occ. eigenvalues --   -0.35578  -0.34741  -0.34669  -0.34333  -0.34237
 Alpha  occ. eigenvalues --   -0.33943  -0.33879  -0.33732  -0.32736  -0.32553
 Alpha  occ. eigenvalues --   -0.31734  -0.31248  -0.28678  -0.28281  -0.27533
 Alpha  occ. eigenvalues --   -0.27345  -0.26776  -0.24633  -0.24370
 Alpha virt. eigenvalues --   -0.07686  -0.07049  -0.02794   0.04108   0.04277
 Alpha virt. eigenvalues --    0.04538   0.04673   0.05033   0.05593   0.06174
 Alpha virt. eigenvalues --    0.06359   0.06892   0.07066   0.07628   0.08370

 Mulliken charges:
               1
     1  C    0.274229
     2  C    0.065001
     3  C   -0.308157
     4  C    0.363853
     5  H    0.141546
     6  C   -0.363513
     7  C    0.405279
     8  H    0.134302
     9  C   -0.339555
    10  C   -0.214053
    11  H    0.138239
    12  C   -0.206691
    13  O   -0.323127
    14  C    0.035244
    15  C    0.005865
    16  N   -0.211237
    17  H    0.080783
    18  C   -0.052876
    19  N   -0.538175
    20  H    0.102316
    21  C   -0.003762
    22  H    0.077269
    23  C   -0.393185
    24  C   -0.400488
    25  H    0.081957
    26  C   -0.367202
    27  C   -0.415273
    28  H    0.135942
    29  H    0.132485
    30  H    0.124886
    31  H    0.130130
    32  H    0.133100
    33  H    0.113781
    34  H    0.129889
    35  H    0.122056
    36  H    0.124744
    37  H    0.121616
    38  H    0.128506
    39  H    0.105601
    40  C    0.006023
    41  C    0.037384
    42  N   -0.538922
    43  H    0.101534
    44  C   -0.005449
    45  N   -0.205041
    46  H    0.080085
    47  C   -0.053432
    48  H    0.083066
    49  C   -0.366790
    50  C   -0.415429
    51  H    0.079106
    52  C   -0.394161
    53  C   -0.400505
    54  H    0.124597
    55  H    0.129630
    56  H    0.121949
    57  H    0.128855
    58  H    0.105264
    59  H    0.121140
    60  H    0.132320
    61  H    0.124300
    62  H    0.136137
    63  H    0.133745
    64  H    0.113290
    65  H    0.129873
    66  H    0.098167
    67  H    0.233101
    68  H    0.227817
    69  H    0.227995
    70  H    0.231016
    71  H    0.100288
    72  H    0.101718
 Sum of Mulliken charges =   0.00000

 Dipole moment (field-independent basis, Debye):
    X=              2.1929    Y=              0.6924    Z=             -5.8950  Tot=              6.3277
 Quadrupole moment (field-independent basis, Debye-Ang):
   XX=           -197.5462   YY=           -192.7311   ZZ=           -198.7495
   XY=             22.6445   XZ=             10.9440   YZ=              1.9899

 Normal termination of Gaussian 16 at Mon Oct 18 09:58:05 2021.
