 Gaussian 16, Revision C.01,
 Gaussian 16:  ES64L-G16RevC.01  3-Jul-2019

 ---------------------------------------------------------------------
 #P MP2/aug-cc-pVDZ SP SCF=(YQC,MaxCycle=900) int=(Grid=Superfinegrid)
 ---------------------------------------------------------------------

 -----------------------------
 _1_alde1_2_ami3_2_opt_gas_mp2
 -----------------------------
 Symbolic Z-matrix:
 Charge =  0 Multiplicity = 1

                         Standard orientation:
 ---------------------------------------------------------------------
 Center     Atomic      Atomic             Coordinates (Angstroms)
 Number     Number       Type             X           Y           Z
 ---------------------------------------------------------------------
      1          6           0        0.019322    1.729755   -0.012799
      2          6           0       -0.000507    3.200313   -0.016787
      3          6           0       -1.177703    1.019852    0.051915
      4          6           0       -1.173805   -0.372205    0.054852
      5          1           0       -2.116347    1.549106    0.099985
      6          6           0        0.043953   -1.046461   -0.007055
      7          6           0        1.248510   -0.349347   -0.071169
      8          1           0        0.054849   -2.128208   -0.005105
      9          6           0        1.228351    1.043447   -0.074012
     10          6           0        2.512380   -1.072118   -0.134703
     11          1           0        2.168244    1.571225   -0.124875
     12          6           0       -2.424512   -1.118054    0.121166
     13          8           0       -0.989247    3.884721    0.030415
     14          6           0       -4.753900   -1.271289    0.247736
     15          6           0       -5.560097   -0.971673   -1.035260
     16          7           0       -3.535149   -0.529686    0.190644
     17          1           0       -4.572834   -2.361936    0.280029
     18          6           0       -5.526831   -0.849009    1.504068
     19          7           0       -6.637393   -1.939300   -1.154801
     20          1           0       -4.892807   -1.147518   -1.890101
     21          6           0       -5.997217    0.501263   -1.056107
     22          6           0       -5.931626    0.619146    1.437200
     23          6           0       -6.778191    0.882817    0.197436
     24          6           0        5.638410   -0.899581    1.036786
     25          6           0        4.842806   -1.194753   -0.253717
     26          7           0        6.720902   -1.860625    1.156377
     27          1           0        4.966468   -1.085705    1.885713
     28          6           0        6.066203    0.576226    1.072381
     29          7           0        3.614678   -0.466174   -0.199105
     30          1           0        4.672367   -2.286449   -0.295332
     31          6           0        5.620319   -0.756997   -1.501723
     32          6           0        6.851711    0.973061   -0.173573
     33          6           0        6.015131    0.713174   -1.421018
     34          1           0        1.008891    3.656002   -0.069381
     35          1           0        7.197712   -1.735917    2.042805
     36          1           0        7.402736   -1.718900    0.419356
     37          1           0       -7.314732   -1.805874   -0.412010
     38          1           0       -7.121450   -1.808756   -2.036591
     39          1           0       -7.706827    0.307196    0.255062
     40          1           0       -7.051286    1.938844    0.149069
     41          1           0       -5.030065    1.230865    1.392810
     42          1           0       -6.487228    0.888492    2.338147
     43          1           0       -6.410427   -1.482808    1.602442
     44          1           0       -4.893204   -1.021904    2.376859
     45          1           0       -5.100122    1.118089   -1.118980
     46          1           0       -6.601879    0.683381   -1.949289
     47          1           0       -2.333697   -2.216277    0.107095
     48          1           0        2.440656   -2.171347   -0.123361
     49          1           0        5.108666    1.318047   -1.378653
     50          1           0        6.574835    0.993356   -2.316059
     51          1           0        6.508790   -1.383467   -1.599893
     52          1           0        4.993168   -0.926859   -2.379766
     53          1           0        6.664711    0.754907    1.970332
     54          1           0        5.164305    1.186125    1.136264
     55          1           0        7.783891    0.403372   -0.229973
     56          1           0        7.119094    2.030250   -0.115422
 ---------------------------------------------------------------------

 SCF Done:  E(RHF) =  -1105.47888040     a.u. after    7 cycles
 SCF Done:  E(RHF) =  -1105.47890050     A.U. after   12 cycles
 E2 =    -0.3854982418D+01 EUMP2 =    -0.11093338829212D+04

 The electronic state is 1-A.
 Alpha  occ. eigenvalues --  -20.56725 -15.56734 -15.56408 -15.54929 -15.54533
 Alpha  occ. eigenvalues --  -11.34236 -11.29543 -11.29158 -11.27180 -11.26734
 Alpha  occ. eigenvalues --  -11.26145 -11.26128 -11.25963 -11.25873 -11.25785
 Alpha  occ. eigenvalues --  -11.25707 -11.25469 -11.25258 -11.22533 -11.22219
 Alpha  occ. eigenvalues --  -11.22078 -11.21889 -11.21815 -11.21619 -11.21258
 Alpha  occ. eigenvalues --  -11.21206  -1.40251  -1.26207  -1.25792  -1.19809
 Alpha  occ. eigenvalues --   -1.19203  -1.17986  -1.09966  -1.09334  -1.06998
 Alpha  occ. eigenvalues --   -1.06194  -1.00820  -1.00069  -0.98334  -0.97718
 Alpha  occ. eigenvalues --   -0.90928  -0.89972  -0.87431  -0.83587  -0.83158
 Alpha  occ. eigenvalues --   -0.82705  -0.81486  -0.78777  -0.77199  -0.73909
 Alpha  occ. eigenvalues --   -0.73582  -0.71556  -0.69176  -0.68700  -0.68256
 Alpha  occ. eigenvalues --   -0.66967  -0.65719  -0.64726  -0.64542  -0.63134
 Alpha  occ. eigenvalues --   -0.61689  -0.61510  -0.61195  -0.61163  -0.60690
 Alpha  occ. eigenvalues --   -0.60251  -0.59401  -0.56704  -0.55598  -0.55146
 Alpha  occ. eigenvalues --   -0.54468  -0.54131  -0.53800  -0.53595  -0.52859
 Alpha  occ. eigenvalues --   -0.52322  -0.52195  -0.51839  -0.51160  -0.50472
 Alpha  occ. eigenvalues --   -0.49660  -0.47437  -0.47184  -0.46829  -0.44869
 Alpha  occ. eigenvalues --   -0.44517  -0.44013  -0.42894  -0.42499  -0.41164
 Alpha  occ. eigenvalues --   -0.40591  -0.40119  -0.38472  -0.38068  -0.35062
 Alpha  occ. eigenvalues --   -0.32646
 Alpha virt. eigenvalues --    0.02885   0.03275   0.03643   0.03875   0.03947
 Alpha virt. eigenvalues --    0.04364   0.04624   0.04983   0.05149   0.05232
 Alpha virt. eigenvalues --    0.05405   0.05579   0.06065   0.06245   0.06400

 Mulliken charges:
               1
     1  C    0.450206
     2  C    1.145530
     3  C   -0.200162
     4  C    0.393703
     5  H   -0.709690
     6  C    0.658414
     7  C    0.599346
     8  H   -0.681554
     9  C    0.365799
    10  C    0.067175
    11  H   -0.724056
    12  C    0.302690
    13  O   -0.774689
    14  C    0.313014
    15  C    0.278531
    16  N   -0.161469
    17  H   -0.284251
    18  C    0.626340
    19  N   -0.384554
    20  H   -0.302428
    21  C    0.695070
    22  C    0.614222
    23  C    0.345535
    24  C    0.277543
    25  C    0.315005
    26  N   -0.379577
    27  H   -0.302185
    28  C    0.682983
    29  N   -0.141938
    30  H   -0.275042
    31  C    0.634200
    32  C    0.352352
    33  C    0.598917
    34  H   -0.356296
    35  H   -0.006742
    36  H    0.044300
    37  H    0.044930
    38  H   -0.006325
    39  H   -0.168927
    40  H   -0.172240
    41  H   -0.094359
    42  H   -0.211840
    43  H   -0.158281
    44  H   -0.228012
    45  H   -0.056110
    46  H   -0.214875
    47  H   -0.763241
    48  H   -0.766619
    49  H   -0.087016
    50  H   -0.210073
    51  H   -0.155268
    52  H   -0.226301
    53  H   -0.212342
    54  H   -0.048936
    55  H   -0.165324
    56  H   -0.175086
 Sum of Mulliken charges =   0.00000

 Dipole moment (field-independent basis, Debye):
    X=              2.0333    Y=             -2.4320    Z=             -0.0763  Tot=              3.1709
 Quadrupole moment (field-independent basis, Debye-Ang):
   XX=           -140.4718   YY=           -176.7638   ZZ=           -158.3560
   XY=              8.2716   XZ=              1.7693   YZ=             -0.4235

 Normal termination of Gaussian 16 at Mon Nov  8 13:08:17 2021.
