 Gaussian 16, Revision C.01,
 Gaussian 16:  ES64L-G16RevC.01  3-Jul-2019

 ---------------------------------------------------------------------
 #P MP2/aug-cc-pVDZ SP SCF=(YQC,MaxCycle=900) int=(Grid=Superfinegrid)
 ---------------------------------------------------------------------

 -----------------------------
 _1_alde1_3_ami3_1_opt_gas_mp2
 -----------------------------
 Symbolic Z-matrix:
 Charge =  0 Multiplicity = 1

                         Standard orientation:
 ---------------------------------------------------------------------
 Center     Atomic      Atomic             Coordinates (Angstroms)
 Number     Number       Type             X           Y           Z
 ---------------------------------------------------------------------
      1          6           0        1.329728   -0.402172   -1.350807
      2          6           0        2.784498   -0.802552   -1.307453
      3          6           0        0.320392   -1.349581   -1.347463
      4          6           0       -1.013010   -0.956269   -1.348170
      5          1           0        0.575086   -2.397501   -1.359316
      6          6           0       -1.328735    0.391688   -1.347591
      7          6           0       -0.321473    1.349789   -1.350650
      8          1           0       -2.363578    0.695258   -1.359988
      9          6           0        1.003725    0.949234   -1.350178
     10          6           0       -0.701746    2.809918   -1.306139
     11          1           0        1.784097    1.693665   -1.364351
     12          6           0       -2.087752   -2.015242   -1.301752
     13          6           0        4.143180   -1.644057    0.377846
     14          6           0        3.362151   -2.799134   -0.273011
     15          7           0        3.357598   -0.472596    0.019803
     16          7           0        2.968918   -2.243332   -1.559525
     17          6           0       -4.107376   -1.508153   -0.275463
     18          6           0       -3.501088   -2.758823    0.384880
     19          7           0       -3.426525   -1.454979   -1.560768
     20          7           0       -2.092849   -2.668754    0.029461
     21          6           0        0.744947    4.305315   -0.276921
     22          6           0       -0.642531    4.405686    0.380880
     23          7           0        0.452898    3.689565   -1.563024
     24          7           0       -1.268334    3.141408    0.023730
     25          1           0        0.202680    4.405643   -2.237035
     26          1           0       -1.482463    2.994793   -2.057059
     27          1           0       -0.989282    2.424564    0.689572
     28          1           0        3.333433   -0.221502   -2.061613
     29          1           0        2.598769   -0.355949    0.687387
     30          1           0       -3.920929   -2.030343   -2.234721
     31          1           0       -1.612744   -2.066921    0.694666
     32          1           0       -1.857336   -2.785631   -2.050832
     33          6           0        4.185057   -4.070768   -0.254809
     34          1           0        3.711153   -2.386853   -2.236406
     35          6           0       -5.620308   -1.582083   -0.260083
     36          6           0        1.437542    5.652440   -0.259867
     37          1           0        2.437502   -2.960556    0.300608
     38          6           0        4.496495   -4.395955    1.209783
     39          1           0        5.113434   -3.921146   -0.812204
     40          1           0        3.638316   -4.894326   -0.717028
     41          6           0        5.192032   -3.235543    1.928021
     42          1           0        5.131229   -5.282624    1.262034
     43          1           0        3.560621   -4.625750    1.724574
     44          6           0        4.387897   -1.933899    1.844680
     45          1           0        5.349081   -3.503341    2.974773
     46          1           0        6.173170   -3.071602    1.476103
     47          1           0        4.938298   -1.118190    2.316344
     48          1           0        3.432872   -2.048186    2.364090
     49          1           0        5.111211   -1.541376   -0.135233
     50          1           0       -3.784530   -0.623605    0.293237
     51          6           0       -6.060861   -1.678719    1.204330
     52          1           0       -5.955345   -2.463959   -0.812367
     53          1           0       -6.057383   -0.699043   -0.728920
     54          6           0       -5.407462   -2.857837    1.931464
     55          1           0       -7.146506   -1.782744    1.254976
     56          1           0       -5.791349   -0.750604    1.713573
     57          6           0       -3.877773   -2.815671    1.851224
     58          1           0       -5.756822   -3.791756    1.484791
     59          1           0       -5.720224   -2.852749    2.977527
     60          1           0       -3.896505   -3.651209   -0.123340
     61          1           0       -3.449353   -3.698014    2.329626
     62          1           0       -3.498870   -1.928880    2.365881
     63          1           0        1.348474    3.583153    0.292629
     64          6           0        1.571476    6.081831    1.204950
     65          1           0        0.842418    6.383785   -0.813007
     66          1           0        2.421580    5.589637   -0.727029
     67          6           0        0.222455    6.105299    1.929840
     68          1           0        2.024250    7.073940    1.256742
     69          1           0        2.239691    5.384019    1.715117
     70          6           0       -0.505936    4.759648    1.847585
     71          1           0       -0.410752    6.875142    1.482421
     72          1           0        0.381480    6.373112    2.976257
     73          1           0       -1.485038    4.829620    2.324248
     74          1           0        0.071529    3.987723    2.362830
     75          1           0       -1.216454    5.194789   -0.128037
 ---------------------------------------------------------------------

 SCF Done:  E(RHF) =  -1373.73996824     a.u. after    7 cycles
 SCF Done:  E(RHF) =  -1373.73999693     A.U. after   10 cycles
 E2 =    -0.4925909000D+01 EUMP2 =    -0.13786659059303D+04

 The electronic state is 1-A.
 Alpha  occ. eigenvalues --  -15.54253 -15.54251 -15.54250 -15.54227 -15.54225
 Alpha  occ. eigenvalues --  -15.54224 -11.28008 -11.28008 -11.28008 -11.24459
 Alpha  occ. eigenvalues --  -11.24458 -11.24457 -11.24397 -11.24396 -11.24395
 Alpha  occ. eigenvalues --  -11.22515 -11.22514 -11.22512 -11.22455 -11.22454
 Alpha  occ. eigenvalues --  -11.22452 -11.22332 -11.22330 -11.22329 -11.22329
 Alpha  occ. eigenvalues --  -11.22326 -11.22325 -11.22325 -11.22322 -11.22321
 Alpha  occ. eigenvalues --  -11.21106 -11.21105 -11.21095  -1.27155  -1.26985
 Alpha  occ. eigenvalues --   -1.26984  -1.14980  -1.14096  -1.14095  -1.14047
 Alpha  occ. eigenvalues --   -1.11177  -1.11176  -1.10373  -1.03312  -1.03309
 Alpha  occ. eigenvalues --   -0.99881  -0.99879  -0.99875  -0.98388  -0.96593
 Alpha  occ. eigenvalues --   -0.96591  -0.86747  -0.86746  -0.85829  -0.82425
 Alpha  occ. eigenvalues --   -0.82423  -0.81865  -0.81609  -0.81577  -0.81575
 Alpha  occ. eigenvalues --   -0.78046  -0.78044  -0.77847  -0.75678  -0.75676
 Alpha  occ. eigenvalues --   -0.68759  -0.67875  -0.66565  -0.66562  -0.65603
 Alpha  occ. eigenvalues --   -0.64711  -0.64707  -0.62980  -0.62745  -0.62744
 Alpha  occ. eigenvalues --   -0.62445  -0.61757  -0.61756  -0.60723  -0.60142
 Alpha  occ. eigenvalues --   -0.59458  -0.59455  -0.58021  -0.58019  -0.57680
 Alpha  occ. eigenvalues --   -0.55123  -0.55122  -0.54883  -0.54609  -0.54607
 Alpha  occ. eigenvalues --   -0.54266  -0.53073  -0.52719  -0.52714  -0.50705
 Alpha  occ. eigenvalues --   -0.50074  -0.50068  -0.49625  -0.49623  -0.49260
 Alpha  occ. eigenvalues --   -0.48841  -0.48826  -0.48826  -0.46883  -0.46691
 Alpha  occ. eigenvalues --   -0.46690  -0.46522  -0.46520  -0.46167  -0.44956
 Alpha  occ. eigenvalues --   -0.44955  -0.44896  -0.44667  -0.44667  -0.44362
 Alpha  occ. eigenvalues --   -0.37486  -0.37485  -0.37043  -0.36869  -0.36199
 Alpha  occ. eigenvalues --   -0.36197  -0.30963  -0.30958
 Alpha virt. eigenvalues --    0.02975   0.03421   0.03423   0.03669   0.04142
 Alpha virt. eigenvalues --    0.04143   0.04380   0.04382   0.04421   0.05127
 Alpha virt. eigenvalues --    0.05707   0.05710   0.05886   0.05922   0.05923

 Mulliken charges:
               1
     1  C   -0.182678
     2  C    1.140934
     3  C    0.721933
     4  C   -0.182742
     5  H   -0.967518
     6  C    0.722909
     7  C   -0.180666
     8  H   -0.968614
     9  C    0.712526
    10  C    1.143018
    11  H   -0.968851
    12  C    1.141043
    13  C   -0.002141
    14  C    0.049224
    15  N   -0.494647
    16  N   -0.771885
    17  C    0.044934
    18  C   -0.003261
    19  N   -0.772103
    20  N   -0.498148
    21  C    0.046197
    22  C   -0.002503
    23  N   -0.771680
    24  N   -0.496190
    25  H    0.050703
    26  H   -0.294657
    27  H    0.130316
    28  H   -0.293286
    29  H    0.129130
    30  H    0.050415
    31  H    0.130383
    32  H   -0.295484
    33  C    0.774153
    34  H    0.051381
    35  C    0.775692
    36  C    0.775646
    37  H   -0.524858
    38  C    0.419808
    39  H   -0.039746
    40  H   -0.131967
    41  C    0.522124
    42  H   -0.157524
    43  H   -0.098267
    44  C    0.717028
    45  H   -0.148740
    46  H   -0.098586
    47  H   -0.128255
    48  H   -0.040635
    49  H   -0.438035
    50  H   -0.525774
    51  C    0.419460
    52  H   -0.039740
    53  H   -0.132157
    54  C    0.523267
    55  H   -0.157296
    56  H   -0.098991
    57  C    0.716540
    58  H   -0.098571
    59  H   -0.148933
    60  H   -0.436696
    61  H   -0.127922
    62  H   -0.040724
    63  H   -0.525507
    64  C    0.419125
    65  H   -0.039701
    66  H   -0.132442
    67  C    0.522693
    68  H   -0.157436
    69  H   -0.098551
    70  C    0.717118
    71  H   -0.098521
    72  H   -0.148987
    73  H   -0.128270
    74  H   -0.040549
    75  H   -0.437268
 Sum of Mulliken charges =   0.00000

 Dipole moment (field-independent basis, Debye):
    X=              0.0057    Y=              0.0026    Z=              1.9743  Tot=              1.9743
 Quadrupole moment (field-independent basis, Debye-Ang):
   XX=           -191.1740   YY=           -191.2487   ZZ=           -202.5314
   XY=             -0.0196   XZ=              0.0012   YZ=              0.0288

 Normal termination of Gaussian 16 at Fri Nov  5 16:40:52 2021.
