 Gaussian 16, Revision C.01,
 Gaussian 16:  ES64L-G16RevC.01  3-Jul-2019

 ----------------------------------------------------------------------
 #P MP2/aug-cc-pVDZ SP SCF=(YQC,MaxCycle=900) int=(Grid=Superfinegrid)
 SCRF=(PCM,Solvent=Chloroform)
 ----------------------------------------------------------------------

 -----------------------------
 _1_alde1_3_ami3_2_opt_cfm_mp2
 -----------------------------
 Symbolic Z-matrix:
 Charge =  0 Multiplicity = 1

                         Standard orientation:
 ---------------------------------------------------------------------
 Center     Atomic      Atomic             Coordinates (Angstroms)
 Number     Number       Type             X           Y           Z
 ---------------------------------------------------------------------
      1          6           0        0.262562    1.683372   -1.143704
      2          6           0        0.307044    3.114013   -1.504123
      3          6           0       -0.933736    0.971667   -1.068329
      4          6           0       -0.930947   -0.376816   -0.716723
      5          1           0       -1.867743    1.462717   -1.307458
      6          6           0        0.276042   -1.014699   -0.439659
      7          6           0        1.476920   -0.319755   -0.527463
      8          1           0        0.254868   -2.058802   -0.166783
      9          6           0        1.461349    1.027653   -0.888618
     10          6           0        2.736476   -0.995927   -0.250488
     11          1           0        2.402823    1.551738   -0.951844
     12          6           0       -2.190800   -1.102827   -0.642739
     13          6           0       -2.771942    4.274432   -0.735984
     14          6           0       -1.408639    3.954674   -0.094213
     15          7           0       -3.058646    3.288952   -1.773568
     16          1           0       -2.712488    5.299012   -1.143885
     17          6           0       -3.862280    4.225228    0.332160
     18          7           0       -0.383403    4.082419   -1.090066
     19          1           0       -1.456993    2.948871    0.349441
     20          6           0       -1.119119    4.975427    1.012106
     21          6           0       -3.573155    5.219056    1.451805
     22          6           0       -2.210189    4.938180    2.075384
     23          6           0       -3.492309   -3.003905   -0.247417
     24          6           0       -3.694263   -3.503089    1.194726
     25          7           0       -2.237849   -2.320628   -0.316951
     26          1           0       -4.337442   -2.339324   -0.502201
     27          6           0       -3.449307   -4.190766   -1.215234
     28          7           0       -3.845083   -2.345910    2.066863
     29          1           0       -2.815521   -4.120622    1.455650
     30          6           0       -4.956850   -4.359102    1.284935
     31          6           0       -4.717473   -5.028250   -1.112543
     32          6           0       -4.903485   -5.532628    0.314131
     33          6           0        5.062571   -1.083709   -0.032979
     34          6           0        5.746242   -0.389031    1.158388
     35          7           0        3.842579   -0.393781   -0.317146
     36          1           0        4.884608   -2.139225    0.240689
     37          6           0        5.959148   -1.008711   -1.273084
     38          7           0        4.918968   -0.581855    2.341853
     39          1           0        5.867030    0.677058    0.892803
     40          6           0        7.121749   -1.005208    1.410350
     41          6           0        7.322592   -1.631569   -1.002119
     42          6           0        8.001378   -0.928790    0.168187
     43          1           0        3.993355   -0.197708    2.181677
     44          1           0        5.324511   -0.096465    3.134962
     45          1           0       -2.402922    3.406132   -2.540426
     46          1           0       -3.992418    3.438325   -2.142723
     47          1           0       -3.022653   -1.755145    2.000147
     48          1           0       -3.936048   -2.645119    3.031964
     49          1           0        1.087238    3.375893   -2.217308
     50          1           0        2.658868   -2.059718    0.022487
     51          1           0       -5.823576   -6.115701    0.389150
     52          1           0       -4.068916   -6.186197    0.578730
     53          1           0       -4.656847   -5.871241   -1.804024
     54          1           0       -5.579166   -4.420252   -1.397542
     55          1           0       -3.322397   -3.813036   -2.232079
     56          1           0       -2.576453   -4.799609   -0.972638
     57          1           0       -5.069286   -4.722880    2.308925
     58          1           0       -5.816054   -3.724783    1.060121
     59          1           0       -3.092891   -0.520170   -0.884905
     60          1           0        7.943935   -1.556370   -1.896884
     61          1           0        7.198363   -2.690980   -0.766400
     62          1           0        5.462561   -1.521418   -2.099693
     63          1           0        6.074026    0.040782   -1.550181
     64          1           0        8.969476   -1.390156    0.372677
     65          1           0        8.175813    0.118340   -0.090206
     66          1           0        7.599833   -0.483318    2.242550
     67          1           0        6.980378   -2.046130    1.706590
     68          1           0       -1.994674    5.677213    2.849680
     69          1           0       -2.223280    3.952394    2.546201
     70          1           0       -4.353483    5.154438    2.212654
     71          1           0       -3.582941    6.233481    1.046000
     72          1           0       -3.911629    3.211077    0.733511
     73          1           0       -4.827993    4.451323   -0.126887
     74          1           0       -1.059463    5.968519    0.563735
     75          1           0       -0.147836    4.749151    1.456299
 ---------------------------------------------------------------------

 SCF Done:  E(RHF) =  -1373.75831324     a.u. after    7 cycles
 SCF Done:  E(RHF) =  -1373.75835183     A.U. after   12 cycles
 E2 =    -0.4903835320D+01 EUMP2 =    -0.13786621871458D+04

 The electronic state is 1-A.
 Alpha  occ. eigenvalues --  -15.56411 -15.56190 -15.56111 -15.54722 -15.54348
 Alpha  occ. eigenvalues --  -15.54340 -11.28699 -11.28644 -11.28604 -11.25455
 Alpha  occ. eigenvalues --  -11.25435 -11.25260 -11.25244 -11.25221 -11.25205
 Alpha  occ. eigenvalues --  -11.25128 -11.25125 -11.25118 -11.25068 -11.24961
 Alpha  occ. eigenvalues --  -11.24836 -11.21920 -11.21849 -11.21804 -11.21804
 Alpha  occ. eigenvalues --  -11.21776 -11.21761 -11.21757 -11.21715 -11.21708
 Alpha  occ. eigenvalues --  -11.21693 -11.21613 -11.21607  -1.25699  -1.25403
 Alpha  occ. eigenvalues --   -1.25200  -1.19043  -1.18574  -1.18369  -1.16620
 Alpha  occ. eigenvalues --   -1.10138  -1.10072  -1.09744  -1.05892  -1.05623
 Alpha  occ. eigenvalues --   -1.00696  -1.00036  -0.99702  -0.97895  -0.97595
 Alpha  occ. eigenvalues --   -0.97392  -0.89149  -0.88964  -0.87275  -0.83892
 Alpha  occ. eigenvalues --   -0.82994  -0.82288  -0.81826  -0.81431  -0.79964
 Alpha  occ. eigenvalues --   -0.76688  -0.76162  -0.75969  -0.74959  -0.73971
 Alpha  occ. eigenvalues --   -0.70021  -0.69034  -0.67100  -0.66455  -0.66098
 Alpha  occ. eigenvalues --   -0.65381  -0.65249  -0.64858  -0.64389  -0.64255
 Alpha  occ. eigenvalues --   -0.63995  -0.62239  -0.61838  -0.61590  -0.61437
 Alpha  occ. eigenvalues --   -0.61211  -0.60726  -0.59628  -0.59234  -0.59070
 Alpha  occ. eigenvalues --   -0.55756  -0.55554  -0.55449  -0.54572  -0.53381
 Alpha  occ. eigenvalues --   -0.53080  -0.52993  -0.52946  -0.52724  -0.52713
 Alpha  occ. eigenvalues --   -0.52087  -0.51369  -0.50507  -0.50129  -0.49883
 Alpha  occ. eigenvalues --   -0.49008  -0.48809  -0.48660  -0.47129  -0.46481
 Alpha  occ. eigenvalues --   -0.46440  -0.46247  -0.46215  -0.45337  -0.43832
 Alpha  occ. eigenvalues --   -0.43668  -0.43513  -0.42611  -0.42189  -0.41099
 Alpha  occ. eigenvalues --   -0.40561  -0.40368  -0.39426  -0.38842  -0.38693
 Alpha  occ. eigenvalues --   -0.38388  -0.33063  -0.32179
 Alpha virt. eigenvalues --    0.03261   0.03603   0.03691   0.03767   0.04141
 Alpha virt. eigenvalues --    0.04249   0.04449   0.04528   0.04672   0.05170
 Alpha virt. eigenvalues --    0.05483   0.05606   0.05747   0.05968   0.06003

 Mulliken charges:
               1
     1  C    0.353786
     2  C    0.290440
     3  C    1.154731
     4  C    0.107534
     5  H   -0.636927
     6  C    0.726250
     7  C    0.850752
     8  H   -0.855822
     9  C   -0.368831
    10  C    0.078644
    11  H   -0.838806
    12  C    0.574666
    13  C    0.230905
    14  C   -0.195387
    15  N   -0.441147
    16  H   -0.223071
    17  C    0.569427
    18  N   -0.387416
    19  H   -0.331640
    20  C    0.658784
    21  C    0.367230
    22  C    0.516545
    23  C   -0.589009
    24  C    0.585858
    25  N   -0.289182
    26  H   -0.326467
    27  C    0.848922
    28  N   -0.387353
    29  H   -0.193780
    30  C    0.638306
    31  C    0.586068
    32  C    0.485734
    33  C   -0.549035
    34  C    0.569859
    35  N   -0.241489
    36  H   -0.310979
    37  C    0.798568
    38  N   -0.404062
    39  H   -0.199102
    40  C    0.633692
    41  C    0.589557
    42  C    0.482929
    43  H   -0.010124
    44  H   -0.019111
    45  H    0.081641
    46  H   -0.022502
    47  H   -0.026699
    48  H   -0.018855
    49  H   -0.413848
    50  H   -0.679361
    51  H   -0.153470
    52  H   -0.107842
    53  H   -0.125160
    54  H   -0.103345
    55  H   -0.216227
    56  H   -0.134933
    57  H   -0.148558
    58  H   -0.031687
    59  H   -0.831055
    60  H   -0.122838
    61  H   -0.110357
    62  H   -0.226202
    63  H   -0.134522
    64  H   -0.155224
    65  H   -0.103928
    66  H   -0.149742
    67  H   -0.023514
    68  H   -0.150071
    69  H   -0.085328
    70  H   -0.147208
    71  H   -0.101120
    72  H   -0.044031
    73  H   -0.186971
    74  H   -0.075760
    75  H   -0.151733
 Sum of Mulliken charges =   0.00000

 Dipole moment (field-independent basis, Debye):
    X=             -0.9117    Y=             -0.2085    Z=             -0.0581  Tot=              0.9371
 Quadrupole moment (field-independent basis, Debye-Ang):
   XX=           -193.5206   YY=           -202.6660   ZZ=           -200.9212
   XY=             -3.0417   XZ=              4.1059   YZ=              1.4950

 Normal termination of Gaussian 16 at Sun Nov  7 06:32:41 2021.
