 Gaussian 16, Revision C.01,
 Gaussian 16:  ES64L-G16RevC.01  3-Jul-2019

 ---------------------------------------------------------------------
 #P MP2/aug-cc-pVDZ SP SCF=(YQC,MaxCycle=900) int=(Grid=Superfinegrid)
 ---------------------------------------------------------------------

 -----------------------------
 _1_alde1_2_ami3_1_opt_gas_mp2
 -----------------------------
 Symbolic Z-matrix:
 Charge =  0 Multiplicity = 1

                         Standard orientation:
 ---------------------------------------------------------------------
 Center     Atomic      Atomic             Coordinates (Angstroms)
 Number     Number       Type             X           Y           Z
 ---------------------------------------------------------------------
      1          6           0        0.003438    2.081018   -0.102015
      2          6           0        0.045940    3.546434   -0.138313
      3          6           0       -1.100423    1.401081   -0.613485
      4          6           0       -1.139278    0.017448   -0.582902
      5          1           0       -1.932428    1.940080   -1.040572
      6          6           0       -0.064261   -0.683666   -0.047640
      7          6           0        1.042826   -0.016200    0.465393
      8          1           0       -0.089295   -1.763893   -0.030466
      9          6           0        1.071659    1.367197    0.441022
     10          6           0        2.203501   -0.821479    1.001228
     11          1           0        1.917414    1.899767    0.846927
     12          6           0       -2.338673   -0.747540   -1.093761
     13          8           0        0.955695    4.233588    0.251915
     14          6           0       -4.386909    0.126617   -0.489373
     15          6           0       -4.316141   -1.332948   -0.008611
     16          7           0       -3.396714    0.162371   -1.556750
     17          1           0       -4.008362    0.776849    0.312851
     18          6           0       -5.815623    0.510911   -0.812118
     19          7           0       -2.888371   -1.618912   -0.026040
     20          1           0       -4.777388   -1.976610   -0.773029
     21          6           0       -5.070494   -1.494556    1.295280
     22          1           0       -6.204989   -0.135563   -1.602696
     23          6           0       -6.638249    0.331948    0.468191
     24          1           0       -4.627951   -0.852783    2.061509
     25          6           0       -6.524668   -1.084786    1.039007
     26          1           0       -7.687299    0.553810    0.263790
     27          1           0       -6.286243    1.047613    1.214885
     28          1           0       -6.969772   -1.791268    0.334482
     29          1           0       -7.090979   -1.143049    1.970295
     30          6           0        4.300511    0.023374    0.533118
     31          6           0        4.216978   -1.413987   -0.009194
     32          7           0        3.254758    0.047186    1.545763
     33          1           0        3.986870    0.715094   -0.261948
     34          6           0        5.718853    0.352731    0.948660
     35          7           0        2.782861   -1.659379   -0.079102
     36          1           0        4.617444   -2.100600    0.752207
     37          6           0        5.037204   -1.546479   -1.275868
     38          1           0        6.046166   -0.334316    1.733378
     39          6           0        6.606366    0.199047   -0.290932
     40          1           0        4.655693   -0.861532   -2.037601
     41          6           0        6.485661   -1.190338   -0.924245
     42          1           0        6.316500    0.953715   -1.025618
     43          1           0        7.648274    0.381029   -0.020766
     44          1           0        6.871058   -1.936997   -0.225861
     45          1           0        7.101097   -1.229241   -1.824945
     46          1           0        3.613565   -0.336109    2.414494
     47          1           0        1.832008   -1.492903    1.788425
     48          1           0        2.425780   -1.344285   -0.977665
     49          1           0       -3.811180   -0.191166   -2.413541
     50          1           0       -2.476254   -1.359456    0.866580
     51          1           0       -2.015746   -1.390372   -1.925004
     52          1           0       -0.864897    4.003928   -0.576924
     53          1           0       -5.872868    1.544327   -1.157419
     54          1           0       -5.024484   -2.526830    1.645704
     55          1           0        5.783268    1.370348    1.336423
     56          1           0        4.982407   -2.562124   -1.670961
 ---------------------------------------------------------------------

 SCF Done:  E(RHF) =  -1105.48142700     a.u. after    6 cycles
 SCF Done:  E(RHF) =  -1105.48148289     A.U. after   12 cycles
 E2 =    -0.3870675511D+01 EUMP2 =    -0.11093521583970D+04

 The electronic state is 1-A.
 Alpha  occ. eigenvalues --  -20.55490 -15.55689 -15.55231 -15.55094 -15.54940
 Alpha  occ. eigenvalues --  -11.32997 -11.29542 -11.29180 -11.25512 -11.25363
 Alpha  occ. eigenvalues --  -11.24990 -11.24929 -11.24492 -11.24377 -11.24250
 Alpha  occ. eigenvalues --  -11.24224 -11.24075 -11.23567 -11.23209 -11.23159
 Alpha  occ. eigenvalues --  -11.23111 -11.23030 -11.22758 -11.22689 -11.22660
 Alpha  occ. eigenvalues --  -11.22609  -1.38960  -1.28374  -1.27918  -1.17017
 Alpha  occ. eigenvalues --   -1.15314  -1.14863  -1.11940  -1.11312  -1.05224
 Alpha  occ. eigenvalues --   -1.04835  -1.00711  -1.00259  -0.98676  -0.97842
 Alpha  occ. eigenvalues --   -0.89187  -0.88163  -0.86809  -0.83329  -0.82861
 Alpha  occ. eigenvalues --   -0.82446  -0.82031  -0.78768  -0.78681  -0.77419
 Alpha  occ. eigenvalues --   -0.76171  -0.70443  -0.69235  -0.67587  -0.66494
 Alpha  occ. eigenvalues --   -0.66300  -0.65339  -0.63798  -0.63607  -0.62955
 Alpha  occ. eigenvalues --   -0.62687  -0.62470  -0.60856  -0.60325  -0.59858
 Alpha  occ. eigenvalues --   -0.59273  -0.59045  -0.56117  -0.55620  -0.55342
 Alpha  occ. eigenvalues --   -0.55113  -0.54503  -0.54168  -0.54034  -0.51800
 Alpha  occ. eigenvalues --   -0.51502  -0.50787  -0.50398  -0.49712  -0.49541
 Alpha  occ. eigenvalues --   -0.49270  -0.48228  -0.47471  -0.47170  -0.46842
 Alpha  occ. eigenvalues --   -0.45781  -0.45602  -0.45317  -0.45112  -0.41704
 Alpha  occ. eigenvalues --   -0.38655  -0.37953  -0.37555  -0.37197  -0.33888
 Alpha  occ. eigenvalues --   -0.32867
 Alpha virt. eigenvalues --    0.03059   0.03395   0.03470   0.03727   0.03973
 Alpha virt. eigenvalues --    0.04090   0.04524   0.05185   0.05299   0.05641
 Alpha virt. eigenvalues --    0.05863   0.05996   0.06430   0.06612   0.06843

 Mulliken charges:
               1
     1  C   -0.031296
     2  C    1.385135
     3  C    1.035297
     4  C    0.181122
     5  H   -0.842978
     6  C    0.643727
     7  C    0.040949
     8  H   -1.140554
     9  C    0.521660
    10  C    0.560535
    11  H   -0.892915
    12  C    0.673210
    13  O   -0.809983
    14  C    0.247312
    15  C   -0.165689
    16  N   -0.685368
    17  H   -0.405413
    18  C    0.696891
    19  N   -0.530929
    20  H   -0.410579
    21  C    0.712609
    22  H   -0.036506
    23  C    0.401993
    24  H   -0.049801
    25  C    0.438291
    26  H   -0.147214
    27  H   -0.097202
    28  H   -0.100035
    29  H   -0.138360
    30  C    0.244465
    31  C   -0.156982
    32  N   -0.659845
    33  H   -0.413308
    34  C    0.714689
    35  N   -0.545345
    36  H   -0.408034
    37  C    0.685784
    38  H   -0.040901
    39  C    0.404501
    40  H   -0.048618
    41  C    0.444921
    42  H   -0.096350
    43  H   -0.148804
    44  H   -0.099954
    45  H   -0.141443
    46  H    0.058801
    47  H   -0.217021
    48  H    0.154705
    49  H    0.079593
    50  H    0.162698
    51  H   -0.192778
    52  H   -0.341086
    53  H   -0.129041
    54  H   -0.118402
    55  H   -0.126796
    56  H   -0.119361
 Sum of Mulliken charges =   0.00000

 Dipole moment (field-independent basis, Debye):
    X=             -1.9317    Y=             -3.0440    Z=             -0.6360  Tot=              3.6609
 Quadrupole moment (field-independent basis, Debye-Ang):
   XX=           -130.2331   YY=           -182.3735   ZZ=           -153.6978
   XY=             -8.8324   XZ=              1.4110   YZ=             -3.9419

 Normal termination of Gaussian 16 at Mon Nov 15 13:35:58 2021.
