 Gaussian 16, Revision C.01,
 Gaussian 16:  ES64L-G16RevC.01  3-Jul-2019

 ----------------------------------------------------------------------
 #P PBE1PBE/Def2TZVP SP SCF=(YQC,MaxCycle=900) int=(Grid=Superfinegrid)
  EmpiricalDispersion=GD3 SCRF=(PCM,Solvent=Dichloromethane)
 ----------------------------------------------------------------------

 -------------------------
 _1_alde1_3_ami1_2_opt_dcm
 -------------------------
 Symbolic Z-matrix:
 Charge =  0 Multiplicity = 1

                         Standard orientation:
 ---------------------------------------------------------------------
 Center     Atomic      Atomic             Coordinates (Angstroms)
 Number     Number       Type             X           Y           Z
 ---------------------------------------------------------------------
      1          6           0        0.109299    1.555408   -1.350686
      2          6           0       -0.011570    2.994275   -1.658257
      3          6           0        1.357583    1.014216   -1.075232
      4          6           0        1.488846   -0.332407   -0.731466
      5          1           0        2.246025    1.626586   -1.101595
      6          6           0        0.355306   -1.135274   -0.670766
      7          6           0       -0.898839   -0.609912   -0.973843
      8          1           0        0.429424   -2.177090   -0.397565
      9          6           0       -1.015363    0.734023   -1.320518
     10          6           0       -2.097845   -1.431331   -0.912660
     11          1           0       -1.982119    1.149725   -1.571471
     12          6           0        2.800606   -0.892945   -0.438023
     13          6           0       -3.132273    3.719588   -0.592775
     14          6           0       -1.684337    3.544532   -0.073548
     15          7           0       -3.273402    2.944776   -1.825221
     16          1           0       -3.281859    4.795285   -0.783020
     17          6           0       -4.194329    3.264867    0.428588
     18          7           0       -0.778267    3.852788   -1.148272
     19          1           0       -1.569093    2.508413    0.275853
     20          6           0       -1.325614    4.476432    1.106727
     21          1           0       -3.952279    3.729389    1.388915
     22          6           0       -4.217305    1.748637    0.611179
     23          6           0       -5.583798    3.759760    0.020748
     24          1           0       -2.038980    4.289130    1.915307
     25          6           0       -1.376981    5.953085    0.724261
     26          6           0        0.069151    4.117100    1.620368
     27          1           0       -6.300477    3.550382    0.811705
     28          1           0       -5.929544    3.260316   -0.881876
     29          1           0       -5.576641    4.833522   -0.156488
     30          1           0       -5.010200    1.470198    1.301899
     31          1           0       -3.274888    1.386302    1.013276
     32          1           0       -4.398002    1.260563   -0.342286
     33          1           0        0.816595    4.331203    0.859983
     34          1           0        0.127756    3.059863    1.873169
     35          1           0        0.304883    4.696977    2.509906
     36          1           0       -2.398437    6.280350    0.549259
     37          1           0       -0.795559    6.117600   -0.178322
     38          1           0       -0.962378    6.558484    1.527149
     39          6           0        5.126637   -0.765226   -0.208469
     40          6           0        5.663296   -0.021579    1.038149
     41          7           0        3.847457   -0.193692   -0.504558
     42          1           0        5.033529   -1.833103    0.057922
     43          6           0        6.009224   -0.645314   -1.468679
     44          7           0        4.809621   -0.406687    2.158095
     45          1           0        5.592730    1.059252    0.821593
     46          6           0        7.130172   -0.345203    1.380699
     47          1           0        6.993740   -1.060329   -1.234587
     48          6           0        6.165058    0.803790   -1.920934
     49          6           0        5.404444   -1.483706   -2.595249
     50          1           0        7.743239   -0.086684    0.512371
     51          6           0        7.319289   -1.823044    1.711165
     52          6           0        7.613954    0.516949    2.549093
     53          1           0        6.054387   -1.467123   -3.467218
     54          1           0        4.432126   -1.088800   -2.881711
     55          1           0        5.278205   -2.518141   -2.281299
     56          1           0        6.707127    0.843580   -2.863489
     57          1           0        6.713598    1.387924   -1.187067
     58          1           0        5.185002    1.250996   -2.060411
     59          1           0        7.390094    1.567981    2.374942
     60          1           0        8.690593    0.413496    2.665368
     61          1           0        7.145520    0.206871    3.479807
     62          1           0        7.170946   -2.443190    0.831343
     63          1           0        6.600241   -2.119326    2.469509
     64          1           0        8.324988   -1.998003    2.086706
     65          6           0       -3.303237   -3.343854   -0.346343
     66          6           0       -3.696651   -3.422894    1.168185
     67          7           0       -2.085909   -2.603098   -0.447985
     68          1           0       -4.118417   -2.827452   -0.883244
     69          6           0       -3.140238   -4.726956   -1.010442
     70          7           0       -2.553687   -3.446231    2.062734
     71          1           0       -4.255086   -4.352633    1.330446
     72          6           0       -4.605730   -2.237229    1.557463
     73          1           0       -4.086137   -5.263434   -0.870377
     74          6           0       -2.006950   -5.552318   -0.407819
     75          6           0       -2.906479   -4.540615   -2.510105
     76          1           0       -4.123390   -1.314367    1.213134
     77          6           0       -4.765260   -2.163310    3.075599
     78          6           0       -5.992349   -2.343775    0.924858
     79          1           0       -1.968957   -4.015126   -2.679300
     80          1           0       -3.711735   -3.961483   -2.958475
     81          1           0       -2.859078   -5.505207   -3.010274
     82          1           0       -1.832274   -6.438937   -1.014277
     83          1           0       -2.252381   -5.881633    0.599054
     84          1           0       -1.093416   -4.963942   -0.383430
     85          1           0       -6.481078   -3.261102    1.246437
     86          1           0       -5.953759   -2.342264   -0.161497
     87          1           0       -6.605791   -1.501590    1.237639
     88          1           0       -5.255737   -3.061864    3.441640
     89          1           0       -5.370776   -1.301024    3.346029
     90          1           0       -3.798212   -2.083785    3.559899
     91          1           0       -1.985381   -2.620665    1.898171
     92          1           0       -1.968552   -4.247698    1.863587
     93          1           0       -2.621563    3.303315   -2.516483
     94          1           0       -4.208583    3.070016   -2.198166
     95          1           0        5.020896    0.164905    2.967975
     96          1           0        3.837379   -0.244141    1.917975
     97          1           0        0.676853    3.369125   -2.413913
     98          1           0        2.816300   -1.957783   -0.157027
     99          1           0       -3.018415   -0.953439   -1.284256
 ---------------------------------------------------------------------

 SCF Done:  E(RPBE1PBE) =  -1620.83713920     a.u. after    6 cycles
 SCF Done:  E(RPBE1PBE) =  -1620.83716900     A.U. after    8 cycles

 The electronic state is 1-A.
 Alpha  occ. eigenvalues --  -14.37915 -14.37806 -14.37625 -14.36055 -14.35658
 Alpha  occ. eigenvalues --  -14.35009 -10.26782 -10.26756 -10.26668 -10.24758
 Alpha  occ. eigenvalues --  -10.24610 -10.24573 -10.24484 -10.24479 -10.24457
 Alpha  occ. eigenvalues --  -10.24455 -10.24318 -10.24258 -10.23910 -10.23892
 Alpha  occ. eigenvalues --  -10.23483 -10.22377 -10.22350 -10.22327 -10.22323
 Alpha  occ. eigenvalues --  -10.22030 -10.21932 -10.20559 -10.20358 -10.20224
 Alpha  occ. eigenvalues --  -10.20167 -10.20134 -10.20112 -10.20082 -10.20018
 Alpha  occ. eigenvalues --  -10.19862 -10.19726 -10.19624 -10.19390  -0.97142
 Alpha  occ. eigenvalues --   -0.96892  -0.96798  -0.91562  -0.91180  -0.90911
 Alpha  occ. eigenvalues --   -0.89542  -0.83475  -0.83279  -0.82593  -0.81072
 Alpha  occ. eigenvalues --   -0.81032  -0.80824  -0.79718  -0.79667  -0.73847
 Alpha  occ. eigenvalues --   -0.73470  -0.72855  -0.70408  -0.70246  -0.70242
 Alpha  occ. eigenvalues --   -0.70035  -0.69993  -0.69652  -0.67676  -0.67503
 Alpha  occ. eigenvalues --   -0.66574  -0.64429  -0.63716  -0.62564  -0.59941
 Alpha  occ. eigenvalues --   -0.59420  -0.57989  -0.57458  -0.56746  -0.56013
 Alpha  occ. eigenvalues --   -0.55369  -0.54273  -0.52539  -0.52450  -0.52145
 Alpha  occ. eigenvalues --   -0.51811  -0.50861  -0.50499  -0.50347  -0.49859
 Alpha  occ. eigenvalues --   -0.48475  -0.48322  -0.47930  -0.47274  -0.46658
 Alpha  occ. eigenvalues --   -0.46140  -0.45514  -0.45335  -0.45016  -0.44672
 Alpha  occ. eigenvalues --   -0.44598  -0.44094  -0.43630  -0.43452  -0.43148
 Alpha  occ. eigenvalues --   -0.42955  -0.42813  -0.42590  -0.42382  -0.42143
 Alpha  occ. eigenvalues --   -0.41527  -0.40433  -0.40368  -0.40240  -0.39693
 Alpha  occ. eigenvalues --   -0.39639  -0.39488  -0.39395  -0.38919  -0.38875
 Alpha  occ. eigenvalues --   -0.38847  -0.38293  -0.38258  -0.37963  -0.37549
 Alpha  occ. eigenvalues --   -0.37186  -0.36811  -0.36022  -0.35685  -0.35063
 Alpha  occ. eigenvalues --   -0.34898  -0.34654  -0.34567  -0.34547  -0.34478
 Alpha  occ. eigenvalues --   -0.34279  -0.34200  -0.33919  -0.33635  -0.33583
 Alpha  occ. eigenvalues --   -0.33306  -0.32821  -0.32448  -0.32088  -0.31676
 Alpha  occ. eigenvalues --   -0.31264  -0.30123  -0.27374  -0.26979  -0.26689
 Alpha  occ. eigenvalues --   -0.26220  -0.26036  -0.25135  -0.24902  -0.24139
 Alpha virt. eigenvalues --   -0.06224  -0.05259  -0.01656   0.03163   0.03321
 Alpha virt. eigenvalues --    0.03943   0.04562   0.04693   0.05254   0.05398
 Alpha virt. eigenvalues --    0.05739   0.06033   0.06179   0.06522   0.06870

 Mulliken charges:
               1
     1  C    0.293000
     2  C   -0.193484
     3  C   -0.367668
     4  C    0.404665
     5  H    0.140473
     6  C   -0.410501
     7  C    0.355055
     8  H    0.141603
     9  C   -0.306123
    10  C   -0.205697
    11  H    0.215099
    12  C   -0.220142
    13  C    0.093069
    14  C    0.108245
    15  N   -0.597444
    16  H    0.106039
    17  C   -0.026157
    18  N   -0.304959
    19  H    0.097164
    20  C   -0.024090
    21  H    0.077701
    22  C   -0.447723
    23  C   -0.395415
    24  H    0.080241
    25  C   -0.422804
    26  C   -0.398191
    27  H    0.130851
    28  H    0.115965
    29  H    0.129796
    30  H    0.132780
    31  H    0.130914
    32  H    0.115214
    33  H    0.126411
    34  H    0.120549
    35  H    0.130739
    36  H    0.124135
    37  H    0.126795
    38  H    0.124128
    39  C    0.101109
    40  C    0.065009
    41  N   -0.258012
    42  H    0.083123
    43  C   -0.035797
    44  N   -0.579455
    45  H    0.112115
    46  C   -0.049997
    47  H    0.093724
    48  C   -0.420448
    49  C   -0.395856
    50  H    0.089646
    51  C   -0.399581
    52  C   -0.425682
    53  H    0.130081
    54  H    0.127343
    55  H    0.120527
    56  H    0.124624
    57  H    0.126373
    58  H    0.132471
    59  H    0.128546
    60  H    0.131828
    61  H    0.124615
    62  H    0.126462
    63  H    0.121849
    64  H    0.124016
    65  C    0.085928
    66  C    0.026149
    67  N   -0.259655
    68  H    0.057078
    69  C    0.025194
    70  N   -0.526514
    71  H    0.087366
    72  C   -0.071821
    73  H    0.082535
    74  C   -0.459616
    75  C   -0.405194
    76  H    0.092330
    77  C   -0.345106
    78  C   -0.395147
    79  H    0.126675
    80  H    0.119460
    81  H    0.129606
    82  H    0.127507
    83  H    0.130817
    84  H    0.141285
    85  H    0.120116
    86  H    0.122533
    87  H    0.127392
    88  H    0.106955
    89  H    0.118792
    90  H    0.124359
    91  H    0.232234
    92  H    0.220729
    93  H    0.242481
    94  H    0.227570
    95  H    0.229705
    96  H    0.227351
    97  H    0.133875
    98  H    0.096229
    99  H    0.101934
 Sum of Mulliken charges =   0.00000

 Dipole moment (field-independent basis, Debye):
    X=             -1.4619    Y=              0.9684    Z=             -1.7827  Tot=              2.5006
 Quadrupole moment (field-independent basis, Debye-Ang):
   XX=           -232.6847   YY=           -251.0677   ZZ=           -253.4771
   XY=             -3.2095   XZ=              6.9366   YZ=              9.5307

 Normal termination of Gaussian 16 at Mon Oct 18 12:39:31 2021.
