 Gaussian 16, Revision C.01,
 Gaussian 16:  ES64L-G16RevC.01  3-Jul-2019

 ---------------------------------------------------------------------
 #P MP2/aug-cc-pVDZ SP SCF=(YQC,MaxCycle=900) int=(Grid=Superfinegrid)
 ---------------------------------------------------------------------

 -----------------------------
 _1_alde1_3_ami1_1_opt_gas_mp2
 -----------------------------
 Symbolic Z-matrix:
 Charge =  0 Multiplicity = 1

                         Standard orientation:
 ---------------------------------------------------------------------
 Center     Atomic      Atomic             Coordinates (Angstroms)
 Number     Number       Type             X           Y           Z
 ---------------------------------------------------------------------
      1          6           0       -0.129395    0.872371   -0.244746
      2          6           0        0.270556    2.322529   -0.288466
      3          6           0       -1.458021    0.486046   -0.310302
      4          6           0       -1.804689   -0.856118   -0.237965
      5          1           0       -2.238782    1.222584   -0.428624
      6          6           0       -0.812413   -1.813966   -0.093647
      7          6           0        0.520271   -1.437723   -0.023674
      8          1           0       -1.080618   -2.859069   -0.035437
      9          6           0        0.854240   -0.094475   -0.100327
     10          6           0        1.619528   -2.457819    0.102013
     11          1           0        1.890723    0.201797   -0.047145
     12          6           0       -3.256861   -1.251255   -0.267799
     13          6           0        1.514446    3.944361    0.785265
     14          6           0        2.176455    3.685381   -0.599278
     15          7           0        0.634208    2.808439    1.029779
     16          1           0        0.869034    4.829086    0.700223
     17          6           0        2.512104    4.207873    1.920741
     18          7           0        1.479739    2.508285   -1.097745
     19          1           0        3.232357    3.411899   -0.459146
     20          6           0        2.153535    4.923602   -1.519921
     21          1           0        3.204487    4.976437    1.556192
     22          6           0        3.326055    2.973830    2.312495
     23          6           0        1.775374    4.753116    3.142954
     24          1           0        2.511475    5.768025   -0.918196
     25          6           0        0.758216    5.262547   -2.042343
     26          6           0        3.115790    4.729560   -2.691740
     27          1           0        1.009763    4.047892    3.456371
     28          1           0        1.294059    5.700594    2.911696
     29          1           0        2.468094    4.910871    3.966595
     30          1           0        4.165240    3.271222    2.937661
     31          1           0        3.718734    2.461445    1.437447
     32          1           0        2.719357    2.273506    2.882759
     33          1           0        4.129925    4.568182   -2.332832
     34          1           0        3.114661    5.607204   -3.334613
     35          1           0        2.825925    3.867277   -3.289060
     36          1           0        0.793191    6.185144   -2.617903
     37          1           0        0.051900    5.398299   -1.226754
     38          1           0        0.383008    4.475828   -2.694705
     39          6           0       -5.408700   -0.360940   -0.659083
     40          6           0       -5.296758   -0.973497    0.767237
     41          7           0       -4.036043   -0.373411   -1.145306
     42          1           0       -5.725736    0.689568   -0.586492
     43          6           0       -6.445414   -1.081403   -1.546267
     44          7           0       -3.870016   -1.097536    1.039156
     45          1           0       -5.698371   -1.995268    0.736677
     46          6           0       -6.068975   -0.206185    1.848138
     47          1           0       -7.357889   -1.178825   -0.945559
     48          6           0       -6.003776   -2.478301   -1.980222
     49          6           0       -6.770211   -0.232669   -2.775555
     50          1           0       -7.082986   -0.053869    1.458812
     51          6           0       -5.466785    1.161945    2.170445
     52          6           0       -6.153773   -1.048076    3.120086
     53          1           0       -7.512599   -0.729970   -3.396120
     54          1           0       -5.877428   -0.067354   -3.375495
     55          1           0       -7.164252    0.736932   -2.478977
     56          1           0       -6.803799   -2.962336   -2.536381
     57          1           0       -5.761863   -3.101988   -1.122895
     58          1           0       -5.129530   -2.429110   -2.627097
     59          1           0       -5.152891   -1.298341    3.462605
     60          1           0       -6.693847   -1.973511    2.934362
     61          1           0       -6.668938   -0.500308    3.905952
     62          1           0       -4.555610    1.056440    2.755497
     63          1           0       -6.173218    1.744150    2.758118
     64          1           0       -5.237350    1.719247    1.265303
     65          6           0        3.912250   -2.616971    0.652413
     66          6           0        3.636659   -3.144515   -0.785560
     67          7           0        2.651408   -2.000279    1.038774
     68          1           0        4.672676   -1.823331    0.616090
     69          6           0        4.449297   -3.707704    1.602882
     70          7           0        2.321015   -2.637426   -1.155459
     71          1           0        3.550684   -4.238563   -0.742273
     72          6           0        4.735845   -2.807399   -1.801745
     73          1           0        5.259876   -4.217711    1.068260
     74          6           0        3.396903   -4.747101    1.985770
     75          6           0        5.034328   -3.069809    2.862881
     76          1           0        5.686713   -3.106179   -1.344020
     77          6           0        4.812347   -1.318292   -2.141877
     78          6           0        4.529914   -3.621432   -3.078013
     79          1           0        5.842147   -2.387389    2.607900
     80          1           0        5.427961   -3.834575    3.529078
     81          1           0        4.271962   -2.508068    3.399230
     82          1           0        2.959155   -5.210868    1.105016
     83          1           0        2.596771   -4.296634    2.570710
     84          1           0        3.852457   -5.529066    2.589701
     85          1           0        3.545031   -3.416977   -3.490078
     86          1           0        4.599899   -4.686739   -2.870999
     87          1           0        5.282941   -3.364523   -3.819667
     88          1           0        5.742149   -1.109334   -2.666728
     89          1           0        4.782015   -0.703100   -1.245800
     90          1           0        3.990964   -1.026011   -2.792757
     91          1           0        2.401719   -2.172527    2.003431
     92          1           0        1.191809   -3.436398    0.390020
     93          1           0        2.419583   -1.725189   -1.590719
     94          1           0        1.279643    2.552519   -2.087949
     95          1           0       -0.577245    2.934606   -0.649266
     96          1           0        1.153067    2.073321    1.500773
     97          1           0       -3.959494   -0.632775   -2.119622
     98          1           0       -3.525728   -0.232761    1.445841
     99          1           0       -3.345188   -2.316975   -0.552148
 ---------------------------------------------------------------------

 SCF Done:  E(RHF) =  -1611.44130669     a.u. after    6 cycles
 SCF Done:  E(RHF) =  -1611.44134088     A.U. after   11 cycles
 E2 =    -0.5919409121D+01 EUMP2 =    -0.16173607500017D+04

 The electronic state is 1-A.
 Alpha  occ. eigenvalues --  -15.54011 -15.53969 -15.53963 -15.53744 -15.53681
 Alpha  occ. eigenvalues --  -15.53679 -11.27953 -11.27900 -11.27854 -11.24591
 Alpha  occ. eigenvalues --  -11.24578 -11.24577 -11.24479 -11.24446 -11.24438
 Alpha  occ. eigenvalues --  -11.22946 -11.22930 -11.22908 -11.22888 -11.22879
 Alpha  occ. eigenvalues --  -11.22865 -11.22569 -11.22514 -11.22450 -11.22136
 Alpha  occ. eigenvalues --  -11.21735 -11.21726 -11.21703 -11.21698 -11.21687
 Alpha  occ. eigenvalues --  -11.21686 -11.21657 -11.21500 -11.21484 -11.21467
 Alpha  occ. eigenvalues --  -11.21351 -11.20923 -11.20915 -11.20879  -1.27389
 Alpha  occ. eigenvalues --   -1.27245  -1.27172  -1.15227  -1.14561  -1.14530
 Alpha  occ. eigenvalues --   -1.14523  -1.09507  -1.09448  -1.08386  -1.05820
 Alpha  occ. eigenvalues --   -1.05812  -1.05805  -1.02836  -1.02625  -0.96657
 Alpha  occ. eigenvalues --   -0.95532  -0.95141  -0.93453  -0.93450  -0.93427
 Alpha  occ. eigenvalues --   -0.92959  -0.92950  -0.92927  -0.87191  -0.86078
 Alpha  occ. eigenvalues --   -0.84948  -0.84678  -0.84663  -0.84630  -0.78738
 Alpha  occ. eigenvalues --   -0.77594  -0.77222  -0.76852  -0.76805  -0.75314
 Alpha  occ. eigenvalues --   -0.74839  -0.74801  -0.69648  -0.69488  -0.67828
 Alpha  occ. eigenvalues --   -0.67639  -0.65433  -0.65210  -0.65096  -0.63653
 Alpha  occ. eigenvalues --   -0.62748  -0.62732  -0.62337  -0.61282  -0.60890
 Alpha  occ. eigenvalues --   -0.60523  -0.60481  -0.60475  -0.59701  -0.58998
 Alpha  occ. eigenvalues --   -0.58741  -0.58528  -0.57872  -0.57455  -0.57450
 Alpha  occ. eigenvalues --   -0.57167  -0.57002  -0.56365  -0.55033  -0.54959
 Alpha  occ. eigenvalues --   -0.54814  -0.54351  -0.54205  -0.54006  -0.53699
 Alpha  occ. eigenvalues --   -0.53667  -0.53614  -0.53116  -0.53066  -0.52938
 Alpha  occ. eigenvalues --   -0.51774  -0.51749  -0.51568  -0.51046  -0.50875
 Alpha  occ. eigenvalues --   -0.50707  -0.49379  -0.49017  -0.48773  -0.48414
 Alpha  occ. eigenvalues --   -0.48121  -0.47897  -0.47462  -0.47374  -0.47315
 Alpha  occ. eigenvalues --   -0.46852  -0.46659  -0.46618  -0.46352  -0.46178
 Alpha  occ. eigenvalues --   -0.45864  -0.45582  -0.44921  -0.44785  -0.43591
 Alpha  occ. eigenvalues --   -0.43491  -0.43389  -0.37483  -0.37408  -0.37334
 Alpha  occ. eigenvalues --   -0.36080  -0.35820  -0.35598  -0.31768  -0.31090
 Alpha virt. eigenvalues --    0.03026   0.03285   0.03418   0.03646   0.03950
 Alpha virt. eigenvalues --    0.04040   0.04154   0.04419   0.04457   0.04886
 Alpha virt. eigenvalues --    0.05209   0.05281   0.05439   0.05621   0.05707

 Mulliken charges:
               1
     1  C    1.698024
     2  C    0.564831
     3  C   -0.080687
     4  C    1.485131
     5  H   -0.953604
     6  C    0.443665
     7  C    1.293894
     8  H   -0.871837
     9  C   -0.477482
    10  C    0.523418
    11  H   -1.597526
    12  C    0.386618
    13  C    0.562885
    14  C    0.760408
    15  N   -0.810021
    16  H   -0.688359
    17  C   -0.736469
    18  N   -0.689583
    19  H   -0.794157
    20  C   -0.817940
    21  H   -0.334092
    22  C    1.072537
    23  C    1.041143
    24  H   -0.343105
    25  C    1.175360
    26  C    1.017420
    27  H   -0.011684
    28  H   -0.075824
    29  H   -0.079456
    30  H   -0.200508
    31  H   -0.112782
    32  H   -0.007141
    33  H   -0.060205
    34  H   -0.103349
    35  H   -0.043912
    36  H   -0.181657
    37  H   -0.019073
    38  H   -0.027950
    39  C    0.797197
    40  C    0.416974
    41  N   -0.679400
    42  H   -0.748030
    43  C   -0.923287
    44  N   -0.638009
    45  H   -0.686117
    46  C   -0.671668
    47  H   -0.339867
    48  C    1.118529
    49  C    0.966818
    50  H   -0.317777
    51  C    1.074494
    52  C    1.025302
    53  H   -0.092809
    54  H   -0.036891
    55  H   -0.059256
    56  H   -0.182171
    57  H   -0.034584
    58  H   -0.022219
    59  H   -0.016722
    60  H   -0.079798
    61  H   -0.079596
    62  H    0.012276
    63  H   -0.188373
    64  H   -0.097790
    65  C    0.622461
    66  C    0.522152
    67  N   -0.738759
    68  H   -0.784541
    69  C   -0.772159
    70  N   -0.794767
    71  H   -0.687616
    72  C   -0.733531
    73  H   -0.339202
    74  C    1.154545
    75  C    1.002345
    76  H   -0.338444
    77  C    1.080988
    78  C    1.037280
    79  H   -0.059176
    80  H   -0.107541
    81  H   -0.032747
    82  H   -0.023762
    83  H   -0.041046
    84  H   -0.181734
    85  H   -0.014171
    86  H   -0.072930
    87  H   -0.078589
    88  H   -0.200474
    89  H   -0.117404
    90  H   -0.000107
    91  H    0.039436
    92  H   -0.541748
    93  H    0.306916
    94  H    0.034423
    95  H   -0.628584
    96  H    0.296633
    97  H    0.037950
    98  H    0.262327
    99  H   -0.532588
 Sum of Mulliken charges =   0.00000

 Dipole moment (field-independent basis, Debye):
    X=              0.5826    Y=              0.6258    Z=             -0.5966  Tot=              1.0426
 Quadrupole moment (field-independent basis, Debye-Ang):
   XX=           -228.1663   YY=           -242.1690   ZZ=           -251.3290
   XY=              0.5694   XZ=              5.7402   YZ=             -4.9105

 Normal termination of Gaussian 16 at Tue Oct 26 03:05:53 2021.
