 Gaussian 16, Revision C.01,
 Gaussian 16:  ES64L-G16RevC.01  3-Jul-2019

 ----------------------------------------------------------------------
 #P MP2/aug-cc-pVDZ SP SCF=(YQC,MaxCycle=900) int=(Grid=Superfinegrid)
 SCRF=(PCM,Solvent=Chloroform)
 ----------------------------------------------------------------------

 -----------------------------
 _1_alde1_2_ami2_2_opt_cfm_mp2
 -----------------------------
 Symbolic Z-matrix:
 Charge =  0 Multiplicity = 1

                         Standard orientation:
 ---------------------------------------------------------------------
 Center     Atomic      Atomic             Coordinates (Angstroms)
 Number     Number       Type             X           Y           Z
 ---------------------------------------------------------------------
      1          6           0       -0.418655    2.824876    0.044975
      2          6           0       -0.849522    4.185819    0.396407
      3          6           0       -1.356420    1.831369   -0.210148
      4          6           0       -0.943280    0.541703   -0.545568
      5          1           0       -2.414191    2.039220   -0.157550
      6          6           0        0.417372    0.262802   -0.621216
      7          6           0        1.369753    1.250853   -0.367828
      8          1           0        0.764619   -0.725757   -0.881745
      9          6           0        0.943216    2.531218   -0.034690
     10          6           0        2.792371    0.950361   -0.450979
     11          1           0        1.653820    3.319767    0.167423
     12          6           0       -1.920575   -0.504091   -0.815675
     13          8           0       -0.112961    5.109090    0.629778
     14          6           0       -4.099896   -1.321946   -0.994119
     15          6           0       -4.976335   -1.550069    0.275452
     16          7           0       -3.160821   -0.281009   -0.756114
     17          7           0       -5.606844   -0.325547    0.731276
     18          6           0        4.961820   -1.575489    0.265448
     19          6           0        4.602487   -0.484000   -0.788787
     20          7           0        4.146754   -2.766943    0.116781
     21          7           0        3.208798   -0.204253   -0.743120
     22          1           0       -1.950289    4.307616    0.432534
     23          1           0        4.286647   -3.179512   -0.799281
     24          1           0        3.166537   -2.519272    0.197025
     25          1           0       -6.215785    0.049185    0.011789
     26          1           0       -4.895726    0.370528    0.927011
     27          1           0       -1.509004   -1.490307   -1.079248
     28          1           0        3.473056    1.791136   -0.249721
     29          6           0       -4.099848   -2.081321    1.411237
     30          6           0        6.428795   -1.968431    0.087121
     31          1           0        4.819143   -0.889019   -1.783401
     32          1           0        5.225078    0.410644   -0.623348
     33          1           0        6.681706   -2.743333    0.805188
     34          1           0        7.078915   -1.112283    0.245913
     35          1           0        6.603225   -2.356744   -0.914270
     36          1           0       -4.757287   -0.986190   -1.803574
     37          1           0       -3.622625   -2.270485   -1.291141
     38          1           0       -3.662049   -3.039430    1.143147
     39          1           0       -4.705059   -2.204760    2.304657
     40          1           0       -3.298598   -1.378712    1.630978
     41          6           0       -6.072926   -2.562063   -0.058843
     42          1           0       -6.696272   -2.197779   -0.872718
     43          1           0       -6.700932   -2.710880    0.814950
     44          1           0       -5.641307   -3.515500   -0.351511
     45          6           0        4.734229   -1.019773    1.672534
     46          1           0        3.698628   -0.709107    1.793763
     47          1           0        5.380328   -0.165291    1.857273
     48          1           0        4.950370   -1.793110    2.403939
 ---------------------------------------------------------------------

 SCF Done:  E(RHF) =  -951.665050843     a.u. after    6 cycles
 SCF Done:  E(RHF) =  -951.665160732     A.U. after   12 cycles
 E2 =    -0.3295455988D+01 EUMP2 =    -0.95496061672040D+03

 The electronic state is 1-A.
 Alpha  occ. eigenvalues --  -20.57556 -15.56834 -15.56809 -15.54144 -15.54133
 Alpha  occ. eigenvalues --  -11.35040 -11.29375 -11.29332 -11.27024 -11.26843
 Alpha  occ. eigenvalues --  -11.26756 -11.26379 -11.26374 -11.26135 -11.26092
 Alpha  occ. eigenvalues --  -11.26024 -11.25336 -11.25315 -11.21489 -11.21488
 Alpha  occ. eigenvalues --  -11.21211 -11.21198  -1.41269  -1.26029  -1.25737
 Alpha  occ. eigenvalues --   -1.19861  -1.19274  -1.17983  -1.07357  -1.07246
 Alpha  occ. eigenvalues --   -1.02839  -1.02556  -0.95683  -0.95330  -0.93725
 Alpha  occ. eigenvalues --   -0.93716  -0.90746  -0.87558  -0.84553  -0.77429
 Alpha  occ. eigenvalues --   -0.76618  -0.75357  -0.74759  -0.72407  -0.69931
 Alpha  occ. eigenvalues --   -0.67252  -0.66732  -0.66194  -0.65811  -0.65622
 Alpha  occ. eigenvalues --   -0.64314  -0.64081  -0.62866  -0.62202  -0.60647
 Alpha  occ. eigenvalues --   -0.59934  -0.59866  -0.57443  -0.57038  -0.56743
 Alpha  occ. eigenvalues --   -0.53945  -0.53556  -0.53356  -0.52958  -0.52938
 Alpha  occ. eigenvalues --   -0.52161  -0.51916  -0.50902  -0.50701  -0.49764
 Alpha  occ. eigenvalues --   -0.49261  -0.47154  -0.46703  -0.45593  -0.43835
 Alpha  occ. eigenvalues --   -0.43095  -0.41347  -0.41107  -0.38727  -0.38416
 Alpha  occ. eigenvalues --   -0.34717  -0.33117
 Alpha virt. eigenvalues --    0.03437   0.03810   0.04034   0.04332   0.04660
 Alpha virt. eigenvalues --    0.04716   0.04962   0.05122   0.05650   0.05773
 Alpha virt. eigenvalues --    0.05972   0.06277   0.06544   0.06587   0.06881

 Mulliken charges:
               1
     1  C    0.363116
     2  C    1.218881
     3  C    0.189243
     4  C    1.008633
     5  H   -0.812439
     6  C   -0.046477
     7  C    1.083951
     8  H   -0.827275
     9  C    0.111483
    10  C    0.576178
    11  H   -0.724710
    12  C    0.407135
    13  O   -0.861828
    14  C    1.569363
    15  C   -3.591369
    16  N   -0.455843
    17  N   -0.068068
    18  C   -3.593303
    19  C    1.652929
    20  N   -0.066248
    21  N   -0.430749
    22  H   -0.285160
    23  H   -0.004605
    24  H    0.017030
    25  H   -0.004662
    26  H    0.012784
    27  H   -0.617654
    28  H   -0.641253
    29  C    1.427990
    30  C    1.419849
    31  H   -0.253498
    32  H   -0.130355
    33  H    0.038881
    34  H    0.005116
    35  H   -0.048281
    36  H   -0.254558
    37  H   -0.128148
    38  H    0.000023
    39  H   -0.030980
    40  H   -0.033430
    41  C    1.424787
    42  H   -0.045532
    43  H    0.038377
    44  H    0.007039
    45  C    1.441314
    46  H   -0.028773
    47  H    0.003486
    48  H   -0.032388
 Sum of Mulliken charges =   0.00000

 Dipole moment (field-independent basis, Debye):
    X=              0.6180    Y=             -2.2589    Z=             -3.1216  Tot=              3.9024
 Quadrupole moment (field-independent basis, Debye-Ang):
   XX=           -133.7934   YY=           -160.8576   ZZ=           -140.6421
   XY=              5.2448   XZ=              4.3612   YZ=              2.8367

 Normal termination of Gaussian 16 at Mon Oct 25 19:21:32 2021.
