 Gaussian 16, Revision C.01,
 Gaussian 16:  ES64L-G16RevC.01  3-Jul-2019

 ----------------------------------------------------------------------
 #P PBE1PBE/Def2TZVP SP SCF=(YQC,MaxCycle=900) int=(Grid=Superfinegrid)
  EmpiricalDispersion=GD3
 ----------------------------------------------------------------------

 -------------------------
 _1_alde1_2_ami1_2_opt_gas
 -------------------------
 Symbolic Z-matrix:
 Charge =  0 Multiplicity = 1

                         Standard orientation:
 ---------------------------------------------------------------------
 Center     Atomic      Atomic             Coordinates (Angstroms)
 Number     Number       Type             X           Y           Z
 ---------------------------------------------------------------------
      1          6           0        0.013202   -0.162008    2.237961
      2          6           0       -0.004966   -0.266537    3.704936
      3          6           0        1.211755    0.047341    1.562934
      4          6           0        1.229416    0.146686    0.173341
      5          1           0        2.144105    0.138658    2.098874
      6          6           0        0.033189    0.031273   -0.531471
      7          6           0       -1.173985   -0.178893    0.131584
      8          1           0        0.042424    0.106628   -1.610832
      9          6           0       -1.175622   -0.273437    1.520610
     10          6           0       -2.413879   -0.299245   -0.622994
     11          1           0       -2.105109   -0.437352    2.043207
     12          6           0        2.479690    0.370374   -0.538746
     13          8           0       -0.986213   -0.445301    4.378173
     14          6           0        4.802952    0.657011   -0.637620
     15          6           0        5.742259   -0.537244   -0.285975
     16          7           0        3.580954    0.448411    0.069384
     17          1           0        4.653643    0.686906   -1.731328
     18          6           0        5.381330    2.024306   -0.205448
     19          7           0        6.052560   -0.608542    1.127949
     20          1           0        6.682521   -0.404017   -0.830981
     21          6           0        5.137842   -1.890222   -0.714339
     22          1           0        5.449354    2.036606    0.887357
     23          6           0        4.427377    3.141447   -0.628781
     24          6           0        6.762322    2.277475   -0.805254
     25          1           0        4.208688   -2.035420   -0.151763
     26          6           0        6.108867   -3.012290   -0.350120
     27          6           0        4.829254   -1.951752   -2.208716
     28          1           0        7.510072    1.598609   -0.403953
     29          1           0        7.077903    3.294124   -0.580450
     30          1           0        6.732917    2.160666   -1.886818
     31          1           0        4.807165    4.105410   -0.297934
     32          1           0        3.441551    2.994515   -0.193177
     33          1           0        4.328008    3.165609   -1.712620
     34          1           0        4.556557   -2.968166   -2.484601
     35          1           0        5.703023   -1.663069   -2.789897
     36          1           0        4.001095   -1.302110   -2.478661
     37          1           0        5.652444   -3.982092   -0.533529
     38          1           0        6.384386   -2.940373    0.697005
     39          1           0        7.012203   -2.935231   -0.951095
     40          6           0       -5.667210    0.604368   -0.296456
     41          6           0       -4.738599   -0.552014   -0.782101
     42          7           0       -5.990737    0.512195    1.112236
     43          1           0       -6.603453    0.548232   -0.861845
     44          6           0       -5.043142    1.990875   -0.556901
     45          7           0       -3.523270   -0.446795   -0.044525
     46          1           0       -4.579310   -0.452135   -1.870493
     47          6           0       -5.338415   -1.952983   -0.520814
     48          1           0       -4.117093    2.056210    0.025193
     49          6           0       -6.003569    3.073706   -0.067358
     50          6           0       -4.722571    2.226589   -2.031382
     51          1           0       -5.417418   -2.093447    0.562070
     52          6           0       -4.392840   -3.024109   -1.064626
     53          6           0       -6.715820   -2.114998   -1.159060
     54          1           0       -3.901143    1.602408   -2.372669
     55          1           0       -4.434840    3.264808   -2.182211
     56          1           0       -5.595716    2.021446   -2.647981
     57          1           0       -6.286104    2.881338    0.962523
     58          1           0       -6.904118    3.079263   -0.677578
     59          1           0       -5.534960    4.052830   -0.132475
     60          1           0       -7.046076   -3.146769   -1.059045
     61          1           0       -6.673713   -1.871464   -2.218968
     62          1           0       -7.459354   -1.478506   -0.686724
     63          1           0       -3.411819   -2.944513   -0.601659
     64          1           0       -4.278475   -2.918956   -2.142226
     65          1           0       -4.789128   -4.015577   -0.857235
     66          1           0        0.996947   -0.164581    4.168546
     67          1           0       -5.130093    0.479635    1.648683
     68          1           0       -6.512727   -0.333035    1.309241
     69          1           0        6.568565    0.210642    1.425685
     70          1           0        5.184943   -0.639669    1.653067
     71          1           0       -2.315160   -0.255722   -1.719769
     72          1           0        2.397428    0.468878   -1.632861
 ---------------------------------------------------------------------

 SCF Done:  E(RPBE1PBE) =  -1271.15743333     a.u. after    6 cycles
 SCF Done:  E(RPBE1PBE) =  -1271.15746325     A.U. after    9 cycles

 The electronic state is 1-A.
 Alpha  occ. eigenvalues --  -19.20866 -14.38909 -14.38632 -14.35620 -14.35161
 Alpha  occ. eigenvalues --  -10.31452 -10.27919 -10.27642 -10.25959 -10.25807
 Alpha  occ. eigenvalues --  -10.25667 -10.25493 -10.25444 -10.25299 -10.25136
 Alpha  occ. eigenvalues --  -10.24970 -10.24951 -10.24650 -10.23392 -10.23056
 Alpha  occ. eigenvalues --  -10.22139 -10.21851 -10.21546 -10.21248 -10.21062
 Alpha  occ. eigenvalues --  -10.20827 -10.20760 -10.20598 -10.19262 -10.18980
 Alpha  occ. eigenvalues --   -1.08535  -0.97977  -0.97659  -0.92278  -0.91474
 Alpha  occ. eigenvalues --   -0.90662  -0.84117  -0.83507  -0.81838  -0.81477
 Alpha  occ. eigenvalues --   -0.81168  -0.80725  -0.74315  -0.73488  -0.71399
 Alpha  occ. eigenvalues --   -0.71107  -0.70032  -0.69780  -0.69311  -0.68486
 Alpha  occ. eigenvalues --   -0.66816  -0.65060  -0.63260  -0.59613  -0.58841
 Alpha  occ. eigenvalues --   -0.58779  -0.58289  -0.57204  -0.56783  -0.54596
 Alpha  occ. eigenvalues --   -0.53251  -0.51883  -0.50552  -0.50338  -0.49854
 Alpha  occ. eigenvalues --   -0.49370  -0.48664  -0.48426  -0.48050  -0.47417
 Alpha  occ. eigenvalues --   -0.47097  -0.46771  -0.45667  -0.45470  -0.44984
 Alpha  occ. eigenvalues --   -0.44434  -0.44283  -0.44123  -0.42657  -0.42327
 Alpha  occ. eigenvalues --   -0.41630  -0.41400  -0.41131  -0.40464  -0.40176
 Alpha  occ. eigenvalues --   -0.39892  -0.39792  -0.39443  -0.39304  -0.39131
 Alpha  occ. eigenvalues --   -0.38959  -0.38605  -0.38142  -0.37916  -0.37029
 Alpha  occ. eigenvalues --   -0.36044  -0.35417  -0.35141  -0.34826  -0.34539
 Alpha  occ. eigenvalues --   -0.34245  -0.34042  -0.33823  -0.33093  -0.32782
 Alpha  occ. eigenvalues --   -0.32071  -0.31530  -0.28613  -0.28453  -0.27890
 Alpha  occ. eigenvalues --   -0.27704  -0.27046  -0.24708  -0.24269
 Alpha virt. eigenvalues --   -0.07880  -0.07330  -0.03255   0.03408   0.03629
 Alpha virt. eigenvalues --    0.03844   0.03845   0.04447   0.05008   0.05540
 Alpha virt. eigenvalues --    0.05879   0.06336   0.06469   0.06907   0.07590

 Mulliken charges:
               1
     1  C    0.289202
     2  C    0.042384
     3  C   -0.303585
     4  C    0.363253
     5  H    0.131460
     6  C   -0.356562
     7  C    0.419109
     8  H    0.111099
     9  C   -0.335811
    10  C   -0.215777
    11  H    0.149402
    12  C   -0.205699
    13  O   -0.271432
    14  C    0.039428
    15  C    0.004781
    16  N   -0.198466
    17  H    0.066979
    18  C   -0.054088
    19  N   -0.498588
    20  H    0.092684
    21  C   -0.019513
    22  H    0.071806
    23  C   -0.381490
    24  C   -0.382119
    25  H    0.080361
    26  C   -0.345550
    27  C   -0.394409
    28  H    0.130845
    29  H    0.127748
    30  H    0.119326
    31  H    0.124545
    32  H    0.135408
    33  H    0.106869
    34  H    0.126941
    35  H    0.116138
    36  H    0.111382
    37  H    0.114495
    38  H    0.144793
    39  H    0.096956
    40  C    0.004538
    41  C    0.041793
    42  N   -0.499693
    43  H    0.091369
    44  C   -0.022072
    45  N   -0.188968
    46  H    0.065408
    47  C   -0.056071
    48  H    0.082230
    49  C   -0.345266
    50  C   -0.393886
    51  H    0.076887
    52  C   -0.382382
    53  C   -0.382265
    54  H    0.110515
    55  H    0.126003
    56  H    0.115750
    57  H    0.146200
    58  H    0.096120
    59  H    0.113169
    60  H    0.127328
    61  H    0.118181
    62  H    0.131298
    63  H    0.136359
    64  H    0.105543
    65  H    0.124052
    66  H    0.075987
    67  H    0.227313
    68  H    0.211828
    69  H    0.212242
    70  H    0.221265
    71  H    0.076367
    72  H    0.078554
 Sum of Mulliken charges =   0.00000

 Dipole moment (field-independent basis, Debye):
    X=              1.6158    Y=              0.5022    Z=             -4.2651  Tot=              4.5884
 Quadrupole moment (field-independent basis, Debye-Ang):
   XX=           -193.8177   YY=           -191.6391   ZZ=           -197.4608
   XY=             18.9467   XZ=              8.5863   YZ=              1.6992

 Normal termination of Gaussian 16 at Mon Oct 18 06:44:05 2021.
