 Gaussian 16, Revision C.01,
 Gaussian 16:  ES64L-G16RevC.01  3-Jul-2019

 ----------------------------------------------------------------------
 #P PBE1PBE/Def2TZVP SP SCF=(YQC,MaxCycle=900) int=(Grid=Superfinegrid)
  EmpiricalDispersion=GD3
 ----------------------------------------------------------------------

 -------------------------
 _1_alde1_3_ami3_1_opt_gas
 -------------------------
 Symbolic Z-matrix:
 Charge =  0 Multiplicity = 1

                         Standard orientation:
 ---------------------------------------------------------------------
 Center     Atomic      Atomic             Coordinates (Angstroms)
 Number     Number       Type             X           Y           Z
 ---------------------------------------------------------------------
      1          6           0        1.329728   -0.402172   -1.350807
      2          6           0        2.784498   -0.802552   -1.307453
      3          6           0        0.320392   -1.349581   -1.347463
      4          6           0       -1.013010   -0.956269   -1.348170
      5          1           0        0.575086   -2.397501   -1.359316
      6          6           0       -1.328735    0.391688   -1.347591
      7          6           0       -0.321473    1.349789   -1.350650
      8          1           0       -2.363578    0.695258   -1.359988
      9          6           0        1.003725    0.949234   -1.350178
     10          6           0       -0.701746    2.809918   -1.306139
     11          1           0        1.784097    1.693665   -1.364351
     12          6           0       -2.087752   -2.015242   -1.301752
     13          6           0        4.143180   -1.644057    0.377846
     14          6           0        3.362151   -2.799134   -0.273011
     15          7           0        3.357598   -0.472596    0.019803
     16          7           0        2.968918   -2.243332   -1.559525
     17          6           0       -4.107376   -1.508153   -0.275463
     18          6           0       -3.501088   -2.758823    0.384880
     19          7           0       -3.426525   -1.454979   -1.560768
     20          7           0       -2.092849   -2.668754    0.029461
     21          6           0        0.744947    4.305315   -0.276921
     22          6           0       -0.642531    4.405686    0.380880
     23          7           0        0.452898    3.689565   -1.563024
     24          7           0       -1.268334    3.141408    0.023730
     25          1           0        0.202680    4.405643   -2.237035
     26          1           0       -1.482463    2.994793   -2.057059
     27          1           0       -0.989282    2.424564    0.689572
     28          1           0        3.333433   -0.221502   -2.061613
     29          1           0        2.598769   -0.355949    0.687387
     30          1           0       -3.920929   -2.030343   -2.234721
     31          1           0       -1.612744   -2.066921    0.694666
     32          1           0       -1.857336   -2.785631   -2.050832
     33          6           0        4.185057   -4.070768   -0.254809
     34          1           0        3.711153   -2.386853   -2.236406
     35          6           0       -5.620308   -1.582083   -0.260083
     36          6           0        1.437542    5.652440   -0.259867
     37          1           0        2.437502   -2.960556    0.300608
     38          6           0        4.496495   -4.395955    1.209783
     39          1           0        5.113434   -3.921146   -0.812204
     40          1           0        3.638316   -4.894326   -0.717028
     41          6           0        5.192032   -3.235543    1.928021
     42          1           0        5.131229   -5.282624    1.262034
     43          1           0        3.560621   -4.625750    1.724574
     44          6           0        4.387897   -1.933899    1.844680
     45          1           0        5.349081   -3.503341    2.974773
     46          1           0        6.173170   -3.071602    1.476103
     47          1           0        4.938298   -1.118190    2.316344
     48          1           0        3.432872   -2.048186    2.364090
     49          1           0        5.111211   -1.541376   -0.135233
     50          1           0       -3.784530   -0.623605    0.293237
     51          6           0       -6.060861   -1.678719    1.204330
     52          1           0       -5.955345   -2.463959   -0.812367
     53          1           0       -6.057383   -0.699043   -0.728920
     54          6           0       -5.407462   -2.857837    1.931464
     55          1           0       -7.146506   -1.782744    1.254976
     56          1           0       -5.791349   -0.750604    1.713573
     57          6           0       -3.877773   -2.815671    1.851224
     58          1           0       -5.756822   -3.791756    1.484791
     59          1           0       -5.720224   -2.852749    2.977527
     60          1           0       -3.896505   -3.651209   -0.123340
     61          1           0       -3.449353   -3.698014    2.329626
     62          1           0       -3.498870   -1.928880    2.365881
     63          1           0        1.348474    3.583153    0.292629
     64          6           0        1.571476    6.081831    1.204950
     65          1           0        0.842418    6.383785   -0.813007
     66          1           0        2.421580    5.589637   -0.727029
     67          6           0        0.222455    6.105299    1.929840
     68          1           0        2.024250    7.073940    1.256742
     69          1           0        2.239691    5.384019    1.715117
     70          6           0       -0.505936    4.759648    1.847585
     71          1           0       -0.410752    6.875142    1.482421
     72          1           0        0.381480    6.373112    2.976257
     73          1           0       -1.485038    4.829620    2.324248
     74          1           0        0.071529    3.987723    2.362830
     75          1           0       -1.216454    5.194789   -0.128037
 ---------------------------------------------------------------------

 SCF Done:  E(RPBE1PBE) =  -1381.59225993     a.u. after    6 cycles
 SCF Done:  E(RPBE1PBE) =  -1381.59228864     A.U. after    8 cycles

 The electronic state is 1-A.
 Alpha  occ. eigenvalues --  -14.36171 -14.36169 -14.36168 -14.36094 -14.36091
 Alpha  occ. eigenvalues --  -14.36090 -10.26738 -10.26737 -10.26737 -10.23742
 Alpha  occ. eigenvalues --  -10.23741 -10.23740 -10.23719 -10.23717 -10.23716
 Alpha  occ. eigenvalues --  -10.21786 -10.21785 -10.21784 -10.21754 -10.21753
 Alpha  occ. eigenvalues --  -10.21751 -10.21659 -10.21657 -10.21657 -10.21652
 Alpha  occ. eigenvalues --  -10.21650 -10.21650 -10.21551 -10.21551 -10.21550
 Alpha  occ. eigenvalues --  -10.20332 -10.20331 -10.20327  -0.98442  -0.98322
 Alpha  occ. eigenvalues --   -0.98322  -0.87903  -0.87345  -0.87344  -0.87289
 Alpha  occ. eigenvalues --   -0.85262  -0.85260  -0.84560  -0.78537  -0.78534
 Alpha  occ. eigenvalues --   -0.75951  -0.75949  -0.75946  -0.74776  -0.73053
 Alpha  occ. eigenvalues --   -0.73052  -0.65511  -0.65510  -0.64967  -0.62221
 Alpha  occ. eigenvalues --   -0.62218  -0.61869  -0.61784  -0.61746  -0.61744
 Alpha  occ. eigenvalues --   -0.59142  -0.59140  -0.59068  -0.57014  -0.57013
 Alpha  occ. eigenvalues --   -0.52237  -0.51861  -0.50943  -0.50940  -0.49696
 Alpha  occ. eigenvalues --   -0.49149  -0.49145  -0.47793  -0.47431  -0.47431
 Alpha  occ. eigenvalues --   -0.46977  -0.46826  -0.46824  -0.45856  -0.45104
 Alpha  occ. eigenvalues --   -0.44761  -0.44759  -0.43358  -0.43357  -0.42818
 Alpha  occ. eigenvalues --   -0.40943  -0.40942  -0.40926  -0.40852  -0.40849
 Alpha  occ. eigenvalues --   -0.40511  -0.39377  -0.38846  -0.38842  -0.37846
 Alpha  occ. eigenvalues --   -0.36992  -0.36988  -0.36417  -0.36414  -0.36335
 Alpha  occ. eigenvalues --   -0.35831  -0.35831  -0.35824  -0.34512  -0.33943
 Alpha  occ. eigenvalues --   -0.33943  -0.33786  -0.33785  -0.33784  -0.32848
 Alpha  occ. eigenvalues --   -0.32812  -0.32811  -0.32212  -0.32211  -0.32209
 Alpha  occ. eigenvalues --   -0.25803  -0.25801  -0.24427  -0.23755  -0.23426
 Alpha  occ. eigenvalues --   -0.23422  -0.23100  -0.23095
 Alpha virt. eigenvalues --    0.00399   0.00407   0.03485   0.04527   0.04555
 Alpha virt. eigenvalues --    0.04555   0.04807   0.04809   0.05444   0.06566
 Alpha virt. eigenvalues --    0.06569   0.07034   0.07451   0.07455   0.08589

 Mulliken charges:
               1
     1  C    0.153163
     2  C    0.000060
     3  C   -0.326520
     4  C    0.154149
     5  H    0.135073
     6  C   -0.325870
     7  C    0.152973
     8  H    0.135287
     9  C   -0.325973
    10  C    0.000573
    11  H    0.135353
    12  C   -0.000004
    13  C   -0.063209
    14  C   -0.082154
    15  N   -0.253712
    16  N   -0.244211
    17  C   -0.082516
    18  C   -0.063150
    19  N   -0.243983
    20  N   -0.253661
    21  C   -0.082338
    22  C   -0.063373
    23  N   -0.244147
    24  N   -0.253642
    25  H    0.184471
    26  H    0.080731
    27  H    0.190101
    28  H    0.080658
    29  H    0.190071
    30  H    0.184473
    31  H    0.190044
    32  H    0.080706
    33  C   -0.145440
    34  H    0.184524
    35  C   -0.145445
    36  C   -0.145455
    37  H    0.062405
    38  C   -0.194133
    39  H    0.085261
    40  H    0.110600
    41  C   -0.193735
    42  H    0.110540
    43  H    0.096949
    44  C   -0.156741
    45  H    0.109970
    46  H    0.094698
    47  H    0.109033
    48  H    0.087362
    49  H    0.048601
    50  H    0.062519
    51  C   -0.194180
    52  H    0.085268
    53  H    0.110592
    54  C   -0.193722
    55  H    0.110507
    56  H    0.096995
    57  C   -0.156871
    58  H    0.094689
    59  H    0.109969
    60  H    0.048617
    61  H    0.109032
    62  H    0.087378
    63  H    0.062567
    64  C   -0.194201
    65  H    0.085264
    66  H    0.110619
    67  C   -0.193683
    68  H    0.110525
    69  H    0.096961
    70  C   -0.156959
    71  H    0.094679
    72  H    0.109980
    73  H    0.109034
    74  H    0.087362
    75  H    0.048644
 Sum of Mulliken charges =   0.00000

 Dipole moment (field-independent basis, Debye):
    X=              0.0056    Y=              0.0026    Z=              1.9223  Tot=              1.9223
 Quadrupole moment (field-independent basis, Debye-Ang):
   XX=           -188.4450   YY=           -188.5185   ZZ=           -199.0858
   XY=             -0.0185   XZ=              0.0021   YZ=              0.0272

 Normal termination of Gaussian 16 at Mon Oct 18 07:06:04 2021.
