 Gaussian 16, Revision C.01,
 Gaussian 16:  ES64L-G16RevC.01  3-Jul-2019

 ---------------------------------------------------------------------
 #P MP2/aug-cc-pVDZ SP SCF=(YQC,MaxCycle=900) int=(Grid=Superfinegrid)
 ---------------------------------------------------------------------

 -----------------------------
 _1_alde1_3_ami4_2_opt_gas_mp2
 -----------------------------
 Symbolic Z-matrix:
 Charge =  0 Multiplicity = 1

                         Standard orientation:
 ---------------------------------------------------------------------
 Center     Atomic      Atomic             Coordinates (Angstroms)
 Number     Number       Type             X           Y           Z
 ---------------------------------------------------------------------
      1          6           0       -0.362819   -1.562710   -0.526628
      2          6           0       -1.197398   -2.767940   -0.690230
      3          6           0       -0.903432   -0.302319   -0.308054
      4          6           0       -0.076975    0.811984   -0.147728
      5          1           0       -1.969269   -0.143988   -0.288084
      6          6           0        1.301014    0.657176   -0.216111
      7          6           0        1.859924   -0.598769   -0.451559
      8          1           0        1.966024    1.498330   -0.094902
      9          6           0        1.022733   -1.698111   -0.611316
     10          6           0        3.304506   -0.761935   -0.535623
     11          1           0        1.449932   -2.675435   -0.791076
     12          6           0       -0.662619    2.123707    0.093623
     13          6           0       -4.145143   -1.868807    0.636351
     14          6           0       -2.774669   -2.449516    1.060460
     15          7           0       -5.119240   -2.854130    0.227090
     16          7           0       -2.199208   -3.163501   -0.037747
     17          1           0       -2.947504   -3.189809    1.850267
     18          6           0       -2.462851    3.564592    0.486649
     19          6           0       -3.618815    3.798877   -0.491121
     20          7           0       -1.904068    2.272034    0.254334
     21          7           0       -4.725149    2.927197   -0.140704
     22          6           0        5.502339    0.020284   -0.474664
     23          6           0        6.150440    0.439590    0.850437
     24          7           0        4.091162    0.214037   -0.399505
     25          1           0        5.787323   -1.018634   -0.704765
     26          7           0        7.590879    0.276414    0.760925
     27          1           0        7.972727    0.906549    0.062758
     28          1           0        8.025831    0.498722    1.649458
     29          1           0       -5.311706   -3.495106    0.990220
     30          1           0       -4.742246   -3.402641   -0.539283
     31          1           0       -5.447545    2.961754   -0.851762
     32          1           0       -4.386119    1.972447   -0.081501
     33          1           0       -0.865500   -3.445059   -1.475504
     34          1           0        0.046442    2.965322    0.137919
     35          1           0        3.661562   -1.785865   -0.729439
     36          1           0       -2.140012   -1.645585    1.457783
     37          1           0        5.880207    0.673442   -1.268856
     38          1           0       -1.716853    4.372320    0.400634
     39          1           0       -2.879262    3.564743    1.498622
     40          1           0       -3.242695    3.647330   -1.518222
     41          1           0       -3.959075    4.835282   -0.403141
     42          1           0       -3.998341   -1.184657   -0.204384
     43          1           0       -4.556710   -1.301186    1.475198
     44          1           0        5.828246    1.467204    1.083950
     45          1           0        5.786496   -0.216458    1.646443
 ---------------------------------------------------------------------

 SCF Done:  E(RHF) =  -908.744008454     a.u. after    6 cycles
 SCF Done:  E(RHF) =  -908.744063404     A.U. after   12 cycles
 E2 =    -0.3146565616D+01 EUMP2 =    -0.91189062901957D+03

 The electronic state is 1-A.
 Alpha  occ. eigenvalues --  -15.57015 -15.56982 -15.56526 -15.55358 -15.54043
 Alpha  occ. eigenvalues --  -15.53740 -11.29446 -11.29309 -11.28782 -11.26428
 Alpha  occ. eigenvalues --  -11.26076 -11.25977 -11.25886 -11.25804 -11.25792
 Alpha  occ. eigenvalues --  -11.25745 -11.25687 -11.25622 -11.25305 -11.25237
 Alpha  occ. eigenvalues --  -11.25076  -1.25840  -1.25510  -1.24727  -1.18889
 Alpha  occ. eigenvalues --   -1.18167  -1.17468  -1.16815  -1.07058  -1.06377
 Alpha  occ. eigenvalues --   -0.99536  -0.98634  -0.98450  -0.89821  -0.88858
 Alpha  occ. eigenvalues --   -0.87067  -0.83907  -0.82460  -0.80259  -0.76138
 Alpha  occ. eigenvalues --   -0.74473  -0.71055  -0.69603  -0.67957  -0.67664
 Alpha  occ. eigenvalues --   -0.67076  -0.66301  -0.65898  -0.64580  -0.63593
 Alpha  occ. eigenvalues --   -0.63057  -0.61490  -0.61106  -0.60455  -0.58978
 Alpha  occ. eigenvalues --   -0.58153  -0.56172  -0.55509  -0.54456  -0.54272
 Alpha  occ. eigenvalues --   -0.53779  -0.53238  -0.52993  -0.51809  -0.50799
 Alpha  occ. eigenvalues --   -0.49795  -0.49488  -0.45820  -0.44936  -0.41681
 Alpha  occ. eigenvalues --   -0.41444  -0.41238  -0.39500  -0.39386  -0.38305
 Alpha  occ. eigenvalues --   -0.37456  -0.33580  -0.32924
 Alpha virt. eigenvalues --    0.03029   0.03398   0.03622   0.04174   0.04448
 Alpha virt. eigenvalues --    0.04603   0.04789   0.05277   0.05447   0.05948
 Alpha virt. eigenvalues --    0.05990   0.06225   0.06424   0.06845   0.07303

 Mulliken charges:
               1
     1  C    1.013112
     2  C    0.249700
     3  C    0.084774
     4  C    0.491117
     5  H   -0.781923
     6  C    0.125663
     7  C    0.570400
     8  H   -0.751486
     9  C   -0.007283
    10  C    0.899299
    11  H   -0.739725
    12  C    0.893632
    13  C    0.761830
    14  C    0.854268
    15  N   -0.443328
    16  N   -0.550340
    17  H   -0.306213
    18  C    0.551647
    19  C    0.927493
    20  N   -0.651751
    21  N   -0.381275
    22  C    0.688918
    23  C    0.910640
    24  N   -0.570164
    25  H   -0.101206
    26  N   -0.399118
    27  H    0.015216
    28  H   -0.026078
    29  H    0.013868
    30  H    0.050359
    31  H   -0.040656
    32  H    0.031879
    33  H   -0.427105
    34  H   -0.637447
    35  H   -0.642313
    36  H   -0.097431
    37  H   -0.286870
    38  H   -0.135315
    39  H   -0.196782
    40  H   -0.156715
    41  H   -0.166336
    42  H   -0.217787
    43  H   -0.101212
    44  H   -0.105070
    45  H   -0.212886
 Sum of Mulliken charges =   0.00000

 Dipole moment (field-independent basis, Debye):
    X=              3.8704    Y=              1.3720    Z=             -0.3375  Tot=              4.1202
 Quadrupole moment (field-independent basis, Debye-Ang):
   XX=           -143.2348   YY=           -124.1176   ZZ=           -126.5067
   XY=              3.9536   XZ=              3.6117   YZ=             -2.4978

 Normal termination of Gaussian 16 at Thu Nov 11 19:39:33 2021.
