 Gaussian 16, Revision C.01,
 Gaussian 16:  ES64L-G16RevC.01  3-Jul-2019

 ----------------------------------------------------------------------
 #P PBE1PBE/Def2TZVP SP SCF=(YQC,MaxCycle=900) int=(Grid=Superfinegrid)
  EmpiricalDispersion=GD3
 ----------------------------------------------------------------------

 -------------------------
 _1_alde1_2_ami4_1_opt_gas
 -------------------------
 Symbolic Z-matrix:
 Charge =  0 Multiplicity = 1

                         Standard orientation:
 ---------------------------------------------------------------------
 Center     Atomic      Atomic             Coordinates (Angstroms)
 Number     Number       Type             X           Y           Z
 ---------------------------------------------------------------------
      1          6           0        0.345219    2.086327   -0.123314
      2          6           0        0.749759    3.496334   -0.143748
      3          6           0       -0.990899    1.733669   -0.303384
      4          6           0       -1.366189    0.400017   -0.291220
      5          1           0       -1.738352    2.500354   -0.447950
      6          6           0       -0.402863   -0.580723   -0.092034
      7          6           0        0.932339   -0.242552    0.085187
      8          1           0       -0.712090   -1.614873   -0.087189
      9          6           0        1.303159    1.091315    0.067656
     10          6           0        1.983578   -1.309404    0.252632
     11          1           0        2.334033    1.373408    0.218878
     12          6           0       -2.820810    0.031850   -0.441217
     13          8           0        1.879064    3.902862   -0.039156
     14          6           0       -4.712246   -0.584450    0.689757
     15          6           0       -4.203105   -1.847941   -0.034928
     16          7           0       -3.547361    0.279155    0.794678
     17          1           0       -5.142493   -0.789728    1.667702
     18          7           0       -3.007799   -1.395451   -0.743214
     19          1           0       -4.957192   -2.271956   -0.701315
     20          6           0        4.326268   -1.257708    0.618511
     21          6           0        3.954482   -2.087118   -0.626145
     22          7           0        3.036929   -0.876182    1.189222
     23          1           0        4.861387   -0.347011    0.323400
     24          7           0        2.644042   -1.590282   -1.013715
     25          1           0        3.848523   -3.143829   -0.360621
     26          1           0        2.890163   -1.260928    2.112233
     27          1           0        1.506710   -2.246418    0.589425
     28          1           0        2.749181   -0.719188   -1.527469
     29          1           0       -2.969641   -0.017720    1.576932
     30          1           0       -3.052316   -1.562098   -1.739305
     31          1           0       -3.277693    0.672985   -1.218375
     32          1           0       -0.098431    4.199211   -0.273418
     33          1           0       -3.909534   -2.616772    0.689850
     34          1           0        4.949018   -1.812509    1.321709
     35          1           0       -5.456227   -0.068974    0.074373
     36          1           0        4.669620   -1.995228   -1.440933
 ---------------------------------------------------------------------

 SCF Done:  E(RPBE1PBE) =  -799.802653695     a.u. after    6 cycles
 SCF Done:  E(RPBE1PBE) =  -799.802667451     A.U. after    9 cycles

 The electronic state is 1-A.
 Alpha  occ. eigenvalues --  -19.19496 -14.37994 -14.37537 -14.37316 -14.36728
 Alpha  occ. eigenvalues --  -10.30124 -10.28442 -10.27953 -10.25044 -10.24830
 Alpha  occ. eigenvalues --  -10.24549 -10.24278 -10.23825 -10.23702 -10.23546
 Alpha  occ. eigenvalues --  -10.23523 -10.23035 -10.22866  -1.07155  -0.99800
 Alpha  occ. eigenvalues --   -0.99258  -0.89797  -0.88336  -0.87793  -0.81352
 Alpha  occ. eigenvalues --   -0.80582  -0.75702  -0.74392  -0.67792  -0.65779
 Alpha  occ. eigenvalues --   -0.64853  -0.63331  -0.63103  -0.60005  -0.58275
 Alpha  occ. eigenvalues --   -0.54722  -0.53978  -0.52620  -0.51678  -0.51036
 Alpha  occ. eigenvalues --   -0.49182  -0.47313  -0.46318  -0.45061  -0.44564
 Alpha  occ. eigenvalues --   -0.44032  -0.43873  -0.42505  -0.41603  -0.41450
 Alpha  occ. eigenvalues --   -0.40823  -0.40107  -0.39797  -0.39274  -0.37429
 Alpha  occ. eigenvalues --   -0.36830  -0.36793  -0.36478  -0.35060  -0.27683
 Alpha  occ. eigenvalues --   -0.27497  -0.26752  -0.26338  -0.25834  -0.24340
 Alpha  occ. eigenvalues --   -0.23704
 Alpha virt. eigenvalues --   -0.05929  -0.01797   0.03321   0.03626   0.04375
 Alpha virt. eigenvalues --    0.05261   0.05810   0.07397   0.07429   0.08094
 Alpha virt. eigenvalues --    0.08647   0.09167   0.10031   0.10619   0.11187

 Mulliken charges:
               1
     1  C    0.258525
     2  C    0.044429
     3  C   -0.321720
     4  C    0.232835
     5  H    0.110037
     6  C   -0.374358
     7  C    0.401946
     8  H    0.122545
     9  C   -0.323492
    10  C   -0.154691
    11  H    0.143564
    12  C   -0.099480
    13  O   -0.282983
    14  C   -0.134420
    15  C   -0.128499
    16  N   -0.268402
    17  H    0.129633
    18  N   -0.283525
    19  H    0.103543
    20  C   -0.132251
    21  C   -0.122087
    22  N   -0.272676
    23  H    0.088749
    24  N   -0.265086
    25  H    0.082534
    26  H    0.198127
    27  H    0.081159
    28  H    0.201434
    29  H    0.198925
    30  H    0.204003
    31  H    0.083061
    32  H    0.068734
    33  H    0.086637
    34  H    0.107538
    35  H    0.088047
    36  H    0.127666
 Sum of Mulliken charges =   0.00000

 Dipole moment (field-independent basis, Debye):
    X=             -2.3902    Y=             -3.7922    Z=              0.0416  Tot=              4.4828
 Quadrupole moment (field-independent basis, Debye-Ang):
   XX=            -94.6679   YY=           -117.2464   ZZ=           -102.8440
   XY=             -8.7532   XZ=              3.0409   YZ=             -6.1721

 Normal termination of Gaussian 16 at Mon Oct 18 01:02:20 2021.
