 Gaussian 16, Revision C.01,
 Gaussian 16:  ES64L-G16RevC.01  3-Jul-2019

 ----------------------------------------------------------------------
 #P PBE1PBE/Def2TZVP SP SCF=(YQC,MaxCycle=900) int=(Grid=Superfinegrid)
  EmpiricalDispersion=GD3 SCRF=(PCM,Solvent=Dichloromethane)
 ----------------------------------------------------------------------

 -------------------------
 _1_alde1_2_ami1_1_opt_dcm
 -------------------------
 Symbolic Z-matrix:
 Charge =  0 Multiplicity = 1

                         Standard orientation:
 ---------------------------------------------------------------------
 Center     Atomic      Atomic             Coordinates (Angstroms)
 Number     Number       Type             X           Y           Z
 ---------------------------------------------------------------------
      1          6           0       -0.039197   -1.334061    2.017131
      2          6           0       -0.094621   -2.130189    3.247446
      3          6           0       -1.210566   -0.809200    1.473536
      4          6           0       -1.166450   -0.054933    0.312542
      5          1           0       -2.151934   -0.983609    1.972420
      6          6           0        0.054216    0.160173   -0.313171
      7          6           0        1.228874   -0.362678    0.214085
      8          1           0        0.094110    0.742448   -1.222119
      9          6           0        1.180641   -1.101881    1.384150
     10          6           0        2.548083   -0.083886   -0.456904
     11          1           0        2.097515   -1.503480    1.789793
     12          6           0       -2.442120    0.477499   -0.280952
     13          8           0       -1.094426   -2.404122    3.861782
     14          6           0       -4.724882    0.838135    0.120125
     15          6           0       -4.516930   -0.095125   -1.111782
     16          7           0       -3.412249    0.829183    0.751200
     17          1           0       -5.444331    0.402213    0.825233
     18          6           0       -5.241635    2.237290   -0.275664
     19          7           0       -3.124738   -0.535812   -1.064738
     20          1           0       -4.612861    0.509837   -2.023477
     21          6           0       -5.513153   -1.259054   -1.201242
     22          1           0       -4.529491    2.681262   -0.982241
     23          6           0       -5.355211    3.148805    0.947223
     24          6           0       -6.610545    2.140528   -0.946794
     25          1           0       -6.515028   -0.826345   -1.106934
     26          6           0       -5.331986   -2.290670   -0.086446
     27          6           0       -5.401210   -1.936640   -2.565897
     28          1           0       -7.326840    1.679578   -0.269562
     29          1           0       -6.569801    1.551421   -1.858789
     30          1           0       -6.972818    3.134127   -1.201924
     31          1           0       -6.008224    2.698331    1.692039
     32          1           0       -5.774429    4.110224    0.658280
     33          1           0       -4.388111    3.335255    1.409233
     34          1           0       -4.384314   -2.286560   -2.724453
     35          1           0       -5.650736   -1.240329   -3.363241
     36          1           0       -6.078992   -2.785247   -2.625305
     37          1           0       -5.206140   -1.810787    0.881044
     38          1           0       -4.467490   -2.924096   -0.275632
     39          1           0       -6.206937   -2.934966   -0.036625
     40          6           0        4.868404   -0.450043   -0.245626
     41          6           0        4.541872    1.071175   -0.295845
     42          7           0        3.559735   -1.081506   -0.113059
     43          1           0        5.429700   -0.669671    0.674553
     44          6           0        5.713711   -0.943622   -1.438552
     45          7           0        3.113416    1.173593   -0.000708
     46          1           0        4.684308    1.440029   -1.319180
     47          6           0        5.367517    1.939114    0.657411
     48          1           0        6.554582   -0.250440   -1.544131
     49          6           0        4.943210   -0.957836   -2.758367
     50          6           0        6.276412   -2.334848   -1.146826
     51          1           0        5.188070    1.583706    1.679912
     52          6           0        4.914111    3.395034    0.555253
     53          6           0        6.863100    1.845269    0.364591
     54          1           0        5.473638   -3.053590   -0.993670
     55          1           0        6.892639   -2.319402   -0.250492
     56          1           0        6.888361   -2.678610   -1.977796
     57          1           0        4.127522   -1.678582   -2.732344
     58          1           0        5.610153   -1.240108   -3.570066
     59          1           0        4.529547    0.021814   -2.985881
     60          1           0        7.411452    2.508051    1.030328
     61          1           0        7.067680    2.147441   -0.660460
     62          1           0        7.235095    0.834774    0.510653
     63          1           0        5.427688    4.004529    1.295317
     64          1           0        3.842790    3.475868    0.714086
     65          1           0        5.142216    3.787933   -0.432934
     66          1           0        3.473017   -1.927934   -0.659998
     67          1           0        2.390116    0.004116   -1.548541
     68          1           0        2.988700    1.228693    1.007932
     69          1           0       -3.185842    1.690275    1.229493
     70          1           0       -3.067468   -1.413324   -0.556439
     71          1           0       -2.213676    1.324348   -0.958655
     72          1           0        0.898957   -2.484555    3.590912
 ---------------------------------------------------------------------

 SCF Done:  E(RPBE1PBE) =  -1271.19206352     a.u. after    6 cycles
 SCF Done:  E(RPBE1PBE) =  -1271.19207574     A.U. after    8 cycles

 The electronic state is 1-A.
 Alpha  occ. eigenvalues --  -19.20735 -14.37261 -14.37011 -14.36651 -14.36498
 Alpha  occ. eigenvalues --  -10.31171 -10.27927 -10.27833 -10.24638 -10.24528
 Alpha  occ. eigenvalues --  -10.24406 -10.24283 -10.24130 -10.24121 -10.24017
 Alpha  occ. eigenvalues --  -10.23895 -10.23735 -10.23436 -10.22739 -10.22614
 Alpha  occ. eigenvalues --  -10.22458 -10.22328 -10.20636 -10.20612 -10.20601
 Alpha  occ. eigenvalues --  -10.20546 -10.20525 -10.20457 -10.20197 -10.20174
 Alpha  occ. eigenvalues --   -1.08490  -0.99603  -0.99499  -0.90338  -0.88620
 Alpha  occ. eigenvalues --   -0.88435  -0.84438  -0.83774  -0.80957  -0.80932
 Alpha  occ. eigenvalues --   -0.80373  -0.79604  -0.73763  -0.72964  -0.70694
 Alpha  occ. eigenvalues --   -0.70626  -0.70537  -0.70439  -0.68170  -0.66843
 Alpha  occ. eigenvalues --   -0.64987  -0.64243  -0.64106  -0.60587  -0.60059
 Alpha  occ. eigenvalues --   -0.58427  -0.57873  -0.57697  -0.57301  -0.54323
 Alpha  occ. eigenvalues --   -0.53324  -0.51995  -0.50745  -0.50376  -0.49601
 Alpha  occ. eigenvalues --   -0.48480  -0.47991  -0.47166  -0.46627  -0.46313
 Alpha  occ. eigenvalues --   -0.46089  -0.45841  -0.44988  -0.44582  -0.44118
 Alpha  occ. eigenvalues --   -0.43651  -0.43581  -0.43299  -0.42832  -0.42297
 Alpha  occ. eigenvalues --   -0.42208  -0.41572  -0.40595  -0.40127  -0.39906
 Alpha  occ. eigenvalues --   -0.39895  -0.39680  -0.39516  -0.39114  -0.38796
 Alpha  occ. eigenvalues --   -0.38073  -0.37985  -0.37730  -0.37393  -0.36337
 Alpha  occ. eigenvalues --   -0.36214  -0.35566  -0.34983  -0.34771  -0.34529
 Alpha  occ. eigenvalues --   -0.34121  -0.34034  -0.33880  -0.33665  -0.33211
 Alpha  occ. eigenvalues --   -0.31916  -0.31732  -0.28070  -0.27982  -0.27538
 Alpha  occ. eigenvalues --   -0.25618  -0.25479  -0.23864  -0.23771
 Alpha virt. eigenvalues --   -0.06848  -0.01948   0.03137   0.03953   0.04259
 Alpha virt. eigenvalues --    0.05067   0.05128   0.05686   0.06040   0.06323
 Alpha virt. eigenvalues --    0.06638   0.08025   0.08504   0.08625   0.08858

 Mulliken charges:
               1
     1  C    0.236067
     2  C    0.059407
     3  C   -0.313645
     4  C    0.332962
     5  H    0.130802
     6  C   -0.451926
     7  C    0.291581
     8  H    0.122885
     9  C   -0.271992
    10  C   -0.079660
    11  H    0.127365
    12  C   -0.064370
    13  O   -0.334371
    14  C    0.062019
    15  C   -0.019228
    16  N   -0.303068
    17  H    0.076980
    18  C   -0.087253
    19  N   -0.288882
    20  H    0.080327
    21  C   -0.050951
    22  H    0.085360
    23  C   -0.384944
    24  C   -0.400905
    25  H    0.096897
    26  C   -0.439790
    27  C   -0.382789
    28  H    0.122730
    29  H    0.132889
    30  H    0.131866
    31  H    0.123746
    32  H    0.129753
    33  H    0.117250
    34  H    0.124729
    35  H    0.123336
    36  H    0.128767
    37  H    0.141865
    38  H    0.130342
    39  H    0.134231
    40  C    0.138647
    41  C   -0.090472
    42  N   -0.320873
    43  H    0.071118
    44  C   -0.135726
    45  N   -0.281507
    46  H    0.065346
    47  C   -0.038759
    48  H    0.089882
    49  C   -0.391011
    50  C   -0.365055
    51  H    0.085654
    52  C   -0.372558
    53  C   -0.410820
    54  H    0.115667
    55  H    0.126682
    56  H    0.128875
    57  H    0.113084
    58  H    0.136678
    59  H    0.130206
    60  H    0.134035
    61  H    0.125302
    62  H    0.134731
    63  H    0.127482
    64  H    0.128411
    65  H    0.115683
    66  H    0.204814
    67  H    0.093058
    68  H    0.207977
    69  H    0.191553
    70  H    0.196620
    71  H    0.082462
    72  H    0.092430
 Sum of Mulliken charges =  -0.00000

 Dipole moment (field-independent basis, Debye):
    X=              2.6287    Y=              2.2274    Z=             -3.2895  Tot=              4.7636
 Quadrupole moment (field-independent basis, Debye-Ang):
   XX=           -158.3205   YY=           -188.8439   ZZ=           -201.9120
   XY=             -9.7909   XZ=              6.2959   YZ=              9.8682

 Normal termination of Gaussian 16 at Mon Oct 18 14:52:30 2021.
