 Gaussian 16, Revision C.01,
 Gaussian 16:  ES64L-G16RevC.01  3-Jul-2019

 ----------------------------------------------------------------------
 #P MP2/aug-cc-pVDZ SP SCF=(YQC,MaxCycle=900) int=(Grid=Superfinegrid)
 SCRF=(PCM,Solvent=Dichloromethane)
 ----------------------------------------------------------------------

 -----------------------------
 _1_alde1_2_ami1_1_opt_dcm_mp2
 -----------------------------
 Symbolic Z-matrix:
 Charge =  0 Multiplicity = 1

                         Standard orientation:
 ---------------------------------------------------------------------
 Center     Atomic      Atomic             Coordinates (Angstroms)
 Number     Number       Type             X           Y           Z
 ---------------------------------------------------------------------
      1          6           0       -0.039197   -1.334061    2.017131
      2          6           0       -0.094621   -2.130189    3.247446
      3          6           0       -1.210566   -0.809200    1.473536
      4          6           0       -1.166450   -0.054933    0.312542
      5          1           0       -2.151934   -0.983609    1.972420
      6          6           0        0.054216    0.160173   -0.313171
      7          6           0        1.228874   -0.362678    0.214085
      8          1           0        0.094110    0.742448   -1.222119
      9          6           0        1.180641   -1.101881    1.384150
     10          6           0        2.548083   -0.083886   -0.456904
     11          1           0        2.097515   -1.503480    1.789793
     12          6           0       -2.442120    0.477499   -0.280952
     13          8           0       -1.094426   -2.404122    3.861782
     14          6           0       -4.724882    0.838135    0.120125
     15          6           0       -4.516930   -0.095125   -1.111782
     16          7           0       -3.412249    0.829183    0.751200
     17          1           0       -5.444331    0.402213    0.825233
     18          6           0       -5.241635    2.237290   -0.275664
     19          7           0       -3.124738   -0.535812   -1.064738
     20          1           0       -4.612861    0.509837   -2.023477
     21          6           0       -5.513153   -1.259054   -1.201242
     22          1           0       -4.529491    2.681262   -0.982241
     23          6           0       -5.355211    3.148805    0.947223
     24          6           0       -6.610545    2.140528   -0.946794
     25          1           0       -6.515028   -0.826345   -1.106934
     26          6           0       -5.331986   -2.290670   -0.086446
     27          6           0       -5.401210   -1.936640   -2.565897
     28          1           0       -7.326840    1.679578   -0.269562
     29          1           0       -6.569801    1.551421   -1.858789
     30          1           0       -6.972818    3.134127   -1.201924
     31          1           0       -6.008224    2.698331    1.692039
     32          1           0       -5.774429    4.110224    0.658280
     33          1           0       -4.388111    3.335255    1.409233
     34          1           0       -4.384314   -2.286560   -2.724453
     35          1           0       -5.650736   -1.240329   -3.363241
     36          1           0       -6.078992   -2.785247   -2.625305
     37          1           0       -5.206140   -1.810787    0.881044
     38          1           0       -4.467490   -2.924096   -0.275632
     39          1           0       -6.206937   -2.934966   -0.036625
     40          6           0        4.868404   -0.450043   -0.245626
     41          6           0        4.541872    1.071175   -0.295845
     42          7           0        3.559735   -1.081506   -0.113059
     43          1           0        5.429700   -0.669671    0.674553
     44          6           0        5.713711   -0.943622   -1.438552
     45          7           0        3.113416    1.173593   -0.000708
     46          1           0        4.684308    1.440029   -1.319180
     47          6           0        5.367517    1.939114    0.657411
     48          1           0        6.554582   -0.250440   -1.544131
     49          6           0        4.943210   -0.957836   -2.758367
     50          6           0        6.276412   -2.334848   -1.146826
     51          1           0        5.188070    1.583706    1.679912
     52          6           0        4.914111    3.395034    0.555253
     53          6           0        6.863100    1.845269    0.364591
     54          1           0        5.473638   -3.053590   -0.993670
     55          1           0        6.892639   -2.319402   -0.250492
     56          1           0        6.888361   -2.678610   -1.977796
     57          1           0        4.127522   -1.678582   -2.732344
     58          1           0        5.610153   -1.240108   -3.570066
     59          1           0        4.529547    0.021814   -2.985881
     60          1           0        7.411452    2.508051    1.030328
     61          1           0        7.067680    2.147441   -0.660460
     62          1           0        7.235095    0.834774    0.510653
     63          1           0        5.427688    4.004529    1.295317
     64          1           0        3.842790    3.475868    0.714086
     65          1           0        5.142216    3.787933   -0.432934
     66          1           0        3.473017   -1.927934   -0.659998
     67          1           0        2.390116    0.004116   -1.548541
     68          1           0        2.988700    1.228693    1.007932
     69          1           0       -3.185842    1.690275    1.229493
     70          1           0       -3.067468   -1.413324   -0.556439
     71          1           0       -2.213676    1.324348   -0.958655
     72          1           0        0.898957   -2.484555    3.590912
 ---------------------------------------------------------------------

 SCF Done:  E(RHF) =  -1263.96649818     a.u. after    7 cycles
 SCF Done:  E(RHF) =  -1263.96651986     A.U. after   10 cycles
 E2 =    -0.4528592877D+01 EUMP2 =    -0.12684951127393D+04

 The electronic state is 1-A.
 Alpha  occ. eigenvalues --  -20.56971 -15.55206 -15.54980 -15.54518 -15.54367
 Alpha  occ. eigenvalues --  -11.34414 -11.29075 -11.28989 -11.25185 -11.25115
 Alpha  occ. eigenvalues --  -11.25069 -11.25030 -11.25018 -11.24881 -11.24813
 Alpha  occ. eigenvalues --  -11.24705 -11.24658 -11.24580 -11.23056 -11.22933
 Alpha  occ. eigenvalues --  -11.22847 -11.22713 -11.21555 -11.21520 -11.21507
 Alpha  occ. eigenvalues --  -11.21491 -11.21486 -11.21384 -11.21147 -11.21101
 Alpha  occ. eigenvalues --   -1.40664  -1.28317  -1.28189  -1.17598  -1.15333
 Alpha  occ. eigenvalues --   -1.15147  -1.10088  -1.09334  -1.06023  -1.05982
 Alpha  occ. eigenvalues --   -1.05453  -1.04371  -0.96839  -0.96026  -0.93283
 Alpha  occ. eigenvalues --   -0.93172  -0.93069  -0.92970  -0.89878  -0.88074
 Alpha  occ. eigenvalues --   -0.85580  -0.84883  -0.84750  -0.79635  -0.79041
 Alpha  occ. eigenvalues --   -0.77271  -0.76786  -0.76326  -0.75790  -0.71447
 Alpha  occ. eigenvalues --   -0.70135  -0.68446  -0.67203  -0.66435  -0.66161
 Alpha  occ. eigenvalues --   -0.64459  -0.63468  -0.62864  -0.62272  -0.61294
 Alpha  occ. eigenvalues --   -0.61001  -0.60666  -0.59909  -0.58778  -0.58553
 Alpha  occ. eigenvalues --   -0.58120  -0.58055  -0.57035  -0.56709  -0.56253
 Alpha  occ. eigenvalues --   -0.56034  -0.55600  -0.54294  -0.53893  -0.53769
 Alpha  occ. eigenvalues --   -0.53662  -0.53489  -0.53382  -0.52994  -0.52230
 Alpha  occ. eigenvalues --   -0.51884  -0.51582  -0.50920  -0.49986  -0.49311
 Alpha  occ. eigenvalues --   -0.48818  -0.48451  -0.47636  -0.47473  -0.47092
 Alpha  occ. eigenvalues --   -0.46773  -0.46612  -0.46351  -0.46225  -0.45573
 Alpha  occ. eigenvalues --   -0.43717  -0.43469  -0.42995  -0.38569  -0.38488
 Alpha  occ. eigenvalues --   -0.36932  -0.36464  -0.34683  -0.33572
 Alpha virt. eigenvalues --    0.03277   0.03644   0.03863   0.03906   0.04253
 Alpha virt. eigenvalues --    0.04408   0.04536   0.05190   0.05365   0.05495
 Alpha virt. eigenvalues --    0.05702   0.05760   0.06011   0.06083   0.06399

 Mulliken charges:
               1
     1  C    0.428082
     2  C    1.226284
     3  C   -0.050818
     4  C    1.735572
     5  H   -0.969729
     6  C   -0.278840
     7  C    1.821054
     8  H   -0.858105
     9  C    0.460316
    10  C    0.208583
    11  H   -0.931361
    12  C    0.260270
    13  O   -0.861155
    14  C    0.526042
    15  C    0.001506
    16  N   -0.498982
    17  H   -0.736502
    18  C   -1.151886
    19  N   -0.635309
    20  H   -0.641230
    21  C   -0.825728
    22  H   -0.176587
    23  C    1.018188
    24  C    1.167135
    25  H   -0.341216
    26  C    1.134443
    27  C    1.086765
    28  H    0.010660
    29  H   -0.033348
    30  H   -0.181000
    31  H   -0.015953
    32  H   -0.059394
    33  H   -0.133638
    34  H   -0.007244
    35  H   -0.068845
    36  H   -0.067580
    37  H   -0.039459
    38  H   -0.011733
    39  H   -0.184594
    40  C    0.815061
    41  C    0.807247
    42  N   -0.731681
    43  H   -0.774242
    44  C   -1.097591
    45  N   -0.823794
    46  H   -0.618539
    47  C   -1.162539
    48  H   -0.387218
    49  C    1.188471
    50  C    1.004502
    51  H   -0.189766
    52  C    1.061967
    53  C    1.142346
    54  H   -0.061955
    55  H   -0.066684
    56  H   -0.079490
    57  H   -0.030023
    58  H   -0.179795
    59  H   -0.017349
    60  H   -0.185002
    61  H    0.030581
    62  H    0.004027
    63  H   -0.066690
    64  H   -0.104298
    65  H   -0.026543
    66  H    0.095923
    67  H   -0.395035
    68  H    0.143509
    69  H   -0.047411
    70  H    0.250723
    71  H   -0.496813
    72  H   -0.326558
 Sum of Mulliken charges =   0.00000

 Dipole moment (field-independent basis, Debye):
    X=              3.0767    Y=              2.2718    Z=             -3.4235  Tot=              5.1330
 Quadrupole moment (field-independent basis, Debye-Ang):
   XX=           -161.2301   YY=           -192.5621   ZZ=           -205.7444
   XY=            -11.6184   XZ=              7.6905   YZ=              9.7396

 Normal termination of Gaussian 16 at Thu Nov 11 16:18:56 2021.
