 Gaussian 16, Revision C.01,
 Gaussian 16:  ES64L-G16RevC.01  3-Jul-2019

 ---------------------------------------------------------------------
 #P MP2/aug-cc-pVDZ SP SCF=(YQC,MaxCycle=900) int=(Grid=Superfinegrid)
 ---------------------------------------------------------------------

 -----------------------------
 _1_alde1_3_ami3_2_opt_gas_mp2
 -----------------------------
 Symbolic Z-matrix:
 Charge =  0 Multiplicity = 1

                         Standard orientation:
 ---------------------------------------------------------------------
 Center     Atomic      Atomic             Coordinates (Angstroms)
 Number     Number       Type             X           Y           Z
 ---------------------------------------------------------------------
      1          6           0        0.262562    1.683372   -1.143704
      2          6           0        0.307044    3.114013   -1.504123
      3          6           0       -0.933736    0.971667   -1.068329
      4          6           0       -0.930947   -0.376816   -0.716723
      5          1           0       -1.867743    1.462717   -1.307458
      6          6           0        0.276042   -1.014699   -0.439659
      7          6           0        1.476920   -0.319755   -0.527463
      8          1           0        0.254868   -2.058802   -0.166783
      9          6           0        1.461349    1.027653   -0.888618
     10          6           0        2.736476   -0.995927   -0.250488
     11          1           0        2.402823    1.551738   -0.951844
     12          6           0       -2.190800   -1.102827   -0.642739
     13          6           0       -2.771942    4.274432   -0.735984
     14          6           0       -1.408639    3.954674   -0.094213
     15          7           0       -3.058646    3.288952   -1.773568
     16          1           0       -2.712488    5.299012   -1.143885
     17          6           0       -3.862280    4.225228    0.332160
     18          7           0       -0.383403    4.082419   -1.090066
     19          1           0       -1.456993    2.948871    0.349441
     20          6           0       -1.119119    4.975427    1.012106
     21          6           0       -3.573155    5.219056    1.451805
     22          6           0       -2.210189    4.938180    2.075384
     23          6           0       -3.492309   -3.003905   -0.247417
     24          6           0       -3.694263   -3.503089    1.194726
     25          7           0       -2.237849   -2.320628   -0.316951
     26          1           0       -4.337442   -2.339324   -0.502201
     27          6           0       -3.449307   -4.190766   -1.215234
     28          7           0       -3.845083   -2.345910    2.066863
     29          1           0       -2.815521   -4.120622    1.455650
     30          6           0       -4.956850   -4.359102    1.284935
     31          6           0       -4.717473   -5.028250   -1.112543
     32          6           0       -4.903485   -5.532628    0.314131
     33          6           0        5.062571   -1.083709   -0.032979
     34          6           0        5.746242   -0.389031    1.158388
     35          7           0        3.842579   -0.393781   -0.317146
     36          1           0        4.884608   -2.139225    0.240689
     37          6           0        5.959148   -1.008711   -1.273084
     38          7           0        4.918968   -0.581855    2.341853
     39          1           0        5.867030    0.677058    0.892803
     40          6           0        7.121749   -1.005208    1.410350
     41          6           0        7.322592   -1.631569   -1.002119
     42          6           0        8.001378   -0.928790    0.168187
     43          1           0        3.993355   -0.197708    2.181677
     44          1           0        5.324511   -0.096465    3.134962
     45          1           0       -2.402922    3.406132   -2.540426
     46          1           0       -3.992418    3.438325   -2.142723
     47          1           0       -3.022653   -1.755145    2.000147
     48          1           0       -3.936048   -2.645119    3.031964
     49          1           0        1.087238    3.375893   -2.217308
     50          1           0        2.658868   -2.059718    0.022487
     51          1           0       -5.823576   -6.115701    0.389150
     52          1           0       -4.068916   -6.186197    0.578730
     53          1           0       -4.656847   -5.871241   -1.804024
     54          1           0       -5.579166   -4.420252   -1.397542
     55          1           0       -3.322397   -3.813036   -2.232079
     56          1           0       -2.576453   -4.799609   -0.972638
     57          1           0       -5.069286   -4.722880    2.308925
     58          1           0       -5.816054   -3.724783    1.060121
     59          1           0       -3.092891   -0.520170   -0.884905
     60          1           0        7.943935   -1.556370   -1.896884
     61          1           0        7.198363   -2.690980   -0.766400
     62          1           0        5.462561   -1.521418   -2.099693
     63          1           0        6.074026    0.040782   -1.550181
     64          1           0        8.969476   -1.390156    0.372677
     65          1           0        8.175813    0.118340   -0.090206
     66          1           0        7.599833   -0.483318    2.242550
     67          1           0        6.980378   -2.046130    1.706590
     68          1           0       -1.994674    5.677213    2.849680
     69          1           0       -2.223280    3.952394    2.546201
     70          1           0       -4.353483    5.154438    2.212654
     71          1           0       -3.582941    6.233481    1.046000
     72          1           0       -3.911629    3.211077    0.733511
     73          1           0       -4.827993    4.451323   -0.126887
     74          1           0       -1.059463    5.968519    0.563735
     75          1           0       -0.147836    4.749151    1.456299
 ---------------------------------------------------------------------

 SCF Done:  E(RHF) =  -1373.74728087     a.u. after    6 cycles
 SCF Done:  E(RHF) =  -1373.74738992     A.U. after   12 cycles
 E2 =    -0.4904784316D+01 EUMP2 =    -0.13786521742361D+04

 The electronic state is 1-A.
 Alpha  occ. eigenvalues --  -15.55984 -15.55955 -15.55835 -15.55005 -15.54006
 Alpha  occ. eigenvalues --  -15.53996 -11.28506 -11.28355 -11.28278 -11.25592
 Alpha  occ. eigenvalues --  -11.25145 -11.25104 -11.25100 -11.25054 -11.24993
 Alpha  occ. eigenvalues --  -11.24983 -11.24944 -11.24892 -11.24765 -11.24666
 Alpha  occ. eigenvalues --  -11.24540 -11.22186 -11.22096 -11.21918 -11.21871
 Alpha  occ. eigenvalues --  -11.21865 -11.21811 -11.21803 -11.21726 -11.21710
 Alpha  occ. eigenvalues --  -11.21641 -11.21601 -11.21596  -1.25444  -1.25152
 Alpha  occ. eigenvalues --   -1.24903  -1.19015  -1.18473  -1.18108  -1.16323
 Alpha  occ. eigenvalues --   -1.10223  -1.10008  -1.09724  -1.05664  -1.05378
 Alpha  occ. eigenvalues --   -1.00680  -0.99979  -0.99626  -0.97986  -0.97517
 Alpha  occ. eigenvalues --   -0.97289  -0.88954  -0.88736  -0.87160  -0.83812
 Alpha  occ. eigenvalues --   -0.82897  -0.82268  -0.81831  -0.81363  -0.79893
 Alpha  occ. eigenvalues --   -0.76746  -0.76075  -0.75874  -0.74820  -0.73811
 Alpha  occ. eigenvalues --   -0.69792  -0.68836  -0.66948  -0.66347  -0.66128
 Alpha  occ. eigenvalues --   -0.65191  -0.65033  -0.64799  -0.64329  -0.64136
 Alpha  occ. eigenvalues --   -0.63951  -0.62181  -0.61710  -0.61522  -0.61430
 Alpha  occ. eigenvalues --   -0.61155  -0.60708  -0.59604  -0.59138  -0.59017
 Alpha  occ. eigenvalues --   -0.55807  -0.55474  -0.55341  -0.54354  -0.53386
 Alpha  occ. eigenvalues --   -0.52984  -0.52956  -0.52821  -0.52663  -0.52594
 Alpha  occ. eigenvalues --   -0.51913  -0.51227  -0.50513  -0.50076  -0.49784
 Alpha  occ. eigenvalues --   -0.49047  -0.48771  -0.48599  -0.47038  -0.46608
 Alpha  occ. eigenvalues --   -0.46457  -0.46273  -0.46237  -0.45318  -0.43868
 Alpha  occ. eigenvalues --   -0.43635  -0.43476  -0.42522  -0.42108  -0.40805
 Alpha  occ. eigenvalues --   -0.40289  -0.40100  -0.39055  -0.38637  -0.38384
 Alpha  occ. eigenvalues --   -0.38044  -0.32714  -0.31841
 Alpha virt. eigenvalues --    0.03139   0.03419   0.03542   0.03660   0.04036
 Alpha virt. eigenvalues --    0.04128   0.04354   0.04381   0.04536   0.05058
 Alpha virt. eigenvalues --    0.05336   0.05507   0.05688   0.05872   0.05900

 Mulliken charges:
               1
     1  C    0.368722
     2  C    0.287589
     3  C    1.166145
     4  C    0.097592
     5  H   -0.642331
     6  C    0.730171
     7  C    0.844203
     8  H   -0.852808
     9  C   -0.379841
    10  C    0.070353
    11  H   -0.835998
    12  C    0.562586
    13  C    0.217788
    14  C   -0.258245
    15  N   -0.415839
    16  H   -0.223148
    17  C    0.573331
    18  N   -0.326556
    19  H   -0.342778
    20  C    0.664300
    21  C    0.366553
    22  C    0.516826
    23  C   -0.594922
    24  C    0.542629
    25  N   -0.247854
    26  H   -0.326780
    27  C    0.851581
    28  N   -0.333980
    29  H   -0.198441
    30  C    0.640617
    31  C    0.585930
    32  C    0.486043
    33  C   -0.551461
    34  C    0.532388
    35  N   -0.202847
    36  H   -0.312498
    37  C    0.802708
    38  N   -0.352651
    39  H   -0.204008
    40  C    0.635444
    41  C    0.589827
    42  C    0.483484
    43  H   -0.016399
    44  H   -0.033070
    45  H    0.076615
    46  H   -0.035844
    47  H   -0.032912
    48  H   -0.033365
    49  H   -0.416148
    50  H   -0.688963
    51  H   -0.154547
    52  H   -0.109638
    53  H   -0.126261
    54  H   -0.105948
    55  H   -0.215074
    56  H   -0.130726
    57  H   -0.153869
    58  H   -0.024959
    59  H   -0.844700
    60  H   -0.123792
    61  H   -0.112988
    62  H   -0.225089
    63  H   -0.130669
    64  H   -0.156172
    65  H   -0.105859
    66  H   -0.155048
    67  H   -0.016921
    68  H   -0.151085
    69  H   -0.087123
    70  H   -0.148219
    71  H   -0.102968
    72  H   -0.041183
    73  H   -0.194123
    74  H   -0.068250
    75  H   -0.148525
 Sum of Mulliken charges =   0.00000

 Dipole moment (field-independent basis, Debye):
    X=             -0.7309    Y=             -0.0280    Z=             -0.0610  Tot=              0.7340
 Quadrupole moment (field-independent basis, Debye-Ang):
   XX=           -196.2697   YY=           -203.2143   ZZ=           -201.6646
   XY=             -2.7483   XZ=              3.6728   YZ=              1.3170

 Normal termination of Gaussian 16 at Mon Nov  1 18:27:45 2021.
