 Gaussian 16, Revision C.01,
 Gaussian 16:  ES64L-G16RevC.01  3-Jul-2019

 ----------------------------------------------------------------------
 #P PBE1PBE/Def2TZVP SP SCF=(YQC,MaxCycle=900) int=(Grid=Superfinegrid)
  EmpiricalDispersion=GD3 SCRF=(PCM,Solvent=Dichloromethane)
 ----------------------------------------------------------------------

 -------------------------
 _1_alde1_2_ami4_1_opt_dcm
 -------------------------
 Symbolic Z-matrix:
 Charge =  0 Multiplicity = 1

                         Standard orientation:
 ---------------------------------------------------------------------
 Center     Atomic      Atomic             Coordinates (Angstroms)
 Number     Number       Type             X           Y           Z
 ---------------------------------------------------------------------
      1          6           0        0.345219    2.086327   -0.123314
      2          6           0        0.749759    3.496334   -0.143748
      3          6           0       -0.990899    1.733669   -0.303384
      4          6           0       -1.366189    0.400017   -0.291220
      5          1           0       -1.738352    2.500354   -0.447950
      6          6           0       -0.402863   -0.580723   -0.092034
      7          6           0        0.932339   -0.242552    0.085187
      8          1           0       -0.712090   -1.614873   -0.087189
      9          6           0        1.303159    1.091315    0.067656
     10          6           0        1.983578   -1.309404    0.252632
     11          1           0        2.334033    1.373408    0.218878
     12          6           0       -2.820810    0.031850   -0.441217
     13          8           0        1.879064    3.902862   -0.039156
     14          6           0       -4.712246   -0.584450    0.689757
     15          6           0       -4.203105   -1.847941   -0.034928
     16          7           0       -3.547361    0.279155    0.794678
     17          1           0       -5.142493   -0.789728    1.667702
     18          7           0       -3.007799   -1.395451   -0.743214
     19          1           0       -4.957192   -2.271956   -0.701315
     20          6           0        4.326268   -1.257708    0.618511
     21          6           0        3.954482   -2.087118   -0.626145
     22          7           0        3.036929   -0.876182    1.189222
     23          1           0        4.861387   -0.347011    0.323400
     24          7           0        2.644042   -1.590282   -1.013715
     25          1           0        3.848523   -3.143829   -0.360621
     26          1           0        2.890163   -1.260928    2.112233
     27          1           0        1.506710   -2.246418    0.589425
     28          1           0        2.749181   -0.719188   -1.527469
     29          1           0       -2.969641   -0.017720    1.576932
     30          1           0       -3.052316   -1.562098   -1.739305
     31          1           0       -3.277693    0.672985   -1.218375
     32          1           0       -0.098431    4.199211   -0.273418
     33          1           0       -3.909534   -2.616772    0.689850
     34          1           0        4.949018   -1.812509    1.321709
     35          1           0       -5.456227   -0.068974    0.074373
     36          1           0        4.669620   -1.995228   -1.440933
 ---------------------------------------------------------------------

 SCF Done:  E(RPBE1PBE) =  -799.815064504     a.u. after    6 cycles
 SCF Done:  E(RPBE1PBE) =  -799.815070705     A.U. after    9 cycles

 The electronic state is 1-A.
 Alpha  occ. eigenvalues --  -19.20748 -14.37756 -14.37658 -14.36758 -14.36600
 Alpha  occ. eigenvalues --  -10.31200 -10.28107 -10.27923 -10.24365 -10.24238
 Alpha  occ. eigenvalues --  -10.24080 -10.24071 -10.24050 -10.23987 -10.23940
 Alpha  occ. eigenvalues --  -10.23901 -10.23391 -10.23348  -1.08518  -0.99389
 Alpha  occ. eigenvalues --   -0.99193  -0.90165  -0.87860  -0.87711  -0.81424
 Alpha  occ. eigenvalues --   -0.80881  -0.75496  -0.74288  -0.68235  -0.65873
 Alpha  occ. eigenvalues --   -0.64659  -0.62914  -0.62771  -0.60097  -0.58442
 Alpha  occ. eigenvalues --   -0.54869  -0.53759  -0.52468  -0.51574  -0.51141
 Alpha  occ. eigenvalues --   -0.49486  -0.47657  -0.45948  -0.45868  -0.44482
 Alpha  occ. eigenvalues --   -0.44097  -0.43834  -0.43171  -0.41764  -0.41399
 Alpha  occ. eigenvalues --   -0.40387  -0.39946  -0.39720  -0.39019  -0.37640
 Alpha  occ. eigenvalues --   -0.37024  -0.36334  -0.36210  -0.35172  -0.28126
 Alpha  occ. eigenvalues --   -0.28006  -0.27788  -0.26281  -0.26099  -0.23946
 Alpha  occ. eigenvalues --   -0.23721
 Alpha virt. eigenvalues --   -0.06710  -0.02098   0.03444   0.04214   0.04804
 Alpha virt. eigenvalues --    0.05976   0.06513   0.07903   0.08105   0.08532
 Alpha virt. eigenvalues --    0.09083   0.09478   0.10315   0.11200   0.11484

 Mulliken charges:
               1
     1  C    0.246776
     2  C    0.066876
     3  C   -0.340062
     4  C    0.251023
     5  H    0.128053
     6  C   -0.378535
     7  C    0.371158
     8  H    0.120341
     9  C   -0.334675
    10  C   -0.113310
    11  H    0.132771
    12  C   -0.072058
    13  O   -0.334124
    14  C   -0.135783
    15  C   -0.133172
    16  N   -0.313812
    17  H    0.139358
    18  N   -0.313206
    19  H    0.114093
    20  C   -0.134374
    21  C   -0.125855
    22  N   -0.316836
    23  H    0.087613
    24  N   -0.309659
    25  H    0.092242
    26  H    0.218856
    27  H    0.100136
    28  H    0.216216
    29  H    0.214523
    30  H    0.221959
    31  H    0.098722
    32  H    0.092582
    33  H    0.088969
    34  H    0.119732
    35  H    0.095767
    36  H    0.137697
 Sum of Mulliken charges =   0.00000

 Dipole moment (field-independent basis, Debye):
    X=             -3.0693    Y=             -4.5906    Z=             -0.0020  Tot=              5.5221
 Quadrupole moment (field-independent basis, Debye-Ang):
   XX=            -91.9877   YY=           -118.1816   ZZ=           -102.3418
   XY=            -10.6311   XZ=              3.9275   YZ=             -7.1738

 Normal termination of Gaussian 16 at Mon Oct 18 06:04:56 2021.
