 Gaussian 16, Revision C.01,
 Gaussian 16:  ES64L-G16RevC.01  3-Jul-2019

 ---------------------------------------------------------------------
 #P MP2/aug-cc-pVDZ SP SCF=(YQC,MaxCycle=900) int=(Grid=Superfinegrid)
 ---------------------------------------------------------------------

 -----------------------------
 _1_alde1_2_ami1_1_opt_gas_mp2
 -----------------------------
 Symbolic Z-matrix:
 Charge =  0 Multiplicity = 1

                         Standard orientation:
 ---------------------------------------------------------------------
 Center     Atomic      Atomic             Coordinates (Angstroms)
 Number     Number       Type             X           Y           Z
 ---------------------------------------------------------------------
      1          6           0       -0.039197   -1.334061    2.017131
      2          6           0       -0.094621   -2.130189    3.247446
      3          6           0       -1.210566   -0.809200    1.473536
      4          6           0       -1.166450   -0.054933    0.312542
      5          1           0       -2.151934   -0.983609    1.972420
      6          6           0        0.054216    0.160173   -0.313171
      7          6           0        1.228874   -0.362678    0.214085
      8          1           0        0.094110    0.742448   -1.222119
      9          6           0        1.180641   -1.101881    1.384150
     10          6           0        2.548083   -0.083886   -0.456904
     11          1           0        2.097515   -1.503480    1.789793
     12          6           0       -2.442120    0.477499   -0.280952
     13          8           0       -1.094426   -2.404122    3.861782
     14          6           0       -4.724882    0.838135    0.120125
     15          6           0       -4.516930   -0.095125   -1.111782
     16          7           0       -3.412249    0.829183    0.751200
     17          1           0       -5.444331    0.402213    0.825233
     18          6           0       -5.241635    2.237290   -0.275664
     19          7           0       -3.124738   -0.535812   -1.064738
     20          1           0       -4.612861    0.509837   -2.023477
     21          6           0       -5.513153   -1.259054   -1.201242
     22          1           0       -4.529491    2.681262   -0.982241
     23          6           0       -5.355211    3.148805    0.947223
     24          6           0       -6.610545    2.140528   -0.946794
     25          1           0       -6.515028   -0.826345   -1.106934
     26          6           0       -5.331986   -2.290670   -0.086446
     27          6           0       -5.401210   -1.936640   -2.565897
     28          1           0       -7.326840    1.679578   -0.269562
     29          1           0       -6.569801    1.551421   -1.858789
     30          1           0       -6.972818    3.134127   -1.201924
     31          1           0       -6.008224    2.698331    1.692039
     32          1           0       -5.774429    4.110224    0.658280
     33          1           0       -4.388111    3.335255    1.409233
     34          1           0       -4.384314   -2.286560   -2.724453
     35          1           0       -5.650736   -1.240329   -3.363241
     36          1           0       -6.078992   -2.785247   -2.625305
     37          1           0       -5.206140   -1.810787    0.881044
     38          1           0       -4.467490   -2.924096   -0.275632
     39          1           0       -6.206937   -2.934966   -0.036625
     40          6           0        4.868404   -0.450043   -0.245626
     41          6           0        4.541872    1.071175   -0.295845
     42          7           0        3.559735   -1.081506   -0.113059
     43          1           0        5.429700   -0.669671    0.674553
     44          6           0        5.713711   -0.943622   -1.438552
     45          7           0        3.113416    1.173593   -0.000708
     46          1           0        4.684308    1.440029   -1.319180
     47          6           0        5.367517    1.939114    0.657411
     48          1           0        6.554582   -0.250440   -1.544131
     49          6           0        4.943210   -0.957836   -2.758367
     50          6           0        6.276412   -2.334848   -1.146826
     51          1           0        5.188070    1.583706    1.679912
     52          6           0        4.914111    3.395034    0.555253
     53          6           0        6.863100    1.845269    0.364591
     54          1           0        5.473638   -3.053590   -0.993670
     55          1           0        6.892639   -2.319402   -0.250492
     56          1           0        6.888361   -2.678610   -1.977796
     57          1           0        4.127522   -1.678582   -2.732344
     58          1           0        5.610153   -1.240108   -3.570066
     59          1           0        4.529547    0.021814   -2.985881
     60          1           0        7.411452    2.508051    1.030328
     61          1           0        7.067680    2.147441   -0.660460
     62          1           0        7.235095    0.834774    0.510653
     63          1           0        5.427688    4.004529    1.295317
     64          1           0        3.842790    3.475868    0.714086
     65          1           0        5.142216    3.787933   -0.432934
     66          1           0        3.473017   -1.927934   -0.659998
     67          1           0        2.390116    0.004116   -1.548541
     68          1           0        2.988700    1.228693    1.007932
     69          1           0       -3.185842    1.690275    1.229493
     70          1           0       -3.067468   -1.413324   -0.556439
     71          1           0       -2.213676    1.324348   -0.958655
     72          1           0        0.898957   -2.484555    3.590912
 ---------------------------------------------------------------------

 SCF Done:  E(RHF) =  -1263.95284688     a.u. after    7 cycles
 SCF Done:  E(RHF) =  -1263.95286967     A.U. after   11 cycles
 E2 =    -0.4531070125D+01 EUMP2 =    -0.12684839397915D+04

 The electronic state is 1-A.
 Alpha  occ. eigenvalues --  -20.55620 -15.55270 -15.54933 -15.54576 -15.54346
 Alpha  occ. eigenvalues --  -11.33154 -11.29281 -11.28875 -11.25661 -11.25581
 Alpha  occ. eigenvalues --  -11.25097 -11.25031 -11.24756 -11.24625 -11.24367
 Alpha  occ. eigenvalues --  -11.24268 -11.24227 -11.23971 -11.23649 -11.23646
 Alpha  occ. eigenvalues --  -11.23171 -11.23031 -11.22473 -11.22353 -11.22259
 Alpha  occ. eigenvalues --  -11.22039 -11.21917 -11.21560 -11.21470 -11.21136
 Alpha  occ. eigenvalues --   -1.39104  -1.28540  -1.28085  -1.17164  -1.15677
 Alpha  occ. eigenvalues --   -1.15047  -1.10429  -1.09566  -1.06651  -1.06219
 Alpha  occ. eigenvalues --   -1.05039  -1.04243  -0.97103  -0.96124  -0.94132
 Alpha  occ. eigenvalues --   -0.93594  -0.93495  -0.93132  -0.89263  -0.87954
 Alpha  occ. eigenvalues --   -0.85712  -0.85325  -0.84927  -0.79481  -0.79070
 Alpha  occ. eigenvalues --   -0.77557  -0.77121  -0.76244  -0.75989  -0.71079
 Alpha  occ. eigenvalues --   -0.70112  -0.68505  -0.66797  -0.66589  -0.65834
 Alpha  occ. eigenvalues --   -0.64138  -0.63525  -0.62702  -0.62380  -0.61697
 Alpha  occ. eigenvalues --   -0.61527  -0.60923  -0.59904  -0.59154  -0.58643
 Alpha  occ. eigenvalues --   -0.58330  -0.58128  -0.57407  -0.57090  -0.56341
 Alpha  occ. eigenvalues --   -0.55779  -0.55090  -0.54628  -0.54280  -0.54167
 Alpha  occ. eigenvalues --   -0.53813  -0.53743  -0.53520  -0.53108  -0.52756
 Alpha  occ. eigenvalues --   -0.52193  -0.51740  -0.50988  -0.49917  -0.49447
 Alpha  occ. eigenvalues --   -0.48896  -0.48556  -0.48188  -0.48030  -0.47602
 Alpha  occ. eigenvalues --   -0.47180  -0.47043  -0.46755  -0.46356  -0.45668
 Alpha  occ. eigenvalues --   -0.44251  -0.43581  -0.41749  -0.38658  -0.38123
 Alpha  occ. eigenvalues --   -0.37183  -0.36498  -0.34089  -0.33191
 Alpha virt. eigenvalues --    0.02914   0.03299   0.03491   0.03716   0.03940
 Alpha virt. eigenvalues --    0.04111   0.04426   0.04929   0.05076   0.05244
 Alpha virt. eigenvalues --    0.05457   0.05524   0.05883   0.06041   0.06417

 Mulliken charges:
               1
     1  C    0.428009
     2  C    1.190707
     3  C   -0.053713
     4  C    1.720237
     5  H   -0.966791
     6  C   -0.255164
     7  C    1.804301
     8  H   -0.853442
     9  C    0.479827
    10  C    0.198377
    11  H   -0.932724
    12  C    0.233090
    13  O   -0.798354
    14  C    0.519883
    15  C   -0.007062
    16  N   -0.455579
    17  H   -0.740373
    18  C   -1.145151
    19  N   -0.575411
    20  H   -0.651931
    21  C   -0.817467
    22  H   -0.184161
    23  C    1.014311
    24  C    1.162306
    25  H   -0.351095
    26  C    1.133157
    27  C    1.084068
    28  H    0.009088
    29  H   -0.031503
    30  H   -0.181159
    31  H   -0.014013
    32  H   -0.059143
    33  H   -0.135112
    34  H    0.000671
    35  H   -0.071592
    36  H   -0.067939
    37  H   -0.037168
    38  H   -0.012957
    39  H   -0.185484
    40  C    0.815365
    41  C    0.791176
    42  N   -0.708982
    43  H   -0.778544
    44  C   -1.086423
    45  N   -0.764612
    46  H   -0.627094
    47  C   -1.149757
    48  H   -0.394476
    49  C    1.181071
    50  C    0.999811
    51  H   -0.199347
    52  C    1.059142
    53  C    1.136816
    54  H   -0.062660
    55  H   -0.066305
    56  H   -0.078946
    57  H   -0.032285
    58  H   -0.179629
    59  H   -0.016947
    60  H   -0.184054
    61  H    0.027603
    62  H    0.003052
    63  H   -0.066926
    64  H   -0.098129
    65  H   -0.027887
    66  H    0.078408
    67  H   -0.408880
    68  H    0.127228
    69  H   -0.063281
    70  H    0.240421
    71  H   -0.510928
    72  H   -0.347547
 Sum of Mulliken charges =   0.00000

 Dipole moment (field-independent basis, Debye):
    X=              2.3959    Y=              1.9079    Z=             -2.8527  Tot=              4.1855
 Quadrupole moment (field-independent basis, Debye-Ang):
   XX=           -166.0724   YY=           -192.1442   ZZ=           -203.7715
   XY=             -9.1746   XZ=              5.8761   YZ=              8.6158

 Normal termination of Gaussian 16 at Mon Nov  8 14:25:13 2021.
