 Gaussian 16, Revision C.01,
 Gaussian 16:  ES64L-G16RevC.01  3-Jul-2019

 ----------------------------------------------------------------------
 #P PBE1PBE/Def2TZVP SP SCF=(YQC,MaxCycle=900) int=(Grid=Superfinegrid)
  EmpiricalDispersion=GD3 SCRF=(PCM,Solvent=Chloroform)
 ----------------------------------------------------------------------

 -------------------------
 _1_alde1_3_ami2_2_opt_cfm
 -------------------------
 Symbolic Z-matrix:
 Charge =  0 Multiplicity = 1

                         Standard orientation:
 ---------------------------------------------------------------------
 Center     Atomic      Atomic             Coordinates (Angstroms)
 Number     Number       Type             X           Y           Z
 ---------------------------------------------------------------------
      1          6           0       -1.169673   -0.766423   -0.790060
      2          6           0       -2.384444   -1.568444   -0.790737
      3          6           0       -1.238045    0.627282   -0.790055
      4          6           0       -0.079215    1.394513   -0.791224
      5          1           0       -2.211449    1.093813   -0.793050
      6          6           0        1.162049    0.756951   -0.791829
      7          6           0        1.247006   -0.630305   -0.791846
      8          1           0        2.052673    1.366630   -0.796194
      9          6           0        0.074205   -1.386413   -0.790396
     10          6           0        2.548848   -1.281439   -0.794116
     11          1           0        0.156900   -2.462630   -0.793631
     12          6           0       -0.166294    2.847536   -0.792441
     13          6           0       -5.538033   -1.523638    0.508080
     14          6           0       -4.702203   -1.847229   -0.766540
     15          7           0       -5.823705   -0.104862    0.625561
     16          6           0       -6.865344   -2.279283    0.435120
     17          7           0       -3.530330   -1.040450   -0.795901
     18          1           0       -7.461214   -2.042669    1.312011
     19          6           0        0.751507    4.994088   -0.767099
     20          6           0        1.448827    5.556063    0.507948
     21          7           0        0.863948    3.575761   -0.796250
     22          1           0        1.283772    5.379902   -1.643821
     23          7           0        2.820278    5.094013    0.626310
     24          6           0        1.458202    7.083413    0.435083
     25          6           0        3.948953   -3.149524   -0.768669
     26          6           0        4.090371   -4.030850    0.508400
     27          7           0        2.664335   -2.537842   -0.796241
     28          1           0        4.014730   -3.805812   -1.643746
     29          7           0        3.004946   -4.987438    0.632333
     30          6           0        4.074598   -3.136705    1.749733
     31          1           0        3.153595   -2.558723    1.786664
     32          1           0       -6.358776    0.214224   -0.175297
     33          1           0       -4.951619    0.413299    0.637175
     34          1           0        3.364572    5.397882   -0.174249
     35          1           0        2.832900    4.079681    0.637998
     36          1           0       -2.238502   -2.659903   -0.792568
     37          1           0        3.421262   -0.609564   -0.799934
     38          1           0       -6.696101   -3.352178    0.400376
     39          1           0       -7.425254   -1.986677   -0.450822
     40          1           0       -0.294406    5.342270   -0.803566
     41          1           0        1.992019    7.422043   -0.450626
     42          1           0        1.960688    7.481093    1.312275
     43          1           0        0.444402    7.473338    0.399984
     44          1           0        4.773321   -2.417920   -0.809291
     45          1           0        4.918304   -2.451183    1.740048
     46          1           0        4.129824   -3.756049    2.640293
     47          6           0        0.686807    5.094179    1.751670
     48          1           0        0.646744    4.007524    1.787563
     49          1           0       -0.328560    5.482228    1.746342
     50          1           0        1.199096    5.450609    2.640705
     51          1           0       -5.302320   -1.579780   -1.643598
     52          1           0       -4.480643   -2.926993   -0.802321
     53          6           0       -4.757383   -1.951935    1.752142
     54          1           0       -4.586003   -3.025320    1.747503
     55          1           0       -5.322307   -1.685762    2.640901
     56          1           0       -3.796141   -1.443554    1.787985
     57          1           0        2.993877   -5.612984   -0.166434
     58          1           0        2.120160   -4.491232    0.644947
     59          6           0        5.408223   -4.802810    0.434071
     60          1           0        6.252683   -4.119819    0.395073
     61          1           0        5.432373   -5.436706   -0.450003
     62          1           0        5.503716   -5.434539    1.312676
     63          1           0       -1.184405    3.267024   -0.795443
 ---------------------------------------------------------------------

 SCF Done:  E(RPBE1PBE) =  -1149.49614492     a.u. after    6 cycles
 SCF Done:  E(RPBE1PBE) =  -1149.49617045     A.U. after    7 cycles

 The electronic state is 1-A.
 Alpha  occ. eigenvalues --  -14.38149 -14.38149 -14.38147 -14.35418 -14.35415
 Alpha  occ. eigenvalues --  -14.35410 -10.26962 -10.26961 -10.26960 -10.25867
 Alpha  occ. eigenvalues --  -10.25864 -10.25863 -10.24666 -10.24663 -10.24662
 Alpha  occ. eigenvalues --  -10.24206 -10.24205 -10.24203 -10.24160 -10.24159
 Alpha  occ. eigenvalues --  -10.24152 -10.20481 -10.20479 -10.20478 -10.20202
 Alpha  occ. eigenvalues --  -10.20198 -10.20197  -0.97061  -0.96781  -0.96779
 Alpha  occ. eigenvalues --   -0.92053  -0.91619  -0.91616  -0.89798  -0.81478
 Alpha  occ. eigenvalues --   -0.81478  -0.78462  -0.78000  -0.77998  -0.72973
 Alpha  occ. eigenvalues --   -0.72212  -0.72211  -0.71009  -0.71006  -0.71003
 Alpha  occ. eigenvalues --   -0.65916  -0.65916  -0.63044  -0.57550  -0.57548
 Alpha  occ. eigenvalues --   -0.57118  -0.55987  -0.55986  -0.54123  -0.52577
 Alpha  occ. eigenvalues --   -0.50639  -0.50637  -0.50227  -0.49942  -0.49940
 Alpha  occ. eigenvalues --   -0.49787  -0.47909  -0.47909  -0.47674  -0.46983
 Alpha  occ. eigenvalues --   -0.46982  -0.45474  -0.44938  -0.44936  -0.44653
 Alpha  occ. eigenvalues --   -0.42902  -0.42214  -0.42213  -0.41751  -0.39135
 Alpha  occ. eigenvalues --   -0.39133  -0.39040  -0.39027  -0.39025  -0.38550
 Alpha  occ. eigenvalues --   -0.38544  -0.38542  -0.37617  -0.37112  -0.37112
 Alpha  occ. eigenvalues --   -0.36764  -0.36763  -0.36385  -0.34892  -0.34889
 Alpha  occ. eigenvalues --   -0.34287  -0.33795  -0.33793  -0.30886  -0.27661
 Alpha  occ. eigenvalues --   -0.27323  -0.27321  -0.26734  -0.26732  -0.25161
 Alpha  occ. eigenvalues --   -0.24765  -0.24761
 Alpha virt. eigenvalues --   -0.06343  -0.06343  -0.02405   0.04102   0.04227
 Alpha virt. eigenvalues --    0.04228   0.05685   0.05686   0.06380   0.06382
 Alpha virt. eigenvalues --    0.07002   0.08070   0.08352   0.08871   0.08874

 Mulliken charges:
               1
     1  C    0.362283
     2  C   -0.168874
     3  C   -0.349388
     4  C    0.362280
     5  H    0.130448
     6  C   -0.349110
     7  C    0.362541
     8  H    0.130492
     9  C   -0.349312
    10  C   -0.168742
    11  H    0.130445
    12  C   -0.168737
    13  C    0.152733
    14  C   -0.133145
    15  N   -0.540587
    16  C   -0.369888
    17  N   -0.189280
    18  H    0.130166
    19  C   -0.133700
    20  C    0.153323
    21  N   -0.189542
    22  H    0.122366
    23  N   -0.540766
    24  C   -0.370108
    25  C   -0.133484
    26  C    0.152522
    27  N   -0.189211
    28  H    0.122361
    29  N   -0.540700
    30  C   -0.385051
    31  H    0.131836
    32  H    0.220471
    33  H    0.229279
    34  H    0.220487
    35  H    0.229262
    36  H    0.085834
    37  H    0.085728
    38  H    0.121018
    39  H    0.122975
    40  H    0.081439
    41  H    0.123041
    42  H    0.130204
    43  H    0.121077
    44  H    0.081343
    45  H    0.117450
    46  H    0.128090
    47  C   -0.385100
    48  H    0.131837
    49  H    0.117477
    50  H    0.128024
    51  H    0.122207
    52  H    0.081402
    53  C   -0.385065
    54  H    0.117417
    55  H    0.127990
    56  H    0.131896
    57  H    0.220523
    58  H    0.229280
    59  C   -0.369839
    60  H    0.121076
    61  H    0.123056
    62  H    0.130142
    63  H    0.085809
 Sum of Mulliken charges =   0.00000

 Dipole moment (field-independent basis, Debye):
    X=             -0.0060    Y=             -0.0024    Z=             -3.4068  Tot=              3.4068
 Quadrupole moment (field-independent basis, Debye-Ang):
   XX=           -166.7376   YY=           -166.6605   ZZ=           -175.3512
   XY=             -0.0000   XZ=             -0.0382   YZ=              0.0195

 Normal termination of Gaussian 16 at Mon Oct 18 16:20:16 2021.
