 Gaussian 16, Revision C.01,
 Gaussian 16:  ES64L-G16RevC.01  3-Jul-2019

 ----------------------------------------------------------------------
 #P MP2/aug-cc-pVDZ SP SCF=(YQC,MaxCycle=900) int=(Grid=Superfinegrid)
 SCRF=(PCM,Solvent=Chloroform)
 ----------------------------------------------------------------------

 -----------------------------
 _1_alde1_3_ami2_1_opt_cfm_mp2
 -----------------------------
 Symbolic Z-matrix:
 Charge =  0 Multiplicity = 1

                         Standard orientation:
 ---------------------------------------------------------------------
 Center     Atomic      Atomic             Coordinates (Angstroms)
 Number     Number       Type             X           Y           Z
 ---------------------------------------------------------------------
      1          6           0       -0.127528    0.891032   -0.056696
      2          6           0        0.282226    2.339058   -0.009519
      3          6           0       -1.460848    0.515509   -0.072365
      4          6           0       -1.812099   -0.827342   -0.080540
      5          1           0       -2.241211    1.261254   -0.089712
      6          6           0       -0.820785   -1.797217   -0.068626
      7          6           0        0.516172   -1.431208   -0.050336
      8          1           0       -1.093237   -2.842698   -0.073838
      9          6           0        0.854570   -0.087157   -0.044485
     10          6           0        1.615570   -2.459523   -0.074356
     11          1           0        1.894240    0.200866   -0.031017
     12          6           0       -3.266134   -1.216750   -0.052972
     13          6           0        1.529412    3.878159    1.139767
     14          6           0        2.300026    3.601749   -0.179097
     15          7           0        0.653327    2.736393    1.339438
     16          7           0        1.479335    2.574537   -0.825221
     17          6           0       -5.429055   -0.233142   -0.163418
     18          6           0       -5.226628   -1.088457    1.117714
     19          7           0       -4.099780   -0.255742   -0.777921
     20          7           0       -3.790143   -1.210874    1.303971
     21          6           0        3.986908   -2.510757    0.184182
     22          6           0        3.517479   -3.123004   -1.162990
     23          7           0        2.732315   -2.053962    0.787190
     24          7           0        2.187645   -2.589988   -1.404858
     25          1           0        2.614868   -2.363828    1.742179
     26          1           0        1.211959   -3.449555    0.208898
     27          1           0        2.256738   -1.662097   -1.814485
     28          1           0       -0.563561    2.980198   -0.320515
     29          1           0        1.172611    1.973048    1.765181
     30          1           0       -4.123509   -0.432766   -1.773115
     31          1           0       -3.431359   -0.387026    1.779415
     32          1           0       -3.383111   -2.246794   -0.441637
     33          1           0       -5.629615   -2.094405    0.960927
     34          1           0       -5.701040   -0.655365    1.996245
     35          1           0        3.429654   -4.210307   -1.066522
     36          1           0        4.188090   -2.897913   -1.990102
     37          6           0        3.683281    3.005778    0.108515
     38          1           0        3.588106    2.129673    0.745452
     39          1           0        4.319389    3.736183    0.602949
     40          1           0        4.155619    2.700585   -0.822114
     41          1           0        1.254223    2.793166   -1.786223
     42          6           0        2.436735    4.865008   -1.028032
     43          6           0       -6.507467   -0.828424   -1.069681
     44          1           0       -7.458412   -0.875485   -0.543815
     45          1           0       -6.232350   -1.836064   -1.377835
     46          1           0       -6.634454   -0.214145   -1.959268
     47          6           0       -5.777447    1.217083    0.188887
     48          1           0       -5.029816    1.626712    0.863694
     49          1           0       -6.753363    1.270418    0.665466
     50          1           0       -5.792057    1.824597   -0.712703
     51          6           0        4.714549   -3.539909    1.048280
     52          1           0        4.060867   -4.382245    1.270134
     53          1           0        5.032332   -3.088446    1.986338
     54          1           0        5.594159   -3.913254    0.528867
     55          6           0        4.883464   -1.289149   -0.051010
     56          1           0        5.096882   -0.798949    0.895705
     57          1           0        4.380393   -0.575162   -0.698538
     58          1           0        5.821969   -1.586681   -0.512678
     59          1           0        2.981979    5.629887   -0.479618
     60          1           0        1.455063    5.259103   -1.286734
     61          1           0        2.978069    4.645978   -1.946567
     62          1           0        2.186660    4.024276    1.994835
     63          1           0        0.899927    4.766688    1.023214
 ---------------------------------------------------------------------

 SCF Done:  E(RHF) =  -1143.01178124     a.u. after    6 cycles
 SCF Done:  E(RHF) =  -1143.01180353     A.U. after   10 cycles
 E2 =    -0.4089125933D+01 EUMP2 =    -0.11471009294660D+04

 The electronic state is 1-A.
 Alpha  occ. eigenvalues --  -15.55186 -15.55181 -15.55131 -15.53851 -15.53806
 Alpha  occ. eigenvalues --  -15.53797 -11.28535 -11.28527 -11.28501 -11.25827
 Alpha  occ. eigenvalues --  -11.25821 -11.25810 -11.24711 -11.24708 -11.24696
 Alpha  occ. eigenvalues --  -11.23349 -11.23271 -11.23202 -11.22836 -11.22419
 Alpha  occ. eigenvalues --  -11.22033 -11.21684 -11.21662 -11.21629 -11.20938
 Alpha  occ. eigenvalues --  -11.20903 -11.20892  -1.27863  -1.27706  -1.27644
 Alpha  occ. eigenvalues --   -1.15932  -1.14600  -1.14584  -1.14518  -1.07202
 Alpha  occ. eigenvalues --   -1.07093  -1.04661  -1.01352  -1.00813  -0.93553
 Alpha  occ. eigenvalues --   -0.93494  -0.93456  -0.92012  -0.91629  -0.91540
 Alpha  occ. eigenvalues --   -0.86536  -0.85545  -0.84358  -0.78930  -0.77392
 Alpha  occ. eigenvalues --   -0.76257  -0.76239  -0.76213  -0.70907  -0.69500
 Alpha  occ. eigenvalues --   -0.67569  -0.66823  -0.66458  -0.65883  -0.65198
 Alpha  occ. eigenvalues --   -0.62408  -0.60681  -0.60334  -0.60160  -0.59864
 Alpha  occ. eigenvalues --   -0.59395  -0.59185  -0.58501  -0.58166  -0.56697
 Alpha  occ. eigenvalues --   -0.56089  -0.55995  -0.55848  -0.54779  -0.54487
 Alpha  occ. eigenvalues --   -0.54184  -0.53965  -0.53811  -0.53623  -0.51008
 Alpha  occ. eigenvalues --   -0.50881  -0.50842  -0.50693  -0.50366  -0.50286
 Alpha  occ. eigenvalues --   -0.49946  -0.49565  -0.48683  -0.47608  -0.46891
 Alpha  occ. eigenvalues --   -0.46714  -0.46542  -0.46201  -0.45854  -0.38515
 Alpha  occ. eigenvalues --   -0.38407  -0.38383  -0.36683  -0.36425  -0.36089
 Alpha  occ. eigenvalues --   -0.32531  -0.31820
 Alpha virt. eigenvalues --    0.03391   0.03726   0.03864   0.04220   0.04565
 Alpha virt. eigenvalues --    0.04617   0.04915   0.05135   0.05278   0.05790
 Alpha virt. eigenvalues --    0.05840   0.06372   0.06424   0.06656   0.07013

 Mulliken charges:
               1
     1  C    0.767917
     2  C    0.507706
     3  C    0.387444
     4  C    0.565093
     5  H   -0.831476
     6  C    0.785470
     7  C    0.536963
     8  H   -0.750375
     9  C    0.378376
    10  C    0.289833
    11  H   -0.879763
    12  C    0.618440
    13  C    1.336555
    14  C   -2.383228
    15  N   -0.615950
    16  N   -0.158574
    17  C   -2.241859
    18  C    1.335191
    19  N   -0.296947
    20  N   -0.630657
    21  C   -2.347828
    22  C    1.343833
    23  N   -0.135129
    24  N   -0.604854
    25  H   -0.085129
    26  H   -0.421842
    27  H    0.103564
    28  H   -0.400624
    29  H    0.099676
    30  H   -0.057508
    31  H    0.096575
    32  H   -0.350340
    33  H   -0.294361
    34  H   -0.212805
    35  H   -0.284585
    36  H   -0.206320
    37  C    1.267071
    38  H   -0.162599
    39  H   -0.037012
    40  H   -0.100595
    41  H   -0.081267
    42  C    1.014291
    43  C    1.022012
    44  H   -0.038852
    45  H   -0.038063
    46  H   -0.017194
    47  C    1.116989
    48  H   -0.083346
    49  H   -0.017835
    50  H   -0.091218
    51  C    1.015986
    52  H   -0.039223
    53  H   -0.003594
    54  H   -0.030531
    55  C    1.219363
    56  H   -0.103044
    57  H   -0.172808
    58  H   -0.030319
    59  H   -0.029635
    60  H   -0.045015
    61  H   -0.004965
    62  H   -0.204599
    63  H   -0.286479
 Sum of Mulliken charges =   0.00000

 Dipole moment (field-independent basis, Debye):
    X=              0.8331    Y=              0.8578    Z=             -0.8880  Tot=              1.4894
 Quadrupole moment (field-independent basis, Debye-Ang):
   XX=           -146.3788   YY=           -160.8082   ZZ=           -169.6875
   XY=             -0.1979   XZ=              5.9407   YZ=             -5.3909

 Normal termination of Gaussian 16 at Mon Oct 25 21:30:34 2021.
