 Gaussian 16, Revision C.01,
 Gaussian 16:  ES64L-G16RevC.01  3-Jul-2019

 ----------------------------------------------------------------------
 #P MP2/aug-cc-pVDZ SP SCF=(YQC,MaxCycle=900) int=(Grid=Superfinegrid)
 SCRF=(PCM,Solvent=Dichloromethane)
 ----------------------------------------------------------------------

 -----------------------------
 _1_alde1_2_ami3_2_opt_dcm_mp2
 -----------------------------
 Symbolic Z-matrix:
 Charge =  0 Multiplicity = 1

                         Standard orientation:
 ---------------------------------------------------------------------
 Center     Atomic      Atomic             Coordinates (Angstroms)
 Number     Number       Type             X           Y           Z
 ---------------------------------------------------------------------
      1          6           0        0.019322    1.729755   -0.012799
      2          6           0       -0.000507    3.200313   -0.016787
      3          6           0       -1.177703    1.019852    0.051915
      4          6           0       -1.173805   -0.372205    0.054852
      5          1           0       -2.116347    1.549106    0.099985
      6          6           0        0.043953   -1.046461   -0.007055
      7          6           0        1.248510   -0.349347   -0.071169
      8          1           0        0.054849   -2.128208   -0.005105
      9          6           0        1.228351    1.043447   -0.074012
     10          6           0        2.512380   -1.072118   -0.134703
     11          1           0        2.168244    1.571225   -0.124875
     12          6           0       -2.424512   -1.118054    0.121166
     13          8           0       -0.989247    3.884721    0.030415
     14          6           0       -4.753900   -1.271289    0.247736
     15          6           0       -5.560097   -0.971673   -1.035260
     16          7           0       -3.535149   -0.529686    0.190644
     17          1           0       -4.572834   -2.361936    0.280029
     18          6           0       -5.526831   -0.849009    1.504068
     19          7           0       -6.637393   -1.939300   -1.154801
     20          1           0       -4.892807   -1.147518   -1.890101
     21          6           0       -5.997217    0.501263   -1.056107
     22          6           0       -5.931626    0.619146    1.437200
     23          6           0       -6.778191    0.882817    0.197436
     24          6           0        5.638410   -0.899581    1.036786
     25          6           0        4.842806   -1.194753   -0.253717
     26          7           0        6.720902   -1.860625    1.156377
     27          1           0        4.966468   -1.085705    1.885713
     28          6           0        6.066203    0.576226    1.072381
     29          7           0        3.614678   -0.466174   -0.199105
     30          1           0        4.672367   -2.286449   -0.295332
     31          6           0        5.620319   -0.756997   -1.501723
     32          6           0        6.851711    0.973061   -0.173573
     33          6           0        6.015131    0.713174   -1.421018
     34          1           0        1.008891    3.656002   -0.069381
     35          1           0        7.197712   -1.735917    2.042805
     36          1           0        7.402736   -1.718900    0.419356
     37          1           0       -7.314732   -1.805874   -0.412010
     38          1           0       -7.121450   -1.808756   -2.036591
     39          1           0       -7.706827    0.307196    0.255062
     40          1           0       -7.051286    1.938844    0.149069
     41          1           0       -5.030065    1.230865    1.392810
     42          1           0       -6.487228    0.888492    2.338147
     43          1           0       -6.410427   -1.482808    1.602442
     44          1           0       -4.893204   -1.021904    2.376859
     45          1           0       -5.100122    1.118089   -1.118980
     46          1           0       -6.601879    0.683381   -1.949289
     47          1           0       -2.333697   -2.216277    0.107095
     48          1           0        2.440656   -2.171347   -0.123361
     49          1           0        5.108666    1.318047   -1.378653
     50          1           0        6.574835    0.993356   -2.316059
     51          1           0        6.508790   -1.383467   -1.599893
     52          1           0        4.993168   -0.926859   -2.379766
     53          1           0        6.664711    0.754907    1.970332
     54          1           0        5.164305    1.186125    1.136264
     55          1           0        7.783891    0.403372   -0.229973
     56          1           0        7.119094    2.030250   -0.115422
 ---------------------------------------------------------------------

 SCF Done:  E(RHF) =  -1105.49364219     a.u. after    7 cycles
 SCF Done:  E(RHF) =  -1105.49366255     A.U. after   12 cycles
 E2 =    -0.3851714098D+01 EUMP2 =    -0.11093453766508D+04

 The electronic state is 1-A.
 Alpha  occ. eigenvalues --  -20.57491 -15.56262 -15.56168 -15.54745 -15.54685
 Alpha  occ. eigenvalues --  -11.34936 -11.28997 -11.28880 -11.26844 -11.26632
 Alpha  occ. eigenvalues --  -11.26223 -11.25843 -11.25796 -11.25777 -11.25432
 Alpha  occ. eigenvalues --  -11.25350 -11.25315 -11.25225 -11.22008 -11.21922
 Alpha  occ. eigenvalues --  -11.21664 -11.21530 -11.21421 -11.21341 -11.21273
 Alpha  occ. eigenvalues --  -11.21197  -1.41234  -1.25828  -1.25570  -1.19628
 Alpha  occ. eigenvalues --   -1.19131  -1.17881  -1.09663  -1.09177  -1.06889
 Alpha  occ. eigenvalues --   -1.05994  -1.00477  -0.99865  -0.98038  -0.97589
 Alpha  occ. eigenvalues --   -0.90898  -0.89832  -0.87149  -0.83278  -0.82832
 Alpha  occ. eigenvalues --   -0.82589  -0.81234  -0.78830  -0.76970  -0.73630
 Alpha  occ. eigenvalues --   -0.73297  -0.71429  -0.68927  -0.68644  -0.68210
 Alpha  occ. eigenvalues --   -0.66839  -0.65708  -0.64994  -0.64391  -0.63045
 Alpha  occ. eigenvalues --   -0.61473  -0.61245  -0.61126  -0.60915  -0.60561
 Alpha  occ. eigenvalues --   -0.59953  -0.59200  -0.57108  -0.55236  -0.55128
 Alpha  occ. eigenvalues --   -0.54187  -0.54099  -0.53642  -0.53438  -0.52883
 Alpha  occ. eigenvalues --   -0.52007  -0.51934  -0.51726  -0.51070  -0.50155
 Alpha  occ. eigenvalues --   -0.49454  -0.47030  -0.46861  -0.46773  -0.44696
 Alpha  occ. eigenvalues --   -0.44243  -0.43928  -0.43522  -0.42228  -0.41030
 Alpha  occ. eigenvalues --   -0.40197  -0.39956  -0.38391  -0.38279  -0.34955
 Alpha  occ. eigenvalues --   -0.32576
 Alpha virt. eigenvalues --    0.03316   0.03677   0.03968   0.04233   0.04306
 Alpha virt. eigenvalues --    0.04591   0.04690   0.05104   0.05306   0.05561
 Alpha virt. eigenvalues --    0.05723   0.05761   0.06229   0.06354   0.06575

 Mulliken charges:
               1
     1  C    0.439122
     2  C    1.181918
     3  C   -0.194088
     4  C    0.421574
     5  H   -0.719304
     6  C    0.626371
     7  C    0.642391
     8  H   -0.668744
     9  C    0.354512
    10  C    0.070314
    11  H   -0.721782
    12  C    0.298366
    13  O   -0.837417
    14  C    0.317630
    15  C    0.306419
    16  N   -0.188636
    17  H   -0.286928
    18  C    0.618601
    19  N   -0.440039
    20  H   -0.301872
    21  C    0.693372
    22  C    0.616644
    23  C    0.346813
    24  C    0.305143
    25  C    0.320838
    26  N   -0.436037
    27  H   -0.301796
    28  C    0.684345
    29  N   -0.167692
    30  H   -0.278456
    31  C    0.625645
    32  C    0.351679
    33  C    0.604881
    34  H   -0.334922
    35  H    0.008159
    36  H    0.057613
    37  H    0.058029
    38  H    0.008765
    39  H   -0.164644
    40  H   -0.174290
    41  H   -0.099667
    42  H   -0.211975
    43  H   -0.154467
    44  H   -0.229191
    45  H   -0.058625
    46  H   -0.211036
    47  H   -0.746876
    48  H   -0.750691
    49  H   -0.092317
    50  H   -0.210239
    51  H   -0.151608
    52  H   -0.227869
    53  H   -0.208702
    54  H   -0.051383
    55  H   -0.161649
    56  H   -0.176204
 Sum of Mulliken charges =   0.00000

 Dipole moment (field-independent basis, Debye):
    X=              2.6824    Y=             -3.2667    Z=             -0.1089  Tot=              4.2283
 Quadrupole moment (field-independent basis, Debye-Ang):
   XX=           -136.7434   YY=           -179.2138   ZZ=           -158.0553
   XY=             10.5471   XZ=              2.2564   YZ=             -0.5134

 Normal termination of Gaussian 16 at Thu Nov 11 15:01:43 2021.
