 Gaussian 16, Revision C.01,
 Gaussian 16:  ES64L-G16RevC.01  3-Jul-2019

 ----------------------------------------------------------------------
 #P MP2/aug-cc-pVDZ SP SCF=(YQC,MaxCycle=900) int=(Grid=Superfinegrid)
 SCRF=(PCM,Solvent=Dichloromethane)
 ----------------------------------------------------------------------

 -----------------------------
 _1_alde1_3_ami4_2_opt_dcm_mp2
 -----------------------------
 Symbolic Z-matrix:
 Charge =  0 Multiplicity = 1

                         Standard orientation:
 ---------------------------------------------------------------------
 Center     Atomic      Atomic             Coordinates (Angstroms)
 Number     Number       Type             X           Y           Z
 ---------------------------------------------------------------------
      1          6           0       -0.362819   -1.562710   -0.526628
      2          6           0       -1.197398   -2.767940   -0.690230
      3          6           0       -0.903432   -0.302319   -0.308054
      4          6           0       -0.076975    0.811984   -0.147728
      5          1           0       -1.969269   -0.143988   -0.288084
      6          6           0        1.301014    0.657176   -0.216111
      7          6           0        1.859924   -0.598769   -0.451559
      8          1           0        1.966024    1.498330   -0.094902
      9          6           0        1.022733   -1.698111   -0.611316
     10          6           0        3.304506   -0.761935   -0.535623
     11          1           0        1.449932   -2.675435   -0.791076
     12          6           0       -0.662619    2.123707    0.093623
     13          6           0       -4.145143   -1.868807    0.636351
     14          6           0       -2.774669   -2.449516    1.060460
     15          7           0       -5.119240   -2.854130    0.227090
     16          7           0       -2.199208   -3.163501   -0.037747
     17          1           0       -2.947504   -3.189809    1.850267
     18          6           0       -2.462851    3.564592    0.486649
     19          6           0       -3.618815    3.798877   -0.491121
     20          7           0       -1.904068    2.272034    0.254334
     21          7           0       -4.725149    2.927197   -0.140704
     22          6           0        5.502339    0.020284   -0.474664
     23          6           0        6.150440    0.439590    0.850437
     24          7           0        4.091162    0.214037   -0.399505
     25          1           0        5.787323   -1.018634   -0.704765
     26          7           0        7.590879    0.276414    0.760925
     27          1           0        7.972727    0.906549    0.062758
     28          1           0        8.025831    0.498722    1.649458
     29          1           0       -5.311706   -3.495106    0.990220
     30          1           0       -4.742246   -3.402641   -0.539283
     31          1           0       -5.447545    2.961754   -0.851762
     32          1           0       -4.386119    1.972447   -0.081501
     33          1           0       -0.865500   -3.445059   -1.475504
     34          1           0        0.046442    2.965322    0.137919
     35          1           0        3.661562   -1.785865   -0.729439
     36          1           0       -2.140012   -1.645585    1.457783
     37          1           0        5.880207    0.673442   -1.268856
     38          1           0       -1.716853    4.372320    0.400634
     39          1           0       -2.879262    3.564743    1.498622
     40          1           0       -3.242695    3.647330   -1.518222
     41          1           0       -3.959075    4.835282   -0.403141
     42          1           0       -3.998341   -1.184657   -0.204384
     43          1           0       -4.556710   -1.301186    1.475198
     44          1           0        5.828246    1.467204    1.083950
     45          1           0        5.786496   -0.216458    1.646443
 ---------------------------------------------------------------------

 SCF Done:  E(RHF) =  -908.760387599     a.u. after    6 cycles
 SCF Done:  E(RHF) =  -908.760444661     A.U. after   12 cycles
 E2 =    -0.3144790553D+01 EUMP2 =    -0.91190523521416D+03

 The electronic state is 1-A.
 Alpha  occ. eigenvalues --  -15.56800 -15.56755 -15.56744 -15.55088 -15.54605
 Alpha  occ. eigenvalues --  -15.54515 -11.29117 -11.29070 -11.29010 -11.26180
 Alpha  occ. eigenvalues --  -11.25976 -11.25711 -11.25669 -11.25589 -11.25532
 Alpha  occ. eigenvalues --  -11.25524 -11.25522 -11.25506 -11.25405 -11.25255
 Alpha  occ. eigenvalues --  -11.25227  -1.25674  -1.25289  -1.24987  -1.18745
 Alpha  occ. eigenvalues --   -1.18216  -1.17966  -1.16967  -1.06887  -1.06293
 Alpha  occ. eigenvalues --   -0.99505  -0.98695  -0.98279  -0.89707  -0.88742
 Alpha  occ. eigenvalues --   -0.87043  -0.83941  -0.82324  -0.80040  -0.75933
 Alpha  occ. eigenvalues --   -0.74282  -0.70968  -0.69394  -0.67854  -0.67807
 Alpha  occ. eigenvalues --   -0.66967  -0.66298  -0.65998  -0.64560  -0.63599
 Alpha  occ. eigenvalues --   -0.63048  -0.61366  -0.60971  -0.60205  -0.59381
 Alpha  occ. eigenvalues --   -0.57858  -0.56404  -0.55465  -0.54628  -0.54154
 Alpha  occ. eigenvalues --   -0.53933  -0.53156  -0.52886  -0.51560  -0.50530
 Alpha  occ. eigenvalues --   -0.49815  -0.49535  -0.45614  -0.45124  -0.41586
 Alpha  occ. eigenvalues --   -0.41509  -0.41083  -0.39869  -0.39327  -0.38813
 Alpha  occ. eigenvalues --   -0.38186  -0.33584  -0.32838
 Alpha virt. eigenvalues --    0.03471   0.03840   0.03905   0.04352   0.04685
 Alpha virt. eigenvalues --    0.04820   0.05121   0.05478   0.05579   0.06001
 Alpha virt. eigenvalues --    0.06090   0.06410   0.06647   0.07089   0.07412

 Mulliken charges:
               1
     1  C    1.004996
     2  C    0.274598
     3  C    0.083466
     4  C    0.509162
     5  H   -0.789613
     6  C    0.122170
     7  C    0.575955
     8  H   -0.755371
     9  C   -0.023139
    10  C    0.932583
    11  H   -0.730072
    12  C    0.892346
    13  C    0.780235
    14  C    0.859406
    15  N   -0.491928
    16  N   -0.593136
    17  H   -0.301063
    18  C    0.554812
    19  C    0.938323
    20  N   -0.675835
    21  N   -0.427903
    22  C    0.682342
    23  C    0.932004
    24  N   -0.608017
    25  H   -0.103766
    26  N   -0.450690
    27  H    0.030498
    28  H   -0.011628
    29  H    0.030768
    30  H    0.053930
    31  H   -0.027230
    32  H    0.036790
    33  H   -0.417262
    34  H   -0.625458
    35  H   -0.625991
    36  H   -0.087203
    37  H   -0.280115
    38  H   -0.121875
    39  H   -0.206647
    40  H   -0.150655
    41  H   -0.161458
    42  H   -0.212322
    43  H   -0.098307
    44  H   -0.106943
    45  H   -0.210757
 Sum of Mulliken charges =   0.00000

 Dipole moment (field-independent basis, Debye):
    X=              4.7788    Y=              1.5355    Z=             -0.5469  Tot=              5.0491
 Quadrupole moment (field-independent basis, Debye-Ang):
   XX=           -147.3461   YY=           -122.6648   ZZ=           -125.8213
   XY=              4.1140   XZ=              4.1954   YZ=             -3.0675

 Normal termination of Gaussian 16 at Mon Nov 15 21:44:09 2021.
