 Gaussian 16, Revision C.01,
 Gaussian 16:  ES64L-G16RevC.01  3-Jul-2019

 ----------------------------------------------------------------------
 #P PBE1PBE/Def2TZVP SP SCF=(YQC,MaxCycle=900) int=(Grid=Superfinegrid)
  EmpiricalDispersion=GD3 SCRF=(PCM,Solvent=Dichloromethane)
 ----------------------------------------------------------------------

 -------------------------
 _1_alde1_2_ami2_1_opt_dcm
 -------------------------
 Symbolic Z-matrix:
 Charge =  0 Multiplicity = 1

                         Standard orientation:
 ---------------------------------------------------------------------
 Center     Atomic      Atomic             Coordinates (Angstroms)
 Number     Number       Type             X           Y           Z
 ---------------------------------------------------------------------
      1          6           0       -0.437457    2.506953    0.050321
      2          6           0       -0.924964    3.889890    0.019304
      3          6           0       -1.344261    1.449446   -0.009493
      4          6           0       -0.894742    0.140242    0.018986
      5          1           0       -2.399627    1.660250   -0.094223
      6          6           0        0.467944   -0.109823    0.111690
      7          6           0        1.381721    0.934373    0.183063
      8          1           0        0.837458   -1.123827    0.141291
      9          6           0        0.927271    2.242424    0.148449
     10          6           0        2.860976    0.652089    0.243420
     11          1           0        1.634355    3.058169    0.193160
     12          6           0       -1.885991   -0.993620   -0.001895
     13          8           0       -2.081211    4.224762   -0.031736
     14          6           0       -4.233142   -1.335827   -0.204265
     15          6           0       -3.647165   -1.958039    1.092169
     16          7           0       -3.072762   -0.655957   -0.786675
     17          6           0       -5.299568   -0.284359    0.119711
     18          7           0       -2.386431   -1.275130    1.334958
     19          1           0       -3.426383   -3.018186    0.931045
     20          1           0       -6.173597   -0.752020    0.566522
     21          6           0        4.699976    0.004271   -0.949407
     22          6           0        4.392097   -1.155655    0.036571
     23          7           0        3.468475    0.767307   -1.073939
     24          1           0        5.045859   -0.343655   -1.920594
     25          7           0        3.148652   -0.714576    0.675348
     26          6           0        4.113341   -2.461028   -0.716316
     27          1           0        3.778302   -3.225852   -0.020213
     28          1           0        2.854804    0.321098   -1.750590
     29          1           0        3.350107    1.406166    0.890816
     30          1           0        3.162696   -0.811794    1.681666
     31          1           0       -2.958240   -0.837620   -1.774378
     32          1           0       -2.561952   -0.390221    1.803698
     33          1           0       -1.389319   -1.914615   -0.363897
     34          1           0       -0.114452    4.646688    0.050963
     35          1           0       -4.313838   -1.865194    1.947178
     36          1           0       -4.900369    0.454256    0.810431
     37          1           0       -5.600590    0.230041   -0.789303
     38          1           0        5.459603    0.665928   -0.521233
     39          1           0        5.011644   -2.811152   -1.218795
     40          1           0        3.330557   -2.306458   -1.455011
     41          6           0        5.527991   -1.357232    1.039073
     42          1           0        6.451657   -1.598172    0.518002
     43          1           0        5.291169   -2.173806    1.718454
     44          1           0        5.686805   -0.451973    1.623238
     45          6           0       -4.811426   -2.406409   -1.129445
     46          1           0       -5.215625   -1.948000   -2.029979
     47          1           0       -5.611631   -2.945245   -0.627385
     48          1           0       -4.040844   -3.120592   -1.416444
 ---------------------------------------------------------------------

 SCF Done:  E(RPBE1PBE) =  -956.950825474     a.u. after    6 cycles
 SCF Done:  E(RPBE1PBE) =  -956.950841417     A.U. after    9 cycles

 The electronic state is 1-A.
 Alpha  occ. eigenvalues --  -19.20741 -14.37627 -14.37511 -14.36438 -14.36249
 Alpha  occ. eigenvalues --  -10.31195 -10.28071 -10.27893 -10.25663 -10.25526
 Alpha  occ. eigenvalues --  -10.24117 -10.24067 -10.24056 -10.24022 -10.23959
 Alpha  occ. eigenvalues --  -10.23934 -10.23407 -10.23327 -10.20744 -10.20662
 Alpha  occ. eigenvalues --  -10.20089 -10.19942  -1.08509  -0.99612  -0.99446
 Alpha  occ. eigenvalues --   -0.90263  -0.88352  -0.88189  -0.82632  -0.81814
 Alpha  occ. eigenvalues --   -0.78885  -0.77693  -0.70964  -0.70856  -0.70197
 Alpha  occ. eigenvalues --   -0.70090  -0.67908  -0.65737  -0.64838  -0.60501
 Alpha  occ. eigenvalues --   -0.58643  -0.58292  -0.58112  -0.54358  -0.53340
 Alpha  occ. eigenvalues --   -0.51904  -0.51143  -0.50263  -0.48980  -0.47464
 Alpha  occ. eigenvalues --   -0.46073  -0.45915  -0.45546  -0.45289  -0.45161
 Alpha  occ. eigenvalues --   -0.44252  -0.43295  -0.42962  -0.42412  -0.42282
 Alpha  occ. eigenvalues --   -0.41300  -0.40916  -0.40364  -0.40312  -0.38096
 Alpha  occ. eigenvalues --   -0.37727  -0.37504  -0.37360  -0.37260  -0.36978
 Alpha  occ. eigenvalues --   -0.36286  -0.35533  -0.34592  -0.34291  -0.34239
 Alpha  occ. eigenvalues --   -0.28095  -0.27986  -0.27603  -0.25889  -0.25777
 Alpha  occ. eigenvalues --   -0.23860  -0.23632
 Alpha virt. eigenvalues --   -0.06752  -0.02090   0.03250   0.03873   0.04253
 Alpha virt. eigenvalues --    0.05766   0.06437   0.07051   0.07539   0.08557
 Alpha virt. eigenvalues --    0.08926   0.09188   0.09612   0.10189   0.10570

 Mulliken charges:
               1
     1  C    0.243604
     2  C    0.061905
     3  C   -0.309410
     4  C    0.342110
     5  H    0.137135
     6  C   -0.378448
     7  C    0.243808
     8  H    0.127514
     9  C   -0.352824
    10  C   -0.050554
    11  H    0.127875
    12  C   -0.086993
    13  O   -0.333966
    14  C    0.139386
    15  C   -0.139577
    16  N   -0.301566
    17  C   -0.388247
    18  N   -0.301744
    19  H    0.093488
    20  H    0.121016
    21  C   -0.137970
    22  C    0.128684
    23  N   -0.303738
    24  H    0.139933
    25  N   -0.304373
    26  C   -0.381995
    27  H    0.117907
    28  H    0.210576
    29  H    0.089669
    30  H    0.215438
    31  H    0.210706
    32  H    0.212644
    33  H    0.087737
    34  H    0.092759
    35  H    0.139290
    36  H    0.122370
    37  H    0.117656
    38  H    0.094185
    39  H    0.120929
    40  H    0.117583
    41  C   -0.438494
    42  H    0.130397
    43  H    0.133017
    44  H    0.133144
    45  C   -0.437376
    46  H    0.132895
    47  H    0.129652
    48  H    0.132262
 Sum of Mulliken charges =   0.00000

 Dipole moment (field-independent basis, Debye):
    X=              3.2433    Y=             -4.3839    Z=             -0.0143  Tot=              5.4532
 Quadrupole moment (field-independent basis, Debye-Ang):
   XX=           -120.5542   YY=           -146.6354   ZZ=           -130.2183
   XY=             14.0144   XZ=              3.3753   YZ=              6.0914

 Normal termination of Gaussian 16 at Sun Oct 17 22:46:24 2021.
