 Gaussian 16, Revision C.01,
 Gaussian 16:  ES64L-G16RevC.01  3-Jul-2019

 ----------------------------------------------------------------------
 #P MP2/aug-cc-pVDZ SP SCF=(YQC,MaxCycle=900) int=(Grid=Superfinegrid)
 SCRF=(PCM,Solvent=Dichloromethane)
 ----------------------------------------------------------------------

 -----------------------------
 _1_alde1_3_ami2_2_opt_dcm_mp2
 -----------------------------
 Symbolic Z-matrix:
 Charge =  0 Multiplicity = 1

                         Standard orientation:
 ---------------------------------------------------------------------
 Center     Atomic      Atomic             Coordinates (Angstroms)
 Number     Number       Type             X           Y           Z
 ---------------------------------------------------------------------
      1          6           0       -1.169673   -0.766423   -0.790060
      2          6           0       -2.384444   -1.568444   -0.790737
      3          6           0       -1.238045    0.627282   -0.790055
      4          6           0       -0.079215    1.394513   -0.791224
      5          1           0       -2.211449    1.093813   -0.793050
      6          6           0        1.162049    0.756951   -0.791829
      7          6           0        1.247006   -0.630305   -0.791846
      8          1           0        2.052673    1.366630   -0.796194
      9          6           0        0.074205   -1.386413   -0.790396
     10          6           0        2.548848   -1.281439   -0.794116
     11          1           0        0.156900   -2.462630   -0.793631
     12          6           0       -0.166294    2.847536   -0.792441
     13          6           0       -5.538033   -1.523638    0.508080
     14          6           0       -4.702203   -1.847229   -0.766540
     15          7           0       -5.823705   -0.104862    0.625561
     16          6           0       -6.865344   -2.279283    0.435120
     17          7           0       -3.530330   -1.040450   -0.795901
     18          1           0       -7.461214   -2.042669    1.312011
     19          6           0        0.751507    4.994088   -0.767099
     20          6           0        1.448827    5.556063    0.507948
     21          7           0        0.863948    3.575761   -0.796250
     22          1           0        1.283772    5.379902   -1.643821
     23          7           0        2.820278    5.094013    0.626310
     24          6           0        1.458202    7.083413    0.435083
     25          6           0        3.948953   -3.149524   -0.768669
     26          6           0        4.090371   -4.030850    0.508400
     27          7           0        2.664335   -2.537842   -0.796241
     28          1           0        4.014730   -3.805812   -1.643746
     29          7           0        3.004946   -4.987438    0.632333
     30          6           0        4.074598   -3.136705    1.749733
     31          1           0        3.153595   -2.558723    1.786664
     32          1           0       -6.358776    0.214224   -0.175297
     33          1           0       -4.951619    0.413299    0.637175
     34          1           0        3.364572    5.397882   -0.174249
     35          1           0        2.832900    4.079681    0.637998
     36          1           0       -2.238502   -2.659903   -0.792568
     37          1           0        3.421262   -0.609564   -0.799934
     38          1           0       -6.696101   -3.352178    0.400376
     39          1           0       -7.425254   -1.986677   -0.450822
     40          1           0       -0.294406    5.342270   -0.803566
     41          1           0        1.992019    7.422043   -0.450626
     42          1           0        1.960688    7.481093    1.312275
     43          1           0        0.444402    7.473338    0.399984
     44          1           0        4.773321   -2.417920   -0.809291
     45          1           0        4.918304   -2.451183    1.740048
     46          1           0        4.129824   -3.756049    2.640293
     47          6           0        0.686807    5.094179    1.751670
     48          1           0        0.646744    4.007524    1.787563
     49          1           0       -0.328560    5.482228    1.746342
     50          1           0        1.199096    5.450609    2.640705
     51          1           0       -5.302320   -1.579780   -1.643598
     52          1           0       -4.480643   -2.926993   -0.802321
     53          6           0       -4.757383   -1.951935    1.752142
     54          1           0       -4.586003   -3.025320    1.747503
     55          1           0       -5.322307   -1.685762    2.640901
     56          1           0       -3.796141   -1.443554    1.787985
     57          1           0        2.993877   -5.612984   -0.166434
     58          1           0        2.120160   -4.491232    0.644947
     59          6           0        5.408223   -4.802810    0.434071
     60          1           0        6.252683   -4.119819    0.395073
     61          1           0        5.432373   -5.436706   -0.450003
     62          1           0        5.503716   -5.434539    1.312676
     63          1           0       -1.184405    3.267024   -0.795443
 ---------------------------------------------------------------------

 SCF Done:  E(RHF) =  -1143.01256586     a.u. after    7 cycles
 SCF Done:  E(RHF) =  -1143.01260076     A.U. after   11 cycles
 E2 =    -0.4066529627D+01 EUMP2 =    -0.11470791303865D+04

 The electronic state is 1-A.
 Alpha  occ. eigenvalues --  -15.56429 -15.56429 -15.56428 -15.54112 -15.54109
 Alpha  occ. eigenvalues --  -15.54104 -11.28947 -11.28945 -11.28944 -11.26240
 Alpha  occ. eigenvalues --  -11.26237 -11.26236 -11.25633 -11.25592 -11.25591
 Alpha  occ. eigenvalues --  -11.25382 -11.25382 -11.25338 -11.25105 -11.25104
 Alpha  occ. eigenvalues --  -11.25101 -11.21393 -11.21392 -11.21391 -11.21100
 Alpha  occ. eigenvalues --  -11.21096 -11.21095  -1.25765  -1.25385  -1.25383
 Alpha  occ. eigenvalues --   -1.19660  -1.19152  -1.19149  -1.16960  -1.06640
 Alpha  occ. eigenvalues --   -1.06639  -1.02874  -1.02361  -1.02359  -0.95583
 Alpha  occ. eigenvalues --   -0.94850  -0.94849  -0.93618  -0.93614  -0.93611
 Alpha  occ. eigenvalues --   -0.86881  -0.86881  -0.82995  -0.76288  -0.76287
 Alpha  occ. eigenvalues --   -0.75452  -0.74312  -0.74311  -0.71241  -0.69052
 Alpha  occ. eigenvalues --   -0.66512  -0.66477  -0.66475  -0.65790  -0.65445
 Alpha  occ. eigenvalues --   -0.65443  -0.63767  -0.63767  -0.62892  -0.61995
 Alpha  occ. eigenvalues --   -0.61993  -0.60291  -0.59678  -0.59676  -0.59490
 Alpha  occ. eigenvalues --   -0.56835  -0.56627  -0.56626  -0.54684  -0.53137
 Alpha  occ. eigenvalues --   -0.53135  -0.52857  -0.52839  -0.52838  -0.52260
 Alpha  occ. eigenvalues --   -0.51675  -0.51673  -0.50834  -0.50354  -0.50352
 Alpha  occ. eigenvalues --   -0.49557  -0.49556  -0.49107  -0.46969  -0.46967
 Alpha  occ. eigenvalues --   -0.46537  -0.45309  -0.45307  -0.41558  -0.41202
 Alpha  occ. eigenvalues --   -0.40738  -0.40738  -0.38675  -0.38670  -0.37546
 Alpha  occ. eigenvalues --   -0.32544  -0.32544
 Alpha virt. eigenvalues --    0.03460   0.03838   0.03838   0.04148   0.04559
 Alpha virt. eigenvalues --    0.04559   0.04871   0.05068   0.05069   0.05811
 Alpha virt. eigenvalues --    0.05880   0.05880   0.05975   0.06226   0.06227

 Mulliken charges:
               1
     1  C    0.901276
     2  C    0.687931
     3  C    0.020407
     4  C    0.900600
     5  H   -0.845873
     6  C    0.020656
     7  C    0.899633
     8  H   -0.846217
     9  C    0.018415
    10  C    0.687598
    11  H   -0.845486
    12  C    0.687003
    13  C   -3.614281
    14  C    1.634762
    15  N   -0.081460
    16  C    1.430624
    17  N   -0.487194
    18  H    0.036569
    19  C    1.634615
    20  C   -3.613500
    21  N   -0.486433
    22  H   -0.251011
    23  N   -0.081392
    24  C    1.429474
    25  C    1.634177
    26  C   -3.612858
    27  N   -0.486627
    28  H   -0.251122
    29  N   -0.081774
    30  C    1.447820
    31  H   -0.026887
    32  H   -0.000558
    33  H    0.020987
    34  H   -0.000509
    35  H    0.020806
    36  H   -0.661794
    37  H   -0.661908
    38  H    0.009183
    39  H   -0.045865
    40  H   -0.138894
    41  H   -0.045556
    42  H    0.036607
    43  H    0.009588
    44  H   -0.139038
    45  H    0.001896
    46  H   -0.036279
    47  C    1.448199
    48  H   -0.026878
    49  H    0.001375
    50  H   -0.036131
    51  H   -0.250690
    52  H   -0.139131
    53  C    1.448139
    54  H    0.001252
    55  H   -0.036131
    56  H   -0.026782
    57  H   -0.000525
    58  H    0.020953
    59  C    1.429542
    60  H    0.009588
    61  H   -0.045850
    62  H    0.036635
    63  H   -0.661670
 Sum of Mulliken charges =   0.00000

 Dipole moment (field-independent basis, Debye):
    X=             -0.0066    Y=             -0.0032    Z=             -3.8763  Tot=              3.8763
 Quadrupole moment (field-independent basis, Debye-Ang):
   XX=           -171.9084   YY=           -171.8200   ZZ=           -179.4812
   XY=             -0.0012   XZ=             -0.0459   YZ=              0.0199

 Normal termination of Gaussian 16 at Thu Nov 11 17:46:40 2021.
