 Gaussian 16, Revision C.01,
 Gaussian 16:  ES64L-G16RevC.01  3-Jul-2019

 ----------------------------------------------------------------------
 #P PBE1PBE/Def2TZVP SP SCF=(YQC,MaxCycle=900) int=(Grid=Superfinegrid)
  EmpiricalDispersion=GD3
 ----------------------------------------------------------------------

 -------------------------
 _1_alde1_3_ami1_1_opt_gas
 -------------------------
 Symbolic Z-matrix:
 Charge =  0 Multiplicity = 1

                         Standard orientation:
 ---------------------------------------------------------------------
 Center     Atomic      Atomic             Coordinates (Angstroms)
 Number     Number       Type             X           Y           Z
 ---------------------------------------------------------------------
      1          6           0       -0.129395    0.872371   -0.244746
      2          6           0        0.270556    2.322529   -0.288466
      3          6           0       -1.458021    0.486046   -0.310302
      4          6           0       -1.804689   -0.856118   -0.237965
      5          1           0       -2.238782    1.222584   -0.428624
      6          6           0       -0.812413   -1.813966   -0.093647
      7          6           0        0.520271   -1.437723   -0.023674
      8          1           0       -1.080618   -2.859069   -0.035437
      9          6           0        0.854240   -0.094475   -0.100327
     10          6           0        1.619528   -2.457819    0.102013
     11          1           0        1.890723    0.201797   -0.047145
     12          6           0       -3.256861   -1.251255   -0.267799
     13          6           0        1.514446    3.944361    0.785265
     14          6           0        2.176455    3.685381   -0.599278
     15          7           0        0.634208    2.808439    1.029779
     16          1           0        0.869034    4.829086    0.700223
     17          6           0        2.512104    4.207873    1.920741
     18          7           0        1.479739    2.508285   -1.097745
     19          1           0        3.232357    3.411899   -0.459146
     20          6           0        2.153535    4.923602   -1.519921
     21          1           0        3.204487    4.976437    1.556192
     22          6           0        3.326055    2.973830    2.312495
     23          6           0        1.775374    4.753116    3.142954
     24          1           0        2.511475    5.768025   -0.918196
     25          6           0        0.758216    5.262547   -2.042343
     26          6           0        3.115790    4.729560   -2.691740
     27          1           0        1.009763    4.047892    3.456371
     28          1           0        1.294059    5.700594    2.911696
     29          1           0        2.468094    4.910871    3.966595
     30          1           0        4.165240    3.271222    2.937661
     31          1           0        3.718734    2.461445    1.437447
     32          1           0        2.719357    2.273506    2.882759
     33          1           0        4.129925    4.568182   -2.332832
     34          1           0        3.114661    5.607204   -3.334613
     35          1           0        2.825925    3.867277   -3.289060
     36          1           0        0.793191    6.185144   -2.617903
     37          1           0        0.051900    5.398299   -1.226754
     38          1           0        0.383008    4.475828   -2.694705
     39          6           0       -5.408700   -0.360940   -0.659083
     40          6           0       -5.296758   -0.973497    0.767237
     41          7           0       -4.036043   -0.373411   -1.145306
     42          1           0       -5.725736    0.689568   -0.586492
     43          6           0       -6.445414   -1.081403   -1.546267
     44          7           0       -3.870016   -1.097536    1.039156
     45          1           0       -5.698371   -1.995268    0.736677
     46          6           0       -6.068975   -0.206185    1.848138
     47          1           0       -7.357889   -1.178825   -0.945559
     48          6           0       -6.003776   -2.478301   -1.980222
     49          6           0       -6.770211   -0.232669   -2.775555
     50          1           0       -7.082986   -0.053869    1.458812
     51          6           0       -5.466785    1.161945    2.170445
     52          6           0       -6.153773   -1.048076    3.120086
     53          1           0       -7.512599   -0.729970   -3.396120
     54          1           0       -5.877428   -0.067354   -3.375495
     55          1           0       -7.164252    0.736932   -2.478977
     56          1           0       -6.803799   -2.962336   -2.536381
     57          1           0       -5.761863   -3.101988   -1.122895
     58          1           0       -5.129530   -2.429110   -2.627097
     59          1           0       -5.152891   -1.298341    3.462605
     60          1           0       -6.693847   -1.973511    2.934362
     61          1           0       -6.668938   -0.500308    3.905952
     62          1           0       -4.555610    1.056440    2.755497
     63          1           0       -6.173218    1.744150    2.758118
     64          1           0       -5.237350    1.719247    1.265303
     65          6           0        3.912250   -2.616971    0.652413
     66          6           0        3.636659   -3.144515   -0.785560
     67          7           0        2.651408   -2.000279    1.038774
     68          1           0        4.672676   -1.823331    0.616090
     69          6           0        4.449297   -3.707704    1.602882
     70          7           0        2.321015   -2.637426   -1.155459
     71          1           0        3.550684   -4.238563   -0.742273
     72          6           0        4.735845   -2.807399   -1.801745
     73          1           0        5.259876   -4.217711    1.068260
     74          6           0        3.396903   -4.747101    1.985770
     75          6           0        5.034328   -3.069809    2.862881
     76          1           0        5.686713   -3.106179   -1.344020
     77          6           0        4.812347   -1.318292   -2.141877
     78          6           0        4.529914   -3.621432   -3.078013
     79          1           0        5.842147   -2.387389    2.607900
     80          1           0        5.427961   -3.834575    3.529078
     81          1           0        4.271962   -2.508068    3.399230
     82          1           0        2.959155   -5.210868    1.105016
     83          1           0        2.596771   -4.296634    2.570710
     84          1           0        3.852457   -5.529066    2.589701
     85          1           0        3.545031   -3.416977   -3.490078
     86          1           0        4.599899   -4.686739   -2.870999
     87          1           0        5.282941   -3.364523   -3.819667
     88          1           0        5.742149   -1.109334   -2.666728
     89          1           0        4.782015   -0.703100   -1.245800
     90          1           0        3.990964   -1.026011   -2.792757
     91          1           0        2.401719   -2.172527    2.003431
     92          1           0        1.191809   -3.436398    0.390020
     93          1           0        2.419583   -1.725189   -1.590719
     94          1           0        1.279643    2.552519   -2.087949
     95          1           0       -0.577245    2.934606   -0.649266
     96          1           0        1.153067    2.073321    1.500773
     97          1           0       -3.959494   -0.632775   -2.119622
     98          1           0       -3.525728   -0.232761    1.445841
     99          1           0       -3.345188   -2.316975   -0.552148
 ---------------------------------------------------------------------

 SCF Done:  E(RPBE1PBE) =  -1620.86747490     a.u. after    7 cycles
 SCF Done:  E(RPBE1PBE) =  -1620.86748161     A.U. after    7 cycles

 The electronic state is 1-A.
 Alpha  occ. eigenvalues --  -14.36058 -14.36004 -14.35995 -14.35853 -14.35791
 Alpha  occ. eigenvalues --  -14.35786 -10.26776 -10.26716 -10.26667 -10.24024
 Alpha  occ. eigenvalues --  -10.24003 -10.23998 -10.23840 -10.23800 -10.23796
 Alpha  occ. eigenvalues --  -10.22538 -10.22529 -10.22528 -10.22498 -10.22474
 Alpha  occ. eigenvalues --  -10.22457 -10.21915 -10.21863 -10.21801 -10.21289
 Alpha  occ. eigenvalues --  -10.20919 -10.20757 -10.20740 -10.20717 -10.20660
 Alpha  occ. eigenvalues --  -10.20657 -10.20654 -10.20634 -10.20591 -10.20576
 Alpha  occ. eigenvalues --  -10.20569 -10.19976 -10.19969 -10.19944  -0.98648
 Alpha  occ. eigenvalues --   -0.98543  -0.98474  -0.88180  -0.87835  -0.87798
 Alpha  occ. eigenvalues --   -0.87787  -0.83854  -0.83798  -0.82907  -0.80745
 Alpha  occ. eigenvalues --   -0.80728  -0.80723  -0.78172  -0.78023  -0.73513
 Alpha  occ. eigenvalues --   -0.72413  -0.72045  -0.70824  -0.70813  -0.70796
 Alpha  occ. eigenvalues --   -0.70384  -0.70376  -0.70367  -0.66048  -0.65186
 Alpha  occ. eigenvalues --   -0.64407  -0.63972  -0.63952  -0.63938  -0.59782
 Alpha  occ. eigenvalues --   -0.58891  -0.58410  -0.57877  -0.57861  -0.57015
 Alpha  occ. eigenvalues --   -0.56601  -0.56555  -0.53077  -0.52963  -0.51567
 Alpha  occ. eigenvalues --   -0.51392  -0.49523  -0.49448  -0.49041  -0.48307
 Alpha  occ. eigenvalues --   -0.47560  -0.47524  -0.47071  -0.46173  -0.45946
 Alpha  occ. eigenvalues --   -0.45752  -0.45723  -0.45718  -0.44923  -0.44594
 Alpha  occ. eigenvalues --   -0.44429  -0.44295  -0.43433  -0.43181  -0.43153
 Alpha  occ. eigenvalues --   -0.42819  -0.42593  -0.42273  -0.41007  -0.40911
 Alpha  occ. eigenvalues --   -0.40769  -0.40732  -0.40644  -0.40101  -0.39859
 Alpha  occ. eigenvalues --   -0.39789  -0.39740  -0.39299  -0.39274  -0.39188
 Alpha  occ. eigenvalues --   -0.38100  -0.38072  -0.37873  -0.37349  -0.37242
 Alpha  occ. eigenvalues --   -0.37175  -0.36691  -0.36067  -0.35920  -0.35602
 Alpha  occ. eigenvalues --   -0.35321  -0.35070  -0.34754  -0.34730  -0.34715
 Alpha  occ. eigenvalues --   -0.34269  -0.34079  -0.33977  -0.33823  -0.33603
 Alpha  occ. eigenvalues --   -0.33401  -0.33358  -0.32524  -0.32490  -0.31785
 Alpha  occ. eigenvalues --   -0.31672  -0.31512  -0.25798  -0.25568  -0.24437
 Alpha  occ. eigenvalues --   -0.24346  -0.24193  -0.23008  -0.22828  -0.22492
 Alpha virt. eigenvalues --   -0.00183   0.00200   0.03066   0.03687   0.03831
 Alpha virt. eigenvalues --    0.04830   0.04936   0.05096   0.05165   0.05807
 Alpha virt. eigenvalues --    0.06298   0.06461   0.06714   0.07279   0.07738

 Mulliken charges:
               1
     1  C    0.355780
     2  C   -0.155382
     3  C   -0.366216
     4  C    0.336936
     5  H    0.110696
     6  C   -0.412168
     7  C    0.333150
     8  H    0.094065
     9  C   -0.328896
    10  C   -0.146433
    11  H    0.156662
    12  C   -0.134983
    13  C   -0.016838
    14  C    0.138044
    15  N   -0.241884
    16  H    0.047601
    17  C   -0.033519
    18  N   -0.289766
    19  H    0.044063
    20  C   -0.122360
    21  H    0.071854
    22  C   -0.430454
    23  C   -0.364289
    24  H    0.069057
    25  C   -0.374766
    26  C   -0.342630
    27  H    0.132322
    28  H    0.114638
    29  H    0.118780
    30  H    0.125163
    31  H    0.138483
    32  H    0.125724
    33  H    0.121452
    34  H    0.120904
    35  H    0.107026
    36  H    0.128030
    37  H    0.128057
    38  H    0.101687
    39  C    0.146814
    40  C   -0.027440
    41  N   -0.289464
    42  H    0.042765
    43  C   -0.123846
    44  N   -0.247326
    45  H    0.045819
    46  C   -0.028309
    47  H    0.069074
    48  C   -0.373101
    49  C   -0.342469
    50  H    0.071673
    51  C   -0.431731
    52  C   -0.364372
    53  H    0.120940
    54  H    0.107337
    55  H    0.121647
    56  H    0.128348
    57  H    0.127053
    58  H    0.102035
    59  H    0.132644
    60  H    0.114458
    61  H    0.118985
    62  H    0.128596
    63  H    0.125594
    64  H    0.136254
    65  C    0.138026
    66  C   -0.017218
    67  N   -0.289696
    68  H    0.043933
    69  C   -0.122527
    70  N   -0.241687
    71  H    0.047832
    72  C   -0.032956
    73  H    0.068912
    74  C   -0.375053
    75  C   -0.342675
    76  H    0.071984
    77  C   -0.430777
    78  C   -0.364392
    79  H    0.121319
    80  H    0.120982
    81  H    0.107384
    82  H    0.127740
    83  H    0.102540
    84  H    0.128147
    85  H    0.132330
    86  H    0.114769
    87  H    0.118699
    88  H    0.125240
    89  H    0.138643
    90  H    0.125452
    91  H    0.180406
    92  H    0.069228
    93  H    0.185475
    94  H    0.179602
    95  H    0.071412
    96  H    0.185644
    97  H    0.180814
    98  H    0.188227
    99  H    0.070672
 Sum of Mulliken charges =   0.00000

 Dipole moment (field-independent basis, Debye):
    X=              0.5759    Y=              0.6259    Z=             -0.5150  Tot=              0.9942
 Quadrupole moment (field-independent basis, Debye-Ang):
   XX=           -225.4906   YY=           -239.6671   ZZ=           -246.8040
   XY=              0.5121   XZ=              5.0198   YZ=             -4.3080

 Normal termination of Gaussian 16 at Sun Oct 17 21:48:12 2021.
