 Gaussian 16, Revision C.01,
 Gaussian 16:  ES64L-G16RevC.01  3-Jul-2019

 ----------------------------------------------------------------------
 #P MP2/aug-cc-pVDZ SP SCF=(YQC,MaxCycle=900) int=(Grid=Superfinegrid)
 SCRF=(PCM,Solvent=Chloroform)
 ----------------------------------------------------------------------

 -----------------------------
 _1_alde1_3_ami1_1_opt_cfm_mp2
 -----------------------------
 Symbolic Z-matrix:
 Charge =  0 Multiplicity = 1

                         Standard orientation:
 ---------------------------------------------------------------------
 Center     Atomic      Atomic             Coordinates (Angstroms)
 Number     Number       Type             X           Y           Z
 ---------------------------------------------------------------------
      1          6           0       -0.129395    0.872371   -0.244746
      2          6           0        0.270556    2.322529   -0.288466
      3          6           0       -1.458021    0.486046   -0.310302
      4          6           0       -1.804689   -0.856118   -0.237965
      5          1           0       -2.238782    1.222584   -0.428624
      6          6           0       -0.812413   -1.813966   -0.093647
      7          6           0        0.520271   -1.437723   -0.023674
      8          1           0       -1.080618   -2.859069   -0.035437
      9          6           0        0.854240   -0.094475   -0.100327
     10          6           0        1.619528   -2.457819    0.102013
     11          1           0        1.890723    0.201797   -0.047145
     12          6           0       -3.256861   -1.251255   -0.267799
     13          6           0        1.514446    3.944361    0.785265
     14          6           0        2.176455    3.685381   -0.599278
     15          7           0        0.634208    2.808439    1.029779
     16          1           0        0.869034    4.829086    0.700223
     17          6           0        2.512104    4.207873    1.920741
     18          7           0        1.479739    2.508285   -1.097745
     19          1           0        3.232357    3.411899   -0.459146
     20          6           0        2.153535    4.923602   -1.519921
     21          1           0        3.204487    4.976437    1.556192
     22          6           0        3.326055    2.973830    2.312495
     23          6           0        1.775374    4.753116    3.142954
     24          1           0        2.511475    5.768025   -0.918196
     25          6           0        0.758216    5.262547   -2.042343
     26          6           0        3.115790    4.729560   -2.691740
     27          1           0        1.009763    4.047892    3.456371
     28          1           0        1.294059    5.700594    2.911696
     29          1           0        2.468094    4.910871    3.966595
     30          1           0        4.165240    3.271222    2.937661
     31          1           0        3.718734    2.461445    1.437447
     32          1           0        2.719357    2.273506    2.882759
     33          1           0        4.129925    4.568182   -2.332832
     34          1           0        3.114661    5.607204   -3.334613
     35          1           0        2.825925    3.867277   -3.289060
     36          1           0        0.793191    6.185144   -2.617903
     37          1           0        0.051900    5.398299   -1.226754
     38          1           0        0.383008    4.475828   -2.694705
     39          6           0       -5.408700   -0.360940   -0.659083
     40          6           0       -5.296758   -0.973497    0.767237
     41          7           0       -4.036043   -0.373411   -1.145306
     42          1           0       -5.725736    0.689568   -0.586492
     43          6           0       -6.445414   -1.081403   -1.546267
     44          7           0       -3.870016   -1.097536    1.039156
     45          1           0       -5.698371   -1.995268    0.736677
     46          6           0       -6.068975   -0.206185    1.848138
     47          1           0       -7.357889   -1.178825   -0.945559
     48          6           0       -6.003776   -2.478301   -1.980222
     49          6           0       -6.770211   -0.232669   -2.775555
     50          1           0       -7.082986   -0.053869    1.458812
     51          6           0       -5.466785    1.161945    2.170445
     52          6           0       -6.153773   -1.048076    3.120086
     53          1           0       -7.512599   -0.729970   -3.396120
     54          1           0       -5.877428   -0.067354   -3.375495
     55          1           0       -7.164252    0.736932   -2.478977
     56          1           0       -6.803799   -2.962336   -2.536381
     57          1           0       -5.761863   -3.101988   -1.122895
     58          1           0       -5.129530   -2.429110   -2.627097
     59          1           0       -5.152891   -1.298341    3.462605
     60          1           0       -6.693847   -1.973511    2.934362
     61          1           0       -6.668938   -0.500308    3.905952
     62          1           0       -4.555610    1.056440    2.755497
     63          1           0       -6.173218    1.744150    2.758118
     64          1           0       -5.237350    1.719247    1.265303
     65          6           0        3.912250   -2.616971    0.652413
     66          6           0        3.636659   -3.144515   -0.785560
     67          7           0        2.651408   -2.000279    1.038774
     68          1           0        4.672676   -1.823331    0.616090
     69          6           0        4.449297   -3.707704    1.602882
     70          7           0        2.321015   -2.637426   -1.155459
     71          1           0        3.550684   -4.238563   -0.742273
     72          6           0        4.735845   -2.807399   -1.801745
     73          1           0        5.259876   -4.217711    1.068260
     74          6           0        3.396903   -4.747101    1.985770
     75          6           0        5.034328   -3.069809    2.862881
     76          1           0        5.686713   -3.106179   -1.344020
     77          6           0        4.812347   -1.318292   -2.141877
     78          6           0        4.529914   -3.621432   -3.078013
     79          1           0        5.842147   -2.387389    2.607900
     80          1           0        5.427961   -3.834575    3.529078
     81          1           0        4.271962   -2.508068    3.399230
     82          1           0        2.959155   -5.210868    1.105016
     83          1           0        2.596771   -4.296634    2.570710
     84          1           0        3.852457   -5.529066    2.589701
     85          1           0        3.545031   -3.416977   -3.490078
     86          1           0        4.599899   -4.686739   -2.870999
     87          1           0        5.282941   -3.364523   -3.819667
     88          1           0        5.742149   -1.109334   -2.666728
     89          1           0        4.782015   -0.703100   -1.245800
     90          1           0        3.990964   -1.026011   -2.792757
     91          1           0        2.401719   -2.172527    2.003431
     92          1           0        1.191809   -3.436398    0.390020
     93          1           0        2.419583   -1.725189   -1.590719
     94          1           0        1.279643    2.552519   -2.087949
     95          1           0       -0.577245    2.934606   -0.649266
     96          1           0        1.153067    2.073321    1.500773
     97          1           0       -3.959494   -0.632775   -2.119622
     98          1           0       -3.525728   -0.232761    1.445841
     99          1           0       -3.345188   -2.316975   -0.552148
 ---------------------------------------------------------------------

 SCF Done:  E(RHF) =  -1611.45223630     a.u. after    6 cycles
 SCF Done:  E(RHF) =  -1611.45227051     A.U. after   10 cycles
 E2 =    -0.5918616221D+01 EUMP2 =    -0.16173708867285D+04

 The electronic state is 1-A.
 Alpha  occ. eigenvalues --  -15.54598 -15.54582 -15.54563 -15.53983 -15.53938
 Alpha  occ. eigenvalues --  -15.53936 -11.28367 -11.28330 -11.28289 -11.24755
 Alpha  occ. eigenvalues --  -11.24753 -11.24741 -11.24538 -11.24506 -11.24506
 Alpha  occ. eigenvalues --  -11.23304 -11.23254 -11.23196 -11.22903 -11.22886
 Alpha  occ. eigenvalues --  -11.22884 -11.22812 -11.22738 -11.22721 -11.22711
 Alpha  occ. eigenvalues --  -11.22409 -11.22073 -11.21450 -11.21434 -11.21428
 Alpha  occ. eigenvalues --  -11.21427 -11.21426 -11.21412 -11.21407 -11.21401
 Alpha  occ. eigenvalues --  -11.21383 -11.21047 -11.21028 -11.21012  -1.27774
 Alpha  occ. eigenvalues --   -1.27617  -1.27551  -1.15922  -1.14858  -1.14843
 Alpha  occ. eigenvalues --   -1.14832  -1.09603  -1.09542  -1.08429  -1.05783
 Alpha  occ. eigenvalues --   -1.05774  -1.05770  -1.03351  -1.03108  -0.96792
 Alpha  occ. eigenvalues --   -0.95765  -0.95394  -0.93246  -0.93244  -0.93239
 Alpha  occ. eigenvalues --   -0.92949  -0.92940  -0.92935  -0.87670  -0.86528
 Alpha  occ. eigenvalues --   -0.85309  -0.84726  -0.84701  -0.84667  -0.79218
 Alpha  occ. eigenvalues --   -0.77914  -0.77302  -0.76949  -0.76888  -0.75371
 Alpha  occ. eigenvalues --   -0.74970  -0.74957  -0.70077  -0.69824  -0.67974
 Alpha  occ. eigenvalues --   -0.67813  -0.65886  -0.65439  -0.65365  -0.63879
 Alpha  occ. eigenvalues --   -0.62781  -0.62751  -0.62317  -0.61342  -0.60983
 Alpha  occ. eigenvalues --   -0.60410  -0.60377  -0.60367  -0.59948  -0.59165
 Alpha  occ. eigenvalues --   -0.58936  -0.58696  -0.58002  -0.57520  -0.57455
 Alpha  occ. eigenvalues --   -0.57208  -0.57128  -0.56557  -0.55058  -0.55021
 Alpha  occ. eigenvalues --   -0.54884  -0.54673  -0.54421  -0.54270  -0.53597
 Alpha  occ. eigenvalues --   -0.53544  -0.53493  -0.53249  -0.53192  -0.53033
 Alpha  occ. eigenvalues --   -0.51714  -0.51695  -0.51596  -0.51233  -0.51069
 Alpha  occ. eigenvalues --   -0.50860  -0.49665  -0.49125  -0.48774  -0.48511
 Alpha  occ. eigenvalues --   -0.48228  -0.48101  -0.47286  -0.47213  -0.47175
 Alpha  occ. eigenvalues --   -0.46839  -0.46549  -0.46540  -0.46383  -0.46294
 Alpha  occ. eigenvalues --   -0.45928  -0.45786  -0.45168  -0.45023  -0.43661
 Alpha  occ. eigenvalues --   -0.43566  -0.43498  -0.38015  -0.37947  -0.37880
 Alpha  occ. eigenvalues --   -0.36403  -0.36114  -0.35865  -0.32556  -0.31823
 Alpha virt. eigenvalues --    0.03178   0.03450   0.03578   0.03731   0.04112
 Alpha virt. eigenvalues --    0.04166   0.04263   0.04526   0.04585   0.05067
 Alpha virt. eigenvalues --    0.05314   0.05348   0.05557   0.05721   0.05795

 Mulliken charges:
               1
     1  C    1.689907
     2  C    0.581357
     3  C   -0.063886
     4  C    1.481999
     5  H   -0.959046
     6  C    0.435210
     7  C    1.296908
     8  H   -0.875662
     9  C   -0.445397
    10  C    0.540560
    11  H   -1.597137
    12  C    0.406902
    13  C    0.577407
    14  C    0.759626
    15  N   -0.858181
    16  H   -0.680356
    17  C   -0.744437
    18  N   -0.731654
    19  H   -0.791429
    20  C   -0.824557
    21  H   -0.326616
    22  C    1.078776
    23  C    1.043241
    24  H   -0.337665
    25  C    1.182256
    26  C    1.023389
    27  H   -0.019304
    28  H   -0.074383
    29  H   -0.078679
    30  H   -0.198913
    31  H   -0.113385
    32  H   -0.007790
    33  H   -0.060982
    34  H   -0.103368
    35  H   -0.043279
    36  H   -0.181005
    37  H   -0.020612
    38  H   -0.027398
    39  C    0.797461
    40  C    0.425051
    41  N   -0.716020
    42  H   -0.746823
    43  C   -0.930028
    44  N   -0.687856
    45  H   -0.679013
    46  C   -0.678767
    47  H   -0.334852
    48  C    1.125750
    49  C    0.972124
    50  H   -0.310263
    51  C    1.077878
    52  C    1.027931
    53  H   -0.092719
    54  H   -0.036616
    55  H   -0.059915
    56  H   -0.181515
    57  H   -0.035773
    58  H   -0.021518
    59  H   -0.024347
    60  H   -0.078279
    61  H   -0.078986
    62  H    0.011929
    63  H   -0.187139
    64  H   -0.096893
    65  C    0.622190
    66  C    0.535455
    67  N   -0.782625
    68  H   -0.781923
    69  C   -0.779230
    70  N   -0.846326
    71  H   -0.680746
    72  C   -0.742102
    73  H   -0.333973
    74  C    1.161226
    75  C    1.008013
    76  H   -0.330880
    77  C    1.087278
    78  C    1.039666
    79  H   -0.059941
    80  H   -0.107578
    81  H   -0.031939
    82  H   -0.025126
    83  H   -0.039967
    84  H   -0.181175
    85  H   -0.021866
    86  H   -0.071444
    87  H   -0.077703
    88  H   -0.198784
    89  H   -0.118182
    90  H   -0.000752
    91  H    0.055615
    92  H   -0.534135
    93  H    0.313565
    94  H    0.050305
    95  H   -0.622467
    96  H    0.303413
    97  H    0.053231
    98  H    0.270105
    99  H   -0.524418
 Sum of Mulliken charges =   0.00000

 Dipole moment (field-independent basis, Debye):
    X=              0.7724    Y=              0.8015    Z=             -0.7602  Tot=              1.3479
 Quadrupole moment (field-independent basis, Debye-Ang):
   XX=           -221.3657   YY=           -239.2384   ZZ=           -251.0865
   XY=              0.7103   XZ=              6.9644   YZ=             -5.8725

 Normal termination of Gaussian 16 at Sat Oct 30 00:55:25 2021.
