 Gaussian 16, Revision C.01,
 Gaussian 16:  ES64L-G16RevC.01  3-Jul-2019

 ----------------------------------------------------------------------
 #P PBE1PBE/Def2TZVP SP SCF=(YQC,MaxCycle=900) int=(Grid=Superfinegrid)
  EmpiricalDispersion=GD3 SCRF=(PCM,Solvent=Chloroform)
 ----------------------------------------------------------------------

 -------------------------
 _1_alde1_2_ami3_1_opt_cfm
 -------------------------
 Symbolic Z-matrix:
 Charge =  0 Multiplicity = 1

                         Standard orientation:
 ---------------------------------------------------------------------
 Center     Atomic      Atomic             Coordinates (Angstroms)
 Number     Number       Type             X           Y           Z
 ---------------------------------------------------------------------
      1          6           0        0.003438    2.081018   -0.102015
      2          6           0        0.045940    3.546434   -0.138313
      3          6           0       -1.100423    1.401081   -0.613485
      4          6           0       -1.139278    0.017448   -0.582902
      5          1           0       -1.932428    1.940080   -1.040572
      6          6           0       -0.064261   -0.683666   -0.047640
      7          6           0        1.042826   -0.016200    0.465393
      8          1           0       -0.089295   -1.763893   -0.030466
      9          6           0        1.071659    1.367197    0.441022
     10          6           0        2.203501   -0.821479    1.001228
     11          1           0        1.917414    1.899767    0.846927
     12          6           0       -2.338673   -0.747540   -1.093761
     13          8           0        0.955695    4.233588    0.251915
     14          6           0       -4.386909    0.126617   -0.489373
     15          6           0       -4.316141   -1.332948   -0.008611
     16          7           0       -3.396714    0.162371   -1.556750
     17          1           0       -4.008362    0.776849    0.312851
     18          6           0       -5.815623    0.510911   -0.812118
     19          7           0       -2.888371   -1.618912   -0.026040
     20          1           0       -4.777388   -1.976610   -0.773029
     21          6           0       -5.070494   -1.494556    1.295280
     22          1           0       -6.204989   -0.135563   -1.602696
     23          6           0       -6.638249    0.331948    0.468191
     24          1           0       -4.627951   -0.852783    2.061509
     25          6           0       -6.524668   -1.084786    1.039007
     26          1           0       -7.687299    0.553810    0.263790
     27          1           0       -6.286243    1.047613    1.214885
     28          1           0       -6.969772   -1.791268    0.334482
     29          1           0       -7.090979   -1.143049    1.970295
     30          6           0        4.300511    0.023374    0.533118
     31          6           0        4.216978   -1.413987   -0.009194
     32          7           0        3.254758    0.047186    1.545763
     33          1           0        3.986870    0.715094   -0.261948
     34          6           0        5.718853    0.352731    0.948660
     35          7           0        2.782861   -1.659379   -0.079102
     36          1           0        4.617444   -2.100600    0.752207
     37          6           0        5.037204   -1.546479   -1.275868
     38          1           0        6.046166   -0.334316    1.733378
     39          6           0        6.606366    0.199047   -0.290932
     40          1           0        4.655693   -0.861532   -2.037601
     41          6           0        6.485661   -1.190338   -0.924245
     42          1           0        6.316500    0.953715   -1.025618
     43          1           0        7.648274    0.381029   -0.020766
     44          1           0        6.871058   -1.936997   -0.225861
     45          1           0        7.101097   -1.229241   -1.824945
     46          1           0        3.613565   -0.336109    2.414494
     47          1           0        1.832008   -1.492903    1.788425
     48          1           0        2.425780   -1.344285   -0.977665
     49          1           0       -3.811180   -0.191166   -2.413541
     50          1           0       -2.476254   -1.359456    0.866580
     51          1           0       -2.015746   -1.390372   -1.925004
     52          1           0       -0.864897    4.003928   -0.576924
     53          1           0       -5.872868    1.544327   -1.157419
     54          1           0       -5.024484   -2.526830    1.645704
     55          1           0        5.783268    1.370348    1.336423
     56          1           0        4.982407   -2.562124   -1.670961
 ---------------------------------------------------------------------

 SCF Done:  E(RPBE1PBE) =  -1111.67202344     a.u. after    6 cycles
 SCF Done:  E(RPBE1PBE) =  -1111.67204284     A.U. after    9 cycles

 The electronic state is 1-A.
 Alpha  occ. eigenvalues --  -19.20446 -14.37303 -14.37068 -14.37068 -14.37008
 Alpha  occ. eigenvalues --  -10.30897 -10.28147 -10.28010 -10.24325 -10.24249
 Alpha  occ. eigenvalues --  -10.24148 -10.24124 -10.24038 -10.23961 -10.23782
 Alpha  occ. eigenvalues --  -10.23580 -10.23379 -10.22988 -10.21818 -10.21779
 Alpha  occ. eigenvalues --  -10.21732 -10.21704 -10.21682 -10.21639 -10.21615
 Alpha  occ. eigenvalues --  -10.21579  -1.08179  -0.99452  -0.99271  -0.90103
 Alpha  occ. eigenvalues --   -0.88318  -0.88165  -0.85569  -0.85146  -0.80449
 Alpha  occ. eigenvalues --   -0.80053  -0.76185  -0.76051  -0.74835  -0.74173
 Alpha  occ. eigenvalues --   -0.67966  -0.66936  -0.65790  -0.62744  -0.62556
 Alpha  occ. eigenvalues --   -0.62210  -0.62078  -0.59597  -0.59311  -0.58621
 Alpha  occ. eigenvalues --   -0.57420  -0.53734  -0.52735  -0.51617  -0.50730
 Alpha  occ. eigenvalues --   -0.49981  -0.49201  -0.48162  -0.47828  -0.47638
 Alpha  occ. eigenvalues --   -0.47265  -0.46695  -0.45500  -0.45332  -0.44577
 Alpha  occ. eigenvalues --   -0.44419  -0.43885  -0.43013  -0.41475  -0.41349
 Alpha  occ. eigenvalues --   -0.41075  -0.40979  -0.40343  -0.40152  -0.38902
 Alpha  occ. eigenvalues --   -0.37899  -0.37315  -0.36993  -0.36535  -0.36137
 Alpha  occ. eigenvalues --   -0.35977  -0.35846  -0.34990  -0.33921  -0.33786
 Alpha  occ. eigenvalues --   -0.33221  -0.33092  -0.32567  -0.32402  -0.27750
 Alpha  occ. eigenvalues --   -0.27651  -0.27450  -0.25365  -0.24933  -0.24495
 Alpha  occ. eigenvalues --   -0.24410
 Alpha virt. eigenvalues --   -0.06754  -0.01311   0.02798   0.04634   0.04702
 Alpha virt. eigenvalues --    0.04851   0.04955   0.05429   0.06467   0.06864
 Alpha virt. eigenvalues --    0.07174   0.08340   0.08884   0.08921   0.09298

 Mulliken charges:
               1
     1  C    0.249416
     2  C    0.054286
     3  C   -0.287684
     4  C    0.125472
     5  H    0.143823
     6  C   -0.433602
     7  C    0.159789
     8  H    0.135611
     9  C   -0.308046
    10  C    0.070490
    11  H    0.149386
    12  C    0.073489
    13  O   -0.326933
    14  C   -0.057414
    15  C   -0.097433
    16  N   -0.290281
    17  H    0.068315
    18  C   -0.147717
    19  N   -0.282118
    20  H    0.065032
    21  C   -0.169093
    22  H    0.097658
    23  C   -0.199429
    24  H    0.098788
    25  C   -0.198461
    26  H    0.115961
    27  H    0.100439
    28  H    0.100125
    29  H    0.115454
    30  C   -0.068399
    31  C   -0.087356
    32  N   -0.284130
    33  H    0.071922
    34  C   -0.150569
    35  N   -0.284403
    36  H    0.063250
    37  C   -0.167696
    38  H    0.096531
    39  C   -0.200360
    40  H    0.098533
    41  C   -0.198656
    42  H    0.101392
    43  H    0.115372
    44  H    0.099542
    45  H    0.114952
    46  H    0.202806
    47  H    0.098237
    48  H    0.209431
    49  H    0.203299
    50  H    0.211324
    51  H    0.098881
    52  H    0.087402
    53  H    0.109273
    54  H    0.111575
    55  H    0.111746
    56  H    0.110780
 Sum of Mulliken charges =   0.00000

 Dipole moment (field-independent basis, Debye):
    X=             -2.0210    Y=             -3.5691    Z=             -0.6729  Tot=              4.1564
 Quadrupole moment (field-independent basis, Debye-Ang):
   XX=           -123.2557   YY=           -181.1791   ZZ=           -150.4007
   XY=             -8.9953   XZ=              1.4075   YZ=             -3.8443

 Normal termination of Gaussian 16 at Sun Oct 17 23:08:02 2021.
