 Gaussian 16, Revision C.01,
 Gaussian 16:  ES64L-G16RevC.01  3-Jul-2019

 ----------------------------------------------------------------------
 #P PBE1PBE/Def2TZVP SP SCF=(YQC,MaxCycle=900) int=(Grid=Superfinegrid)
  EmpiricalDispersion=GD3 SCRF=(PCM,Solvent=Chloroform)
 ----------------------------------------------------------------------

 -------------------------
 _1_alde1_3_ami3_2_opt_cfm
 -------------------------
 Symbolic Z-matrix:
 Charge =  0 Multiplicity = 1

                         Standard orientation:
 ---------------------------------------------------------------------
 Center     Atomic      Atomic             Coordinates (Angstroms)
 Number     Number       Type             X           Y           Z
 ---------------------------------------------------------------------
      1          6           0        0.262562    1.683372   -1.143704
      2          6           0        0.307044    3.114013   -1.504123
      3          6           0       -0.933736    0.971667   -1.068329
      4          6           0       -0.930947   -0.376816   -0.716723
      5          1           0       -1.867743    1.462717   -1.307458
      6          6           0        0.276042   -1.014699   -0.439659
      7          6           0        1.476920   -0.319755   -0.527463
      8          1           0        0.254868   -2.058802   -0.166783
      9          6           0        1.461349    1.027653   -0.888618
     10          6           0        2.736476   -0.995927   -0.250488
     11          1           0        2.402823    1.551738   -0.951844
     12          6           0       -2.190800   -1.102827   -0.642739
     13          6           0       -2.771942    4.274432   -0.735984
     14          6           0       -1.408639    3.954674   -0.094213
     15          7           0       -3.058646    3.288952   -1.773568
     16          1           0       -2.712488    5.299012   -1.143885
     17          6           0       -3.862280    4.225228    0.332160
     18          7           0       -0.383403    4.082419   -1.090066
     19          1           0       -1.456993    2.948871    0.349441
     20          6           0       -1.119119    4.975427    1.012106
     21          6           0       -3.573155    5.219056    1.451805
     22          6           0       -2.210189    4.938180    2.075384
     23          6           0       -3.492309   -3.003905   -0.247417
     24          6           0       -3.694263   -3.503089    1.194726
     25          7           0       -2.237849   -2.320628   -0.316951
     26          1           0       -4.337442   -2.339324   -0.502201
     27          6           0       -3.449307   -4.190766   -1.215234
     28          7           0       -3.845083   -2.345910    2.066863
     29          1           0       -2.815521   -4.120622    1.455650
     30          6           0       -4.956850   -4.359102    1.284935
     31          6           0       -4.717473   -5.028250   -1.112543
     32          6           0       -4.903485   -5.532628    0.314131
     33          6           0        5.062571   -1.083709   -0.032979
     34          6           0        5.746242   -0.389031    1.158388
     35          7           0        3.842579   -0.393781   -0.317146
     36          1           0        4.884608   -2.139225    0.240689
     37          6           0        5.959148   -1.008711   -1.273084
     38          7           0        4.918968   -0.581855    2.341853
     39          1           0        5.867030    0.677058    0.892803
     40          6           0        7.121749   -1.005208    1.410350
     41          6           0        7.322592   -1.631569   -1.002119
     42          6           0        8.001378   -0.928790    0.168187
     43          1           0        3.993355   -0.197708    2.181677
     44          1           0        5.324511   -0.096465    3.134962
     45          1           0       -2.402922    3.406132   -2.540426
     46          1           0       -3.992418    3.438325   -2.142723
     47          1           0       -3.022653   -1.755145    2.000147
     48          1           0       -3.936048   -2.645119    3.031964
     49          1           0        1.087238    3.375893   -2.217308
     50          1           0        2.658868   -2.059718    0.022487
     51          1           0       -5.823576   -6.115701    0.389150
     52          1           0       -4.068916   -6.186197    0.578730
     53          1           0       -4.656847   -5.871241   -1.804024
     54          1           0       -5.579166   -4.420252   -1.397542
     55          1           0       -3.322397   -3.813036   -2.232079
     56          1           0       -2.576453   -4.799609   -0.972638
     57          1           0       -5.069286   -4.722880    2.308925
     58          1           0       -5.816054   -3.724783    1.060121
     59          1           0       -3.092891   -0.520170   -0.884905
     60          1           0        7.943935   -1.556370   -1.896884
     61          1           0        7.198363   -2.690980   -0.766400
     62          1           0        5.462561   -1.521418   -2.099693
     63          1           0        6.074026    0.040782   -1.550181
     64          1           0        8.969476   -1.390156    0.372677
     65          1           0        8.175813    0.118340   -0.090206
     66          1           0        7.599833   -0.483318    2.242550
     67          1           0        6.980378   -2.046130    1.706590
     68          1           0       -1.994674    5.677213    2.849680
     69          1           0       -2.223280    3.952394    2.546201
     70          1           0       -4.353483    5.154438    2.212654
     71          1           0       -3.582941    6.233481    1.046000
     72          1           0       -3.911629    3.211077    0.733511
     73          1           0       -4.827993    4.451323   -0.126887
     74          1           0       -1.059463    5.968519    0.563735
     75          1           0       -0.147836    4.749151    1.456299
 ---------------------------------------------------------------------

 SCF Done:  E(RPBE1PBE) =  -1381.58638627     a.u. after    6 cycles
 SCF Done:  E(RPBE1PBE) =  -1381.58641151     A.U. after    8 cycles

 The electronic state is 1-A.
 Alpha  occ. eigenvalues --  -14.37849 -14.37840 -14.37769 -14.36361 -14.35745
 Alpha  occ. eigenvalues --  -14.35745 -10.26659 -10.26618 -10.26558 -10.24844
 Alpha  occ. eigenvalues --  -10.24617 -10.24586 -10.24555 -10.24492 -10.24483
 Alpha  occ. eigenvalues --  -10.24474 -10.24337 -10.24175 -10.23794 -10.23729
 Alpha  occ. eigenvalues --  -10.23481 -10.21311 -10.21278 -10.21264 -10.21228
 Alpha  occ. eigenvalues --  -10.21185 -10.21165 -10.21165 -10.21158 -10.21110
 Alpha  occ. eigenvalues --  -10.21105 -10.21009 -10.21009  -0.96946  -0.96729
 Alpha  occ. eigenvalues --   -0.96534  -0.91590  -0.91220  -0.90998  -0.89459
 Alpha  occ. eigenvalues --   -0.84442  -0.84363  -0.84098  -0.80793  -0.80509
 Alpha  occ. eigenvalues --   -0.76750  -0.76102  -0.75791  -0.74454  -0.74182
 Alpha  occ. eigenvalues --   -0.73994  -0.67660  -0.67493  -0.66314  -0.63556
 Alpha  occ. eigenvalues --   -0.62741  -0.62234  -0.61878  -0.61492  -0.60409
 Alpha  occ. eigenvalues --   -0.57950  -0.57573  -0.57389  -0.56229  -0.55650
 Alpha  occ. eigenvalues --   -0.53129  -0.52476  -0.50853  -0.50368  -0.50003
 Alpha  occ. eigenvalues --   -0.49701  -0.49593  -0.49305  -0.48953  -0.48934
 Alpha  occ. eigenvalues --   -0.48563  -0.46784  -0.46484  -0.46386  -0.46315
 Alpha  occ. eigenvalues --   -0.46129  -0.45624  -0.44650  -0.44190  -0.44055
 Alpha  occ. eigenvalues --   -0.42416  -0.41420  -0.41358  -0.41010  -0.40276
 Alpha  occ. eigenvalues --   -0.40039  -0.39562  -0.39391  -0.39353  -0.38924
 Alpha  occ. eigenvalues --   -0.38555  -0.38115  -0.37123  -0.36706  -0.36520
 Alpha  occ. eigenvalues --   -0.36011  -0.35851  -0.35811  -0.35708  -0.34892
 Alpha  occ. eigenvalues --   -0.33932  -0.33615  -0.33539  -0.33417  -0.32176
 Alpha  occ. eigenvalues --   -0.31854  -0.31737  -0.31222  -0.31118  -0.29706
 Alpha  occ. eigenvalues --   -0.27490  -0.27126  -0.26794  -0.26096  -0.26015
 Alpha  occ. eigenvalues --   -0.25578  -0.25305  -0.24987
 Alpha virt. eigenvalues --   -0.06089  -0.05196  -0.01513   0.03935   0.04513
 Alpha virt. eigenvalues --    0.04784   0.04909   0.05131   0.05378   0.05478
 Alpha virt. eigenvalues --    0.05838   0.06013   0.06563   0.06864   0.07265

 Mulliken charges:
               1
     1  C    0.303929
     2  C   -0.191877
     3  C   -0.321718
     4  C    0.305621
     5  H    0.204317
     6  C   -0.381489
     7  C    0.369375
     8  H    0.118970
     9  C   -0.372512
    10  C   -0.168672
    11  H    0.127767
    12  C   -0.166279
    13  C    0.054399
    14  C    0.031527
    15  N   -0.573605
    16  H    0.085740
    17  C   -0.238157
    18  N   -0.218907
    19  H    0.088020
    20  C   -0.202649
    21  C   -0.187309
    22  C   -0.196080
    23  C    0.064154
    24  C    0.039022
    25  N   -0.218378
    26  H    0.041672
    27  C   -0.199149
    28  N   -0.554518
    29  H    0.080020
    30  C   -0.211996
    31  C   -0.178542
    32  C   -0.194392
    33  C    0.057594
    34  C    0.040946
    35  N   -0.215221
    36  H    0.043857
    37  C   -0.199226
    38  N   -0.554822
    39  H    0.080466
    40  C   -0.212186
    41  C   -0.178460
    42  C   -0.194244
    43  H    0.231664
    44  H    0.226589
    45  H    0.243473
    46  H    0.228656
    47  H    0.231491
    48  H    0.226523
    49  H    0.132676
    50  H    0.094005
    51  H    0.110509
    52  H    0.092395
    53  H    0.111141
    54  H    0.092838
    55  H    0.110349
    56  H    0.100486
    57  H    0.106396
    58  H    0.098582
    59  H    0.095448
    60  H    0.111282
    61  H    0.092975
    62  H    0.110621
    63  H    0.100810
    64  H    0.110602
    65  H    0.092392
    66  H    0.106505
    67  H    0.098668
    68  H    0.110985
    69  H    0.095728
    70  H    0.111810
    71  H    0.092178
    72  H    0.106368
    73  H    0.108025
    74  H    0.101748
    75  H    0.109076
 Sum of Mulliken charges =   0.00000

 Dipole moment (field-independent basis, Debye):
    X=             -0.9381    Y=             -0.0482    Z=              0.1902  Tot=              0.9584
 Quadrupole moment (field-independent basis, Debye-Ang):
   XX=           -187.8460   YY=           -197.8596   ZZ=           -195.9751
   XY=             -2.9014   XZ=              4.0699   YZ=              1.6886

 1\1\GINC-CX3-6-1\SP\RPBE1PBE\def2TZVP\C27H42N6\ATARZIA\18-Oct-2021\0\\
 #P PBE1PBE/Def2TZVP SP SCF=(YQC,MaxCycle=900) int=(Grid=Superfinegrid)
  EmpiricalDispersion=GD3 SCRF=(PCM,Solvent=Chloroform)\\_1_alde1_3_ami
 3_2_opt_cfm\\0,1\C,0,-0.8344,0.0796,0.1552\C,0,-0.4031,-1.0133,1.0486\
 C,0,-2.1777,0.4023,-0.0312\C,0,-2.5415,1.4375,-0.8903\H,0,-2.9412,-0.1
 382,0.5125\C,0,-1.5547,2.1524,-1.5653\C,0,-0.211,1.8507,-1.375\H,0,-1.
 8589,2.9484,-2.2278\C,0,0.1405,0.8176,-0.5059\C,0,0.8164,2.6111,-2.072
 6\H,0,1.1883,0.5969,-0.3701\C,0,-3.9498,1.759,-1.0723\C,0,-3.0907,-3.0

 Normal termination of Gaussian 16 at Mon Oct 18 10:18:42 2021.
