 Gaussian 16, Revision C.01,
 Gaussian 16:  ES64L-G16RevC.01  3-Jul-2019

 ----------------------------------------------------------------------
 #P PBE1PBE/Def2TZVP SP SCF=(YQC,MaxCycle=900) int=(Grid=Superfinegrid)
  EmpiricalDispersion=GD3
 ----------------------------------------------------------------------

 -------------------------
 _1_alde1_3_ami1_2_opt_gas
 -------------------------
 Symbolic Z-matrix:
 Charge =  0 Multiplicity = 1

                         Standard orientation:
 ---------------------------------------------------------------------
 Center     Atomic      Atomic             Coordinates (Angstroms)
 Number     Number       Type             X           Y           Z
 ---------------------------------------------------------------------
      1          6           0        0.109299    1.555408   -1.350686
      2          6           0       -0.011570    2.994275   -1.658257
      3          6           0        1.357583    1.014216   -1.075232
      4          6           0        1.488846   -0.332407   -0.731466
      5          1           0        2.246025    1.626586   -1.101595
      6          6           0        0.355306   -1.135274   -0.670766
      7          6           0       -0.898839   -0.609912   -0.973843
      8          1           0        0.429424   -2.177090   -0.397565
      9          6           0       -1.015363    0.734023   -1.320518
     10          6           0       -2.097845   -1.431331   -0.912660
     11          1           0       -1.982119    1.149725   -1.571471
     12          6           0        2.800606   -0.892945   -0.438023
     13          6           0       -3.132273    3.719588   -0.592775
     14          6           0       -1.684337    3.544532   -0.073548
     15          7           0       -3.273402    2.944776   -1.825221
     16          1           0       -3.281859    4.795285   -0.783020
     17          6           0       -4.194329    3.264867    0.428588
     18          7           0       -0.778267    3.852788   -1.148272
     19          1           0       -1.569093    2.508413    0.275853
     20          6           0       -1.325614    4.476432    1.106727
     21          1           0       -3.952279    3.729389    1.388915
     22          6           0       -4.217305    1.748637    0.611179
     23          6           0       -5.583798    3.759760    0.020748
     24          1           0       -2.038980    4.289130    1.915307
     25          6           0       -1.376981    5.953085    0.724261
     26          6           0        0.069151    4.117100    1.620368
     27          1           0       -6.300477    3.550382    0.811705
     28          1           0       -5.929544    3.260316   -0.881876
     29          1           0       -5.576641    4.833522   -0.156488
     30          1           0       -5.010200    1.470198    1.301899
     31          1           0       -3.274888    1.386302    1.013276
     32          1           0       -4.398002    1.260563   -0.342286
     33          1           0        0.816595    4.331203    0.859983
     34          1           0        0.127756    3.059863    1.873169
     35          1           0        0.304883    4.696977    2.509906
     36          1           0       -2.398437    6.280350    0.549259
     37          1           0       -0.795559    6.117600   -0.178322
     38          1           0       -0.962378    6.558484    1.527149
     39          6           0        5.126637   -0.765226   -0.208469
     40          6           0        5.663296   -0.021579    1.038149
     41          7           0        3.847457   -0.193692   -0.504558
     42          1           0        5.033529   -1.833103    0.057922
     43          6           0        6.009224   -0.645314   -1.468679
     44          7           0        4.809621   -0.406687    2.158095
     45          1           0        5.592730    1.059252    0.821593
     46          6           0        7.130172   -0.345203    1.380699
     47          1           0        6.993740   -1.060329   -1.234587
     48          6           0        6.165058    0.803790   -1.920934
     49          6           0        5.404444   -1.483706   -2.595249
     50          1           0        7.743239   -0.086684    0.512371
     51          6           0        7.319289   -1.823044    1.711165
     52          6           0        7.613954    0.516949    2.549093
     53          1           0        6.054387   -1.467123   -3.467218
     54          1           0        4.432126   -1.088800   -2.881711
     55          1           0        5.278205   -2.518141   -2.281299
     56          1           0        6.707127    0.843580   -2.863489
     57          1           0        6.713598    1.387924   -1.187067
     58          1           0        5.185002    1.250996   -2.060411
     59          1           0        7.390094    1.567981    2.374942
     60          1           0        8.690593    0.413496    2.665368
     61          1           0        7.145520    0.206871    3.479807
     62          1           0        7.170946   -2.443190    0.831343
     63          1           0        6.600241   -2.119326    2.469509
     64          1           0        8.324988   -1.998003    2.086706
     65          6           0       -3.303237   -3.343854   -0.346343
     66          6           0       -3.696651   -3.422894    1.168185
     67          7           0       -2.085909   -2.603098   -0.447985
     68          1           0       -4.118417   -2.827452   -0.883244
     69          6           0       -3.140238   -4.726956   -1.010442
     70          7           0       -2.553687   -3.446231    2.062734
     71          1           0       -4.255086   -4.352633    1.330446
     72          6           0       -4.605730   -2.237229    1.557463
     73          1           0       -4.086137   -5.263434   -0.870377
     74          6           0       -2.006950   -5.552318   -0.407819
     75          6           0       -2.906479   -4.540615   -2.510105
     76          1           0       -4.123390   -1.314367    1.213134
     77          6           0       -4.765260   -2.163310    3.075599
     78          6           0       -5.992349   -2.343775    0.924858
     79          1           0       -1.968957   -4.015126   -2.679300
     80          1           0       -3.711735   -3.961483   -2.958475
     81          1           0       -2.859078   -5.505207   -3.010274
     82          1           0       -1.832274   -6.438937   -1.014277
     83          1           0       -2.252381   -5.881633    0.599054
     84          1           0       -1.093416   -4.963942   -0.383430
     85          1           0       -6.481078   -3.261102    1.246437
     86          1           0       -5.953759   -2.342264   -0.161497
     87          1           0       -6.605791   -1.501590    1.237639
     88          1           0       -5.255737   -3.061864    3.441640
     89          1           0       -5.370776   -1.301024    3.346029
     90          1           0       -3.798212   -2.083785    3.559899
     91          1           0       -1.985381   -2.620665    1.898171
     92          1           0       -1.968552   -4.247698    1.863587
     93          1           0       -2.621563    3.303315   -2.516483
     94          1           0       -4.208583    3.070016   -2.198166
     95          1           0        5.020896    0.164905    2.967975
     96          1           0        3.837379   -0.244141    1.917975
     97          1           0        0.676853    3.369125   -2.413913
     98          1           0        2.816300   -1.957783   -0.157027
     99          1           0       -3.018415   -0.953439   -1.284256
 ---------------------------------------------------------------------

 SCF Done:  E(RPBE1PBE) =  -1620.82767294     a.u. after    6 cycles
 SCF Done:  E(RPBE1PBE) =  -1620.82770384     A.U. after    8 cycles

 The electronic state is 1-A.
 Alpha  occ. eigenvalues --  -14.37917 -14.37826 -14.37715 -14.36659 -14.35540
 Alpha  occ. eigenvalues --  -14.34603 -10.26873 -10.26842 -10.26804 -10.25203
 Alpha  occ. eigenvalues --  -10.24723 -10.24652 -10.24594 -10.24487 -10.24450
 Alpha  occ. eigenvalues --  -10.24444 -10.24415 -10.24309 -10.23955 -10.23938
 Alpha  occ. eigenvalues --  -10.23542 -10.22914 -10.22536 -10.22500 -10.22454
 Alpha  occ. eigenvalues --  -10.22078 -10.21854 -10.21274 -10.20562 -10.20516
 Alpha  occ. eigenvalues --  -10.20356 -10.20325 -10.20292 -10.20226 -10.20185
 Alpha  occ. eigenvalues --  -10.19852 -10.19705 -10.19458 -10.18988  -0.97187
 Alpha  occ. eigenvalues --   -0.96953  -0.96889  -0.91899  -0.91263  -0.90744
 Alpha  occ. eigenvalues --   -0.89523  -0.83547  -0.83441  -0.82737  -0.81541
 Alpha  occ. eigenvalues --   -0.80936  -0.80865  -0.79782  -0.79723  -0.74065
 Alpha  occ. eigenvalues --   -0.73520  -0.72891  -0.70941  -0.70409  -0.70253
 Alpha  occ. eigenvalues --   -0.70108  -0.70004  -0.69500  -0.67795  -0.67564
 Alpha  occ. eigenvalues --   -0.66710  -0.64543  -0.63775  -0.62665  -0.60100
 Alpha  occ. eigenvalues --   -0.59470  -0.58174  -0.57421  -0.56994  -0.56170
 Alpha  occ. eigenvalues --   -0.55497  -0.54368  -0.52965  -0.52641  -0.52228
 Alpha  occ. eigenvalues --   -0.51861  -0.50988  -0.50567  -0.50210  -0.49938
 Alpha  occ. eigenvalues --   -0.48746  -0.48429  -0.47960  -0.47351  -0.46703
 Alpha  occ. eigenvalues --   -0.46098  -0.45634  -0.45537  -0.45158  -0.44925
 Alpha  occ. eigenvalues --   -0.44713  -0.44182  -0.44077  -0.43511  -0.43166
 Alpha  occ. eigenvalues --   -0.43054  -0.42988  -0.42706  -0.42641  -0.42160
 Alpha  occ. eigenvalues --   -0.41561  -0.40891  -0.40382  -0.40323  -0.39801
 Alpha  occ. eigenvalues --   -0.39654  -0.39451  -0.39332  -0.39126  -0.38921
 Alpha  occ. eigenvalues --   -0.38868  -0.38377  -0.38312  -0.38009  -0.37764
 Alpha  occ. eigenvalues --   -0.37225  -0.36818  -0.36155  -0.35793  -0.35373
 Alpha  occ. eigenvalues --   -0.35056  -0.34823  -0.34661  -0.34643  -0.34593
 Alpha  occ. eigenvalues --   -0.34528  -0.34292  -0.33936  -0.33794  -0.33568
 Alpha  occ. eigenvalues --   -0.33336  -0.32889  -0.32680  -0.32187  -0.31730
 Alpha  occ. eigenvalues --   -0.31348  -0.30202  -0.27388  -0.26973  -0.26712
 Alpha  occ. eigenvalues --   -0.26331  -0.26010  -0.25270  -0.24761  -0.23711
 Alpha virt. eigenvalues --   -0.06261  -0.05294  -0.01747   0.02753   0.03155
 Alpha virt. eigenvalues --    0.03653   0.04130   0.04368   0.04855   0.05157
 Alpha virt. eigenvalues --    0.05469   0.05756   0.05864   0.06385   0.06593

 Mulliken charges:
               1
     1  C    0.311267
     2  C   -0.213104
     3  C   -0.357674
     4  C    0.411447
     5  H    0.138904
     6  C   -0.398902
     7  C    0.347487
     8  H    0.133864
     9  C   -0.313322
    10  C   -0.205410
    11  H    0.232206
    12  C   -0.225284
    13  C    0.092287
    14  C    0.115309
    15  N   -0.589168
    16  H    0.105074
    17  C   -0.031867
    18  N   -0.283282
    19  H    0.090802
    20  C   -0.029932
    21  H    0.073456
    22  C   -0.431202
    23  C   -0.378517
    24  H    0.070889
    25  C   -0.405241
    26  C   -0.382831
    27  H    0.126889
    28  H    0.106099
    29  H    0.126668
    30  H    0.127754
    31  H    0.129543
    32  H    0.112265
    33  H    0.127633
    34  H    0.115880
    35  H    0.123895
    36  H    0.113107
    37  H    0.139452
    38  H    0.116928
    39  C    0.094037
    40  C    0.071179
    41  N   -0.248576
    42  H    0.082219
    43  C   -0.041580
    44  N   -0.546540
    45  H    0.110420
    46  C   -0.059246
    47  H    0.087604
    48  C   -0.399917
    49  C   -0.379613
    50  H    0.082772
    51  C   -0.380344
    52  C   -0.414244
    53  H    0.123347
    54  H    0.129058
    55  H    0.113118
    56  H    0.117525
    57  H    0.119049
    58  H    0.133586
    59  H    0.123323
    60  H    0.126172
    61  H    0.120658
    62  H    0.117219
    63  H    0.136346
    64  H    0.116206
    65  C    0.093330
    66  C    0.027695
    67  N   -0.247353
    68  H    0.040716
    69  C    0.023758
    70  N   -0.485641
    71  H    0.076515
    72  C   -0.094287
    73  H    0.076335
    74  C   -0.446355
    75  C   -0.389105
    76  H    0.085797
    77  C   -0.309130
    78  C   -0.374187
    79  H    0.129126
    80  H    0.111821
    81  H    0.122928
    82  H    0.120979
    83  H    0.124685
    84  H    0.142602
    85  H    0.114594
    86  H    0.114093
    87  H    0.120866
    88  H    0.099700
    89  H    0.108546
    90  H    0.131043
    91  H    0.221269
    92  H    0.208878
    93  H    0.237684
    94  H    0.213096
    95  H    0.213133
    96  H    0.216748
    97  H    0.123794
    98  H    0.081236
    99  H    0.087942
 Sum of Mulliken charges =  -0.00000

 Dipole moment (field-independent basis, Debye):
    X=             -1.0302    Y=              0.9552    Z=             -1.4299  Tot=              2.0046
 Quadrupole moment (field-independent basis, Debye-Ang):
   XX=           -237.3371   YY=           -250.2790   ZZ=           -252.4558
   XY=             -3.0581   XZ=              5.7231   YZ=              7.3585

 Normal termination of Gaussian 16 at Mon Oct 18 09:21:11 2021.
