 Gaussian 16, Revision C.01,
 Gaussian 16:  ES64L-G16RevC.01  3-Jul-2019

 ----------------------------------------------------------------------
 #P PBE1PBE/Def2TZVP SP SCF=(YQC,MaxCycle=900) int=(Grid=Superfinegrid)
  EmpiricalDispersion=GD3 SCRF=(PCM,Solvent=Dichloromethane)
 ----------------------------------------------------------------------

 -------------------------
 _1_alde1_3_ami1_1_opt_dcm
 -------------------------
 Symbolic Z-matrix:
 Charge =  0 Multiplicity = 1

                         Standard orientation:
 ---------------------------------------------------------------------
 Center     Atomic      Atomic             Coordinates (Angstroms)
 Number     Number       Type             X           Y           Z
 ---------------------------------------------------------------------
      1          6           0       -0.129395    0.872371   -0.244746
      2          6           0        0.270556    2.322529   -0.288466
      3          6           0       -1.458021    0.486046   -0.310302
      4          6           0       -1.804689   -0.856118   -0.237965
      5          1           0       -2.238782    1.222584   -0.428624
      6          6           0       -0.812413   -1.813966   -0.093647
      7          6           0        0.520271   -1.437723   -0.023674
      8          1           0       -1.080618   -2.859069   -0.035437
      9          6           0        0.854240   -0.094475   -0.100327
     10          6           0        1.619528   -2.457819    0.102013
     11          1           0        1.890723    0.201797   -0.047145
     12          6           0       -3.256861   -1.251255   -0.267799
     13          6           0        1.514446    3.944361    0.785265
     14          6           0        2.176455    3.685381   -0.599278
     15          7           0        0.634208    2.808439    1.029779
     16          1           0        0.869034    4.829086    0.700223
     17          6           0        2.512104    4.207873    1.920741
     18          7           0        1.479739    2.508285   -1.097745
     19          1           0        3.232357    3.411899   -0.459146
     20          6           0        2.153535    4.923602   -1.519921
     21          1           0        3.204487    4.976437    1.556192
     22          6           0        3.326055    2.973830    2.312495
     23          6           0        1.775374    4.753116    3.142954
     24          1           0        2.511475    5.768025   -0.918196
     25          6           0        0.758216    5.262547   -2.042343
     26          6           0        3.115790    4.729560   -2.691740
     27          1           0        1.009763    4.047892    3.456371
     28          1           0        1.294059    5.700594    2.911696
     29          1           0        2.468094    4.910871    3.966595
     30          1           0        4.165240    3.271222    2.937661
     31          1           0        3.718734    2.461445    1.437447
     32          1           0        2.719357    2.273506    2.882759
     33          1           0        4.129925    4.568182   -2.332832
     34          1           0        3.114661    5.607204   -3.334613
     35          1           0        2.825925    3.867277   -3.289060
     36          1           0        0.793191    6.185144   -2.617903
     37          1           0        0.051900    5.398299   -1.226754
     38          1           0        0.383008    4.475828   -2.694705
     39          6           0       -5.408700   -0.360940   -0.659083
     40          6           0       -5.296758   -0.973497    0.767237
     41          7           0       -4.036043   -0.373411   -1.145306
     42          1           0       -5.725736    0.689568   -0.586492
     43          6           0       -6.445414   -1.081403   -1.546267
     44          7           0       -3.870016   -1.097536    1.039156
     45          1           0       -5.698371   -1.995268    0.736677
     46          6           0       -6.068975   -0.206185    1.848138
     47          1           0       -7.357889   -1.178825   -0.945559
     48          6           0       -6.003776   -2.478301   -1.980222
     49          6           0       -6.770211   -0.232669   -2.775555
     50          1           0       -7.082986   -0.053869    1.458812
     51          6           0       -5.466785    1.161945    2.170445
     52          6           0       -6.153773   -1.048076    3.120086
     53          1           0       -7.512599   -0.729970   -3.396120
     54          1           0       -5.877428   -0.067354   -3.375495
     55          1           0       -7.164252    0.736932   -2.478977
     56          1           0       -6.803799   -2.962336   -2.536381
     57          1           0       -5.761863   -3.101988   -1.122895
     58          1           0       -5.129530   -2.429110   -2.627097
     59          1           0       -5.152891   -1.298341    3.462605
     60          1           0       -6.693847   -1.973511    2.934362
     61          1           0       -6.668938   -0.500308    3.905952
     62          1           0       -4.555610    1.056440    2.755497
     63          1           0       -6.173218    1.744150    2.758118
     64          1           0       -5.237350    1.719247    1.265303
     65          6           0        3.912250   -2.616971    0.652413
     66          6           0        3.636659   -3.144515   -0.785560
     67          7           0        2.651408   -2.000279    1.038774
     68          1           0        4.672676   -1.823331    0.616090
     69          6           0        4.449297   -3.707704    1.602882
     70          7           0        2.321015   -2.637426   -1.155459
     71          1           0        3.550684   -4.238563   -0.742273
     72          6           0        4.735845   -2.807399   -1.801745
     73          1           0        5.259876   -4.217711    1.068260
     74          6           0        3.396903   -4.747101    1.985770
     75          6           0        5.034328   -3.069809    2.862881
     76          1           0        5.686713   -3.106179   -1.344020
     77          6           0        4.812347   -1.318292   -2.141877
     78          6           0        4.529914   -3.621432   -3.078013
     79          1           0        5.842147   -2.387389    2.607900
     80          1           0        5.427961   -3.834575    3.529078
     81          1           0        4.271962   -2.508068    3.399230
     82          1           0        2.959155   -5.210868    1.105016
     83          1           0        2.596771   -4.296634    2.570710
     84          1           0        3.852457   -5.529066    2.589701
     85          1           0        3.545031   -3.416977   -3.490078
     86          1           0        4.599899   -4.686739   -2.870999
     87          1           0        5.282941   -3.364523   -3.819667
     88          1           0        5.742149   -1.109334   -2.666728
     89          1           0        4.782015   -0.703100   -1.245800
     90          1           0        3.990964   -1.026011   -2.792757
     91          1           0        2.401719   -2.172527    2.003431
     92          1           0        1.191809   -3.436398    0.390020
     93          1           0        2.419583   -1.725189   -1.590719
     94          1           0        1.279643    2.552519   -2.087949
     95          1           0       -0.577245    2.934606   -0.649266
     96          1           0        1.153067    2.073321    1.500773
     97          1           0       -3.959494   -0.632775   -2.119622
     98          1           0       -3.525728   -0.232761    1.445841
     99          1           0       -3.345188   -2.316975   -0.552148
 ---------------------------------------------------------------------

 SCF Done:  E(RPBE1PBE) =  -1620.87965369     a.u. after    6 cycles
 SCF Done:  E(RPBE1PBE) =  -1620.87968085     A.U. after    8 cycles

 The electronic state is 1-A.
 Alpha  occ. eigenvalues --  -14.36761 -14.36734 -14.36718 -14.36193 -14.36161
 Alpha  occ. eigenvalues --  -14.36151 -10.27310 -10.27273 -10.27233 -10.24263
 Alpha  occ. eigenvalues --  -10.24259 -10.24246 -10.23967 -10.23940 -10.23937
 Alpha  occ. eigenvalues --  -10.22790 -10.22747 -10.22690 -10.22591 -10.22581
 Alpha  occ. eigenvalues --  -10.22578 -10.22317 -10.22297 -10.22292 -10.22122
 Alpha  occ. eigenvalues --  -10.21789 -10.21545 -10.20580 -10.20564 -10.20564
 Alpha  occ. eigenvalues --  -10.20471 -10.20460 -10.20452 -10.20390 -10.20383
 Alpha  occ. eigenvalues --  -10.20374 -10.20136 -10.20123 -10.20114  -0.99136
 Alpha  occ. eigenvalues --   -0.99023  -0.98963  -0.89015  -0.88213  -0.88197
 Alpha  occ. eigenvalues --   -0.88184  -0.84017  -0.83962  -0.83017  -0.80746
 Alpha  occ. eigenvalues --   -0.80734  -0.80729  -0.78788  -0.78598  -0.73724
 Alpha  occ. eigenvalues --   -0.72749  -0.72403  -0.70669  -0.70666  -0.70660
 Alpha  occ. eigenvalues --   -0.70379  -0.70378  -0.70375  -0.66639  -0.65733
 Alpha  occ. eigenvalues --   -0.64866  -0.64084  -0.64057  -0.64038  -0.60360
 Alpha  occ. eigenvalues --   -0.59352  -0.58620  -0.58013  -0.57955  -0.57112
 Alpha  occ. eigenvalues --   -0.56834  -0.56771  -0.53573  -0.53372  -0.51772
 Alpha  occ. eigenvalues --   -0.51642  -0.49853  -0.49770  -0.49599  -0.48585
 Alpha  occ. eigenvalues --   -0.47632  -0.47611  -0.47104  -0.46285  -0.46074
 Alpha  occ. eigenvalues --   -0.45678  -0.45662  -0.45648  -0.45231  -0.44856
 Alpha  occ. eigenvalues --   -0.44657  -0.44513  -0.43634  -0.43241  -0.43222
 Alpha  occ. eigenvalues --   -0.42933  -0.42775  -0.42580  -0.41193  -0.41146
 Alpha  occ. eigenvalues --   -0.41011  -0.40918  -0.40878  -0.40476  -0.39756
 Alpha  occ. eigenvalues --   -0.39712  -0.39662  -0.39497  -0.39454  -0.39349
 Alpha  occ. eigenvalues --   -0.38121  -0.38083  -0.38047  -0.37556  -0.37480
 Alpha  occ. eigenvalues --   -0.37348  -0.37207  -0.36161  -0.35924  -0.35745
 Alpha  occ. eigenvalues --   -0.35518  -0.35261  -0.34646  -0.34637  -0.34610
 Alpha  occ. eigenvalues --   -0.34186  -0.33997  -0.33973  -0.33847  -0.33741
 Alpha  occ. eigenvalues --   -0.33553  -0.33457  -0.32864  -0.32785  -0.31890
 Alpha  occ. eigenvalues --   -0.31798  -0.31707  -0.26636  -0.26485  -0.25215
 Alpha  occ. eigenvalues --   -0.25112  -0.24979  -0.23415  -0.23282  -0.22986
 Alpha virt. eigenvalues --   -0.01087  -0.00695   0.03109   0.03918   0.04150
 Alpha virt. eigenvalues --    0.04906   0.05144   0.05295   0.05419   0.05944
 Alpha virt. eigenvalues --    0.06360   0.06559   0.06791   0.07438   0.07631

 Mulliken charges:
               1
     1  C    0.337085
     2  C   -0.133711
     3  C   -0.380107
     4  C    0.343974
     5  H    0.115219
     6  C   -0.443167
     7  C    0.326528
     8  H    0.114174
     9  C   -0.348656
    10  C   -0.124063
    11  H    0.154043
    12  C   -0.112725
    13  C   -0.025382
    14  C    0.118899
    15  N   -0.277899
    16  H    0.061861
    17  C   -0.022833
    18  N   -0.321503
    19  H    0.055083
    20  C   -0.113328
    21  H    0.082387
    22  C   -0.446432
    23  C   -0.385181
    24  H    0.076488
    25  C   -0.393444
    26  C   -0.366695
    27  H    0.125479
    28  H    0.123448
    29  H    0.127427
    30  H    0.134294
    31  H    0.140113
    32  H    0.130974
    33  H    0.126357
    34  H    0.127408
    35  H    0.115621
    36  H    0.134959
    37  H    0.130230
    38  H    0.111657
    39  C    0.127587
    40  C   -0.035806
    41  N   -0.318744
    42  H    0.053350
    43  C   -0.114686
    44  N   -0.284612
    45  H    0.060172
    46  C   -0.018397
    47  H    0.076440
    48  C   -0.391790
    49  C   -0.366488
    50  H    0.082201
    51  C   -0.444871
    52  C   -0.385050
    53  H    0.127458
    54  H    0.115687
    55  H    0.126445
    56  H    0.135148
    57  H    0.129660
    58  H    0.111657
    59  H    0.125267
    60  H    0.123398
    61  H    0.127467
    62  H    0.131757
    63  H    0.134210
    64  H    0.138213
    65  C    0.119005
    66  C   -0.025943
    67  N   -0.321811
    68  H    0.055160
    69  C   -0.113383
    70  N   -0.277867
    71  H    0.061951
    72  C   -0.022299
    73  H    0.076394
    74  C   -0.393559
    75  C   -0.366831
    76  H    0.082596
    77  C   -0.446725
    78  C   -0.385242
    79  H    0.126304
    80  H    0.127399
    81  H    0.115825
    82  H    0.129977
    83  H    0.112239
    84  H    0.134948
    85  H    0.125320
    86  H    0.123525
    87  H    0.127504
    88  H    0.134442
    89  H    0.140339
    90  H    0.130710
    91  H    0.199331
    92  H    0.084969
    93  H    0.196299
    94  H    0.198764
    95  H    0.085347
    96  H    0.196659
    97  H    0.199318
    98  H    0.198798
    99  H    0.086283
 Sum of Mulliken charges =   0.00000

 Dipole moment (field-independent basis, Debye):
    X=              0.8092    Y=              0.8369    Z=             -0.7229  Tot=              1.3703
 Quadrupole moment (field-independent basis, Debye-Ang):
   XX=           -216.5618   YY=           -235.6446   ZZ=           -246.0238
   XY=              0.6905   XZ=              6.4766   YZ=             -5.4407

 Normal termination of Gaussian 16 at Sun Oct 17 23:27:10 2021.
