 Gaussian 16, Revision C.01,
 Gaussian 16:  ES64L-G16RevC.01  3-Jul-2019

 ----------------------------------------------------------------------
 #P PBE1PBE/Def2TZVP SP SCF=(YQC,MaxCycle=900) int=(Grid=Superfinegrid)
  EmpiricalDispersion=GD3
 ----------------------------------------------------------------------

 -------------------------
 _1_alde1_3_ami2_2_opt_gas
 -------------------------
 Symbolic Z-matrix:
 Charge =  0 Multiplicity = 1

                         Standard orientation:
 ---------------------------------------------------------------------
 Center     Atomic      Atomic             Coordinates (Angstroms)
 Number     Number       Type             X           Y           Z
 ---------------------------------------------------------------------
      1          6           0       -1.169673   -0.766423   -0.790060
      2          6           0       -2.384444   -1.568444   -0.790737
      3          6           0       -1.238045    0.627282   -0.790055
      4          6           0       -0.079215    1.394513   -0.791224
      5          1           0       -2.211449    1.093813   -0.793050
      6          6           0        1.162049    0.756951   -0.791829
      7          6           0        1.247006   -0.630305   -0.791846
      8          1           0        2.052673    1.366630   -0.796194
      9          6           0        0.074205   -1.386413   -0.790396
     10          6           0        2.548848   -1.281439   -0.794116
     11          1           0        0.156900   -2.462630   -0.793631
     12          6           0       -0.166294    2.847536   -0.792441
     13          6           0       -5.538033   -1.523638    0.508080
     14          6           0       -4.702203   -1.847229   -0.766540
     15          7           0       -5.823705   -0.104862    0.625561
     16          6           0       -6.865344   -2.279283    0.435120
     17          7           0       -3.530330   -1.040450   -0.795901
     18          1           0       -7.461214   -2.042669    1.312011
     19          6           0        0.751507    4.994088   -0.767099
     20          6           0        1.448827    5.556063    0.507948
     21          7           0        0.863948    3.575761   -0.796250
     22          1           0        1.283772    5.379902   -1.643821
     23          7           0        2.820278    5.094013    0.626310
     24          6           0        1.458202    7.083413    0.435083
     25          6           0        3.948953   -3.149524   -0.768669
     26          6           0        4.090371   -4.030850    0.508400
     27          7           0        2.664335   -2.537842   -0.796241
     28          1           0        4.014730   -3.805812   -1.643746
     29          7           0        3.004946   -4.987438    0.632333
     30          6           0        4.074598   -3.136705    1.749733
     31          1           0        3.153595   -2.558723    1.786664
     32          1           0       -6.358776    0.214224   -0.175297
     33          1           0       -4.951619    0.413299    0.637175
     34          1           0        3.364572    5.397882   -0.174249
     35          1           0        2.832900    4.079681    0.637998
     36          1           0       -2.238502   -2.659903   -0.792568
     37          1           0        3.421262   -0.609564   -0.799934
     38          1           0       -6.696101   -3.352178    0.400376
     39          1           0       -7.425254   -1.986677   -0.450822
     40          1           0       -0.294406    5.342270   -0.803566
     41          1           0        1.992019    7.422043   -0.450626
     42          1           0        1.960688    7.481093    1.312275
     43          1           0        0.444402    7.473338    0.399984
     44          1           0        4.773321   -2.417920   -0.809291
     45          1           0        4.918304   -2.451183    1.740048
     46          1           0        4.129824   -3.756049    2.640293
     47          6           0        0.686807    5.094179    1.751670
     48          1           0        0.646744    4.007524    1.787563
     49          1           0       -0.328560    5.482228    1.746342
     50          1           0        1.199096    5.450609    2.640705
     51          1           0       -5.302320   -1.579780   -1.643598
     52          1           0       -4.480643   -2.926993   -0.802321
     53          6           0       -4.757383   -1.951935    1.752142
     54          1           0       -4.586003   -3.025320    1.747503
     55          1           0       -5.322307   -1.685762    2.640901
     56          1           0       -3.796141   -1.443554    1.787985
     57          1           0        2.993877   -5.612984   -0.166434
     58          1           0        2.120160   -4.491232    0.644947
     59          6           0        5.408223   -4.802810    0.434071
     60          1           0        6.252683   -4.119819    0.395073
     61          1           0        5.432373   -5.436706   -0.450003
     62          1           0        5.503716   -5.434539    1.312676
     63          1           0       -1.184405    3.267024   -0.795443
 ---------------------------------------------------------------------

 SCF Done:  E(RPBE1PBE) =  -1149.48568927     a.u. after    7 cycles
 SCF Done:  E(RPBE1PBE) =  -1149.48569495     A.U. after    7 cycles

 The electronic state is 1-A.
 Alpha  occ. eigenvalues --  -14.38336 -14.38335 -14.38335 -14.35223 -14.35223
 Alpha  occ. eigenvalues --  -14.35223 -10.27214 -10.27214 -10.27213 -10.25936
 Alpha  occ. eigenvalues --  -10.25935 -10.25935 -10.24816 -10.24813 -10.24813
 Alpha  occ. eigenvalues --  -10.24502 -10.24501 -10.24500 -10.24324 -10.24324
 Alpha  occ. eigenvalues --  -10.24317 -10.20661 -10.20661 -10.20660 -10.20263
 Alpha  occ. eigenvalues --  -10.20262 -10.20262  -0.97237  -0.96957  -0.96956
 Alpha  occ. eigenvalues --   -0.92039  -0.91569  -0.91568  -0.89890  -0.81627
 Alpha  occ. eigenvalues --   -0.81627  -0.78528  -0.78067  -0.78066  -0.73158
 Alpha  occ. eigenvalues --   -0.72393  -0.72393  -0.71109  -0.71107  -0.71106
 Alpha  occ. eigenvalues --   -0.66109  -0.66109  -0.63278  -0.57675  -0.57675
 Alpha  occ. eigenvalues --   -0.57214  -0.56189  -0.56188  -0.54315  -0.52765
 Alpha  occ. eigenvalues --   -0.50752  -0.50751  -0.50231  -0.50026  -0.50026
 Alpha  occ. eigenvalues --   -0.50001  -0.48079  -0.48078  -0.47762  -0.47116
 Alpha  occ. eigenvalues --   -0.47116  -0.45613  -0.45074  -0.45073  -0.44815
 Alpha  occ. eigenvalues --   -0.43056  -0.42403  -0.42401  -0.41923  -0.39273
 Alpha  occ. eigenvalues --   -0.39272  -0.39156  -0.39155  -0.39152  -0.38692
 Alpha  occ. eigenvalues --   -0.38619  -0.38618  -0.37693  -0.37209  -0.37207
 Alpha  occ. eigenvalues --   -0.36944  -0.36943  -0.36447  -0.34969  -0.34968
 Alpha  occ. eigenvalues --   -0.34393  -0.33930  -0.33929  -0.31005  -0.27828
 Alpha  occ. eigenvalues --   -0.27493  -0.27493  -0.26713  -0.26712  -0.24834
 Alpha  occ. eigenvalues --   -0.24546  -0.24546
 Alpha virt. eigenvalues --   -0.06482  -0.06482  -0.02601   0.03716   0.03835
 Alpha virt. eigenvalues --    0.03835   0.05348   0.05349   0.05903   0.05905
 Alpha virt. eigenvalues --    0.06584   0.07395   0.08085   0.08445   0.08446

 Mulliken charges:
               1
     1  C    0.368411
     2  C   -0.167501
     3  C   -0.340636
     4  C    0.368400
     5  H    0.124659
     6  C   -0.340580
     7  C    0.368376
     8  H    0.124641
     9  C   -0.340629
    10  C   -0.167385
    11  H    0.124646
    12  C   -0.167428
    13  C    0.138566
    14  C   -0.126465
    15  N   -0.496485
    16  C   -0.355133
    17  N   -0.174718
    18  H    0.134435
    19  C   -0.126554
    20  C    0.138617
    21  N   -0.174722
    22  H    0.113376
    23  N   -0.496478
    24  C   -0.355159
    25  C   -0.126559
    26  C    0.138560
    27  N   -0.174732
    28  H    0.113371
    29  N   -0.496498
    30  C   -0.376291
    31  H    0.128726
    32  H    0.204316
    33  H    0.219613
    34  H    0.204305
    35  H    0.219637
    36  H    0.069261
    37  H    0.069273
    38  H    0.113012
    39  H    0.112169
    40  H    0.070298
    41  H    0.112161
    42  H    0.134444
    43  H    0.113016
    44  H    0.070324
    45  H    0.108345
    46  H    0.132046
    47  C   -0.376317
    48  H    0.128718
    49  H    0.108369
    50  H    0.132033
    51  H    0.113367
    52  H    0.070311
    53  C   -0.376293
    54  H    0.108375
    55  H    0.132027
    56  H    0.128718
    57  H    0.204311
    58  H    0.219642
    59  C   -0.355205
    60  H    0.113010
    61  H    0.112181
    62  H    0.134450
    63  H    0.069251
 Sum of Mulliken charges =   0.00000

 Dipole moment (field-independent basis, Debye):
    X=             -0.0020    Y=             -0.0031    Z=             -2.7315  Tot=              2.7315
 Quadrupole moment (field-independent basis, Debye-Ang):
   XX=           -166.9864   YY=           -166.9277   ZZ=           -174.3767
   XY=              0.0147   XZ=             -0.0292   YZ=              0.0052

 Normal termination of Gaussian 16 at Mon Oct 18 11:36:29 2021.
