 Gaussian 16, Revision C.01,
 Gaussian 16:  ES64L-G16RevC.01  3-Jul-2019

 ----------------------------------------------------------------------
 #P MP2/aug-cc-pVDZ SP SCF=(YQC,MaxCycle=900) int=(Grid=Superfinegrid)
 SCRF=(PCM,Solvent=Chloroform)
 ----------------------------------------------------------------------

 -----------------------------
 _1_alde1_2_ami4_2_opt_cfm_mp2
 -----------------------------
 Symbolic Z-matrix:
 Charge =  0 Multiplicity = 1

                         Standard orientation:
 ---------------------------------------------------------------------
 Center     Atomic      Atomic             Coordinates (Angstroms)
 Number     Number       Type             X           Y           Z
 ---------------------------------------------------------------------
      1          6           0        0.069850    1.734389    0.078355
      2          6           0        0.116205    3.200336    0.196440
      3          6           0        1.228984    0.981123    0.237373
      4          6           0        1.186586   -0.407550    0.132519
      5          1           0        2.175811    1.454540    0.447556
      6          6           0       -0.030239   -1.032073   -0.134146
      7          6           0       -1.197579   -0.289712   -0.299164
      8          1           0       -0.068579   -2.110148   -0.215299
      9          6           0       -1.139672    1.097258   -0.190767
     10          6           0       -2.460176   -0.963572   -0.577185
     11          1           0       -2.039351    1.679154   -0.317547
     12          6           0        2.394947   -1.203065    0.299172
     13          8           0       -0.828963    3.937677    0.095324
     14          6           0        4.688330   -1.465627    0.650628
     15          6           0        5.667631   -1.117636   -0.496840
     16          7           0        3.514687   -0.668725    0.525064
     17          7           0        6.087058    0.262768   -0.537842
     18          6           0       -5.755968   -0.656061    0.125834
     19          6           0       -4.758567   -0.996087   -0.988457
     20          7           0       -5.343240   -1.306828    1.358601
     21          7           0       -3.528991   -0.317089   -0.742705
     22          1           0        1.132391    3.595600    0.397147
     23          1           0       -6.003448   -1.104966    2.101364
     24          1           0       -4.437150   -0.949115    1.645586
     25          1           0        6.555744    0.514943    0.326410
     26          1           0        5.272932    0.861314   -0.629341
     27          1           0       -2.417608   -2.062613   -0.634623
     28          1           0       -5.822252    0.440121    0.206144
     29          1           0       -6.739507   -1.047287   -0.146656
     30          1           0       -5.154516   -0.619795   -1.936320
     31          1           0       -4.638336   -2.089363   -1.046340
     32          1           0        2.267798   -2.294463    0.222369
     33          1           0        5.185121   -1.349557   -1.450532
     34          1           0        6.555629   -1.747348   -0.396060
     35          1           0        5.161686   -1.205540    1.603563
     36          1           0        4.476750   -2.548113    0.635595
 ---------------------------------------------------------------------

 SCF Done:  E(RHF) =  -795.504084631     a.u. after    6 cycles
 SCF Done:  E(RHF) =  -795.504156604     A.U. after   12 cycles
 E2 =    -0.2679408290D+01 EUMP2 =    -0.79818356489399D+03

 The electronic state is 1-A.
 Alpha  occ. eigenvalues --  -20.57453 -15.56968 -15.56872 -15.54826 -15.54651
 Alpha  occ. eigenvalues --  -11.34917 -11.29492 -11.29279 -11.27151 -11.26891
 Alpha  occ. eigenvalues --  -11.26431 -11.26122 -11.26038 -11.25952 -11.25701
 Alpha  occ. eigenvalues --  -11.25524 -11.25509 -11.25330  -1.41183  -1.25917
 Alpha  occ. eigenvalues --   -1.25628  -1.19116  -1.18098  -1.17450  -1.07454
 Alpha  occ. eigenvalues --   -1.07054  -0.99486  -0.98167  -0.91013  -0.90002
 Alpha  occ. eigenvalues --   -0.87554  -0.83206  -0.80025  -0.78488  -0.75296
 Alpha  occ. eigenvalues --   -0.71847  -0.69881  -0.68151  -0.67590  -0.67031
 Alpha  occ. eigenvalues --   -0.66117  -0.65369  -0.64419  -0.63387  -0.60747
 Alpha  occ. eigenvalues --   -0.60441  -0.60000  -0.57291  -0.56862  -0.55256
 Alpha  occ. eigenvalues --   -0.54925  -0.54313  -0.53534  -0.52867  -0.52522
 Alpha  occ. eigenvalues --   -0.50175  -0.49634  -0.46547  -0.43692  -0.43061
 Alpha  occ. eigenvalues --   -0.41359  -0.41151  -0.39267  -0.38794  -0.35228
 Alpha  occ. eigenvalues --   -0.32865
 Alpha virt. eigenvalues --    0.03464   0.03903   0.04059   0.04564   0.04729
 Alpha virt. eigenvalues --    0.05007   0.05098   0.05388   0.05885   0.06026
 Alpha virt. eigenvalues --    0.06278   0.06669   0.07363   0.07655   0.08077

 Mulliken charges:
               1
     1  C    0.721442
     2  C    1.133358
     3  C    0.026644
     4  C    0.256347
     5  H   -0.703994
     6  C    0.806793
     7  C    0.491517
     8  H   -0.642774
     9  C   -0.303981
    10  C    1.028044
    11  H   -0.785020
    12  C    1.114322
    13  O   -0.844908
    14  C    0.492617
    15  C    0.832497
    16  N   -0.641891
    17  N   -0.473237
    18  C    0.853107
    19  C    0.548538
    20  N   -0.443561
    21  N   -0.676803
    22  H   -0.298465
    23  H   -0.018186
    24  H    0.039490
    25  H    0.039399
    26  H    0.037687
    27  H   -0.667491
    28  H   -0.117283
    29  H   -0.152868
    30  H   -0.238197
    31  H   -0.093955
    32  H   -0.642725
    33  H   -0.149966
    34  H   -0.130842
    35  H   -0.301124
    36  H   -0.094529
 Sum of Mulliken charges =   0.00000

 Dipole moment (field-independent basis, Debye):
    X=              1.0588    Y=             -5.2033    Z=              1.4623  Tot=              5.5076
 Quadrupole moment (field-independent basis, Debye-Ang):
   XX=           -112.3852   YY=           -119.8098   ZZ=           -110.0906
   XY=             -0.1434   XZ=              9.8274   YZ=              4.4534

 Normal termination of Gaussian 16 at Sun Nov  7 02:47:32 2021.
