 Gaussian 16, Revision C.01,
 Gaussian 16:  ES64L-G16RevC.01  3-Jul-2019

 ----------------------------------------------------------------------
 #P PBE1PBE/Def2TZVP SP SCF=(YQC,MaxCycle=900) int=(Grid=Superfinegrid)
  EmpiricalDispersion=GD3
 ----------------------------------------------------------------------

 -------------------------
 _1_alde1_2_ami2_2_opt_gas
 -------------------------
 Symbolic Z-matrix:
 Charge =  0 Multiplicity = 1

                         Standard orientation:
 ---------------------------------------------------------------------
 Center     Atomic      Atomic             Coordinates (Angstroms)
 Number     Number       Type             X           Y           Z
 ---------------------------------------------------------------------
      1          6           0       -0.418655    2.824876    0.044975
      2          6           0       -0.849522    4.185819    0.396407
      3          6           0       -1.356420    1.831369   -0.210148
      4          6           0       -0.943280    0.541703   -0.545568
      5          1           0       -2.414191    2.039220   -0.157550
      6          6           0        0.417372    0.262802   -0.621216
      7          6           0        1.369753    1.250853   -0.367828
      8          1           0        0.764619   -0.725757   -0.881745
      9          6           0        0.943216    2.531218   -0.034690
     10          6           0        2.792371    0.950361   -0.450979
     11          1           0        1.653820    3.319767    0.167423
     12          6           0       -1.920575   -0.504091   -0.815675
     13          8           0       -0.112961    5.109090    0.629778
     14          6           0       -4.099896   -1.321946   -0.994119
     15          6           0       -4.976335   -1.550069    0.275452
     16          7           0       -3.160821   -0.281009   -0.756114
     17          7           0       -5.606844   -0.325547    0.731276
     18          6           0        4.961820   -1.575489    0.265448
     19          6           0        4.602487   -0.484000   -0.788787
     20          7           0        4.146754   -2.766943    0.116781
     21          7           0        3.208798   -0.204253   -0.743120
     22          1           0       -1.950289    4.307616    0.432534
     23          1           0        4.286647   -3.179512   -0.799281
     24          1           0        3.166537   -2.519272    0.197025
     25          1           0       -6.215785    0.049185    0.011789
     26          1           0       -4.895726    0.370528    0.927011
     27          1           0       -1.509004   -1.490307   -1.079248
     28          1           0        3.473056    1.791136   -0.249721
     29          6           0       -4.099848   -2.081321    1.411237
     30          6           0        6.428795   -1.968431    0.087121
     31          1           0        4.819143   -0.889019   -1.783401
     32          1           0        5.225078    0.410644   -0.623348
     33          1           0        6.681706   -2.743333    0.805188
     34          1           0        7.078915   -1.112283    0.245913
     35          1           0        6.603225   -2.356744   -0.914270
     36          1           0       -4.757287   -0.986190   -1.803574
     37          1           0       -3.622625   -2.270485   -1.291141
     38          1           0       -3.662049   -3.039430    1.143147
     39          1           0       -4.705059   -2.204760    2.304657
     40          1           0       -3.298598   -1.378712    1.630978
     41          6           0       -6.072926   -2.562063   -0.058843
     42          1           0       -6.696272   -2.197779   -0.872718
     43          1           0       -6.700932   -2.710880    0.814950
     44          1           0       -5.641307   -3.515500   -0.351511
     45          6           0        4.734229   -1.019773    1.672534
     46          1           0        3.698628   -0.709107    1.793763
     47          1           0        5.380328   -0.165291    1.857273
     48          1           0        4.950370   -1.793110    2.403939
 ---------------------------------------------------------------------

 SCF Done:  E(RPBE1PBE) =  -956.922714753     a.u. after    7 cycles
 SCF Done:  E(RPBE1PBE) =  -956.922720086     A.U. after    9 cycles

 The electronic state is 1-A.
 Alpha  occ. eigenvalues --  -19.21030 -14.38985 -14.38951 -14.35591 -14.35560
 Alpha  occ. eigenvalues --  -10.31618 -10.27864 -10.27808 -10.26324 -10.26323
 Alpha  occ. eigenvalues --  -10.25802 -10.25751 -10.25616 -10.25497 -10.25483
 Alpha  occ. eigenvalues --  -10.25417 -10.24938 -10.24909 -10.20959 -10.20956
 Alpha  occ. eigenvalues --  -10.20620 -10.20605  -1.08704  -0.97757  -0.97543
 Alpha  occ. eigenvalues --   -0.92496  -0.91973  -0.90935  -0.82463  -0.82152
 Alpha  occ. eigenvalues --   -0.78743  -0.78493  -0.73459  -0.73044  -0.71445
 Alpha  occ. eigenvalues --   -0.71437  -0.69122  -0.66870  -0.64607  -0.58384
 Alpha  occ. eigenvalues --   -0.58118  -0.57257  -0.56763  -0.55255  -0.53251
 Alpha  occ. eigenvalues --   -0.51223  -0.50848  -0.50576  -0.50458  -0.49107
 Alpha  occ. eigenvalues --   -0.48582  -0.47972  -0.47574  -0.47012  -0.45754
 Alpha  occ. eigenvalues --   -0.45546  -0.44964  -0.44427  -0.42961  -0.42910
 Alpha  occ. eigenvalues --   -0.41193  -0.39917  -0.39673  -0.39489  -0.39474
 Alpha  occ. eigenvalues --   -0.39091  -0.38756  -0.37989  -0.37668  -0.37535
 Alpha  occ. eigenvalues --   -0.36895  -0.35432  -0.34794  -0.34355  -0.32948
 Alpha  occ. eigenvalues --   -0.28588  -0.28430  -0.28081  -0.27968  -0.27481
 Alpha  occ. eigenvalues --   -0.25100  -0.24941
 Alpha virt. eigenvalues --   -0.07993  -0.07254  -0.03572   0.03412   0.03496
 Alpha virt. eigenvalues --    0.04741   0.05010   0.05348   0.05906   0.06695
 Alpha virt. eigenvalues --    0.07752   0.07944   0.08452   0.08813   0.09022

 Mulliken charges:
               1
     1  C    0.254838
     2  C    0.053393
     3  C   -0.311271
     4  C    0.366750
     5  H    0.133881
     6  C   -0.338911
     7  C    0.361301
     8  H    0.128261
     9  C   -0.324470
    10  C   -0.153383
    11  H    0.138806
    12  C   -0.162468
    13  O   -0.277141
    14  C   -0.127882
    15  C    0.137095
    16  N   -0.172928
    17  N   -0.495582
    18  C    0.137106
    19  C   -0.130394
    20  N   -0.495932
    21  N   -0.173905
    22  H    0.078112
    23  H    0.205225
    24  H    0.218674
    25  H    0.205665
    26  H    0.219138
    27  H    0.071828
    28  H    0.075402
    29  C   -0.375934
    30  C   -0.355548
    31  H    0.115101
    32  H    0.073739
    33  H    0.135344
    34  H    0.114073
    35  H    0.112968
    36  H    0.115547
    37  H    0.072224
    38  H    0.108901
    39  H    0.133645
    40  H    0.127306
    41  C   -0.355527
    42  H    0.113229
    43  H    0.135625
    44  H    0.113471
    45  C   -0.375513
    46  H    0.127322
    47  H    0.109700
    48  H    0.133119
 Sum of Mulliken charges =  -0.00000

 Dipole moment (field-independent basis, Debye):
    X=              0.4519    Y=             -2.0019    Z=             -2.3363  Tot=              3.1097
 Quadrupole moment (field-independent basis, Debye-Ang):
   XX=           -129.1073   YY=           -153.0606   ZZ=           -137.3104
   XY=              3.6412   XZ=              3.3867   YZ=              2.1628

 Normal termination of Gaussian 16 at Mon Oct 18 11:45:20 2021.
