 Gaussian 16, Revision C.01,
 Gaussian 16:  ES64L-G16RevC.01  3-Jul-2019

 ----------------------------------------------------------------------
 #P PBE1PBE/Def2TZVP SP SCF=(YQC,MaxCycle=900) int=(Grid=Superfinegrid)
  EmpiricalDispersion=GD3 SCRF=(PCM,Solvent=Chloroform)
 ----------------------------------------------------------------------

 -------------------------
 _1_alde1_3_ami1_2_opt_cfm
 -------------------------
 Symbolic Z-matrix:
 Charge =  0 Multiplicity = 1

                         Standard orientation:
 ---------------------------------------------------------------------
 Center     Atomic      Atomic             Coordinates (Angstroms)
 Number     Number       Type             X           Y           Z
 ---------------------------------------------------------------------
      1          6           0        0.109299    1.555408   -1.350686
      2          6           0       -0.011570    2.994275   -1.658257
      3          6           0        1.357583    1.014216   -1.075232
      4          6           0        1.488846   -0.332407   -0.731466
      5          1           0        2.246025    1.626586   -1.101595
      6          6           0        0.355306   -1.135274   -0.670766
      7          6           0       -0.898839   -0.609912   -0.973843
      8          1           0        0.429424   -2.177090   -0.397565
      9          6           0       -1.015363    0.734023   -1.320518
     10          6           0       -2.097845   -1.431331   -0.912660
     11          1           0       -1.982119    1.149725   -1.571471
     12          6           0        2.800606   -0.892945   -0.438023
     13          6           0       -3.132273    3.719588   -0.592775
     14          6           0       -1.684337    3.544532   -0.073548
     15          7           0       -3.273402    2.944776   -1.825221
     16          1           0       -3.281859    4.795285   -0.783020
     17          6           0       -4.194329    3.264867    0.428588
     18          7           0       -0.778267    3.852788   -1.148272
     19          1           0       -1.569093    2.508413    0.275853
     20          6           0       -1.325614    4.476432    1.106727
     21          1           0       -3.952279    3.729389    1.388915
     22          6           0       -4.217305    1.748637    0.611179
     23          6           0       -5.583798    3.759760    0.020748
     24          1           0       -2.038980    4.289130    1.915307
     25          6           0       -1.376981    5.953085    0.724261
     26          6           0        0.069151    4.117100    1.620368
     27          1           0       -6.300477    3.550382    0.811705
     28          1           0       -5.929544    3.260316   -0.881876
     29          1           0       -5.576641    4.833522   -0.156488
     30          1           0       -5.010200    1.470198    1.301899
     31          1           0       -3.274888    1.386302    1.013276
     32          1           0       -4.398002    1.260563   -0.342286
     33          1           0        0.816595    4.331203    0.859983
     34          1           0        0.127756    3.059863    1.873169
     35          1           0        0.304883    4.696977    2.509906
     36          1           0       -2.398437    6.280350    0.549259
     37          1           0       -0.795559    6.117600   -0.178322
     38          1           0       -0.962378    6.558484    1.527149
     39          6           0        5.126637   -0.765226   -0.208469
     40          6           0        5.663296   -0.021579    1.038149
     41          7           0        3.847457   -0.193692   -0.504558
     42          1           0        5.033529   -1.833103    0.057922
     43          6           0        6.009224   -0.645314   -1.468679
     44          7           0        4.809621   -0.406687    2.158095
     45          1           0        5.592730    1.059252    0.821593
     46          6           0        7.130172   -0.345203    1.380699
     47          1           0        6.993740   -1.060329   -1.234587
     48          6           0        6.165058    0.803790   -1.920934
     49          6           0        5.404444   -1.483706   -2.595249
     50          1           0        7.743239   -0.086684    0.512371
     51          6           0        7.319289   -1.823044    1.711165
     52          6           0        7.613954    0.516949    2.549093
     53          1           0        6.054387   -1.467123   -3.467218
     54          1           0        4.432126   -1.088800   -2.881711
     55          1           0        5.278205   -2.518141   -2.281299
     56          1           0        6.707127    0.843580   -2.863489
     57          1           0        6.713598    1.387924   -1.187067
     58          1           0        5.185002    1.250996   -2.060411
     59          1           0        7.390094    1.567981    2.374942
     60          1           0        8.690593    0.413496    2.665368
     61          1           0        7.145520    0.206871    3.479807
     62          1           0        7.170946   -2.443190    0.831343
     63          1           0        6.600241   -2.119326    2.469509
     64          1           0        8.324988   -1.998003    2.086706
     65          6           0       -3.303237   -3.343854   -0.346343
     66          6           0       -3.696651   -3.422894    1.168185
     67          7           0       -2.085909   -2.603098   -0.447985
     68          1           0       -4.118417   -2.827452   -0.883244
     69          6           0       -3.140238   -4.726956   -1.010442
     70          7           0       -2.553687   -3.446231    2.062734
     71          1           0       -4.255086   -4.352633    1.330446
     72          6           0       -4.605730   -2.237229    1.557463
     73          1           0       -4.086137   -5.263434   -0.870377
     74          6           0       -2.006950   -5.552318   -0.407819
     75          6           0       -2.906479   -4.540615   -2.510105
     76          1           0       -4.123390   -1.314367    1.213134
     77          6           0       -4.765260   -2.163310    3.075599
     78          6           0       -5.992349   -2.343775    0.924858
     79          1           0       -1.968957   -4.015126   -2.679300
     80          1           0       -3.711735   -3.961483   -2.958475
     81          1           0       -2.859078   -5.505207   -3.010274
     82          1           0       -1.832274   -6.438937   -1.014277
     83          1           0       -2.252381   -5.881633    0.599054
     84          1           0       -1.093416   -4.963942   -0.383430
     85          1           0       -6.481078   -3.261102    1.246437
     86          1           0       -5.953759   -2.342264   -0.161497
     87          1           0       -6.605791   -1.501590    1.237639
     88          1           0       -5.255737   -3.061864    3.441640
     89          1           0       -5.370776   -1.301024    3.346029
     90          1           0       -3.798212   -2.083785    3.559899
     91          1           0       -1.985381   -2.620665    1.898171
     92          1           0       -1.968552   -4.247698    1.863587
     93          1           0       -2.621563    3.303315   -2.516483
     94          1           0       -4.208583    3.070016   -2.198166
     95          1           0        5.020896    0.164905    2.967975
     96          1           0        3.837379   -0.244141    1.917975
     97          1           0        0.676853    3.369125   -2.413913
     98          1           0        2.816300   -1.957783   -0.157027
     99          1           0       -3.018415   -0.953439   -1.284256
 ---------------------------------------------------------------------

 SCF Done:  E(RPBE1PBE) =  -1620.83539625     a.u. after    6 cycles
 SCF Done:  E(RPBE1PBE) =  -1620.83542527     A.U. after    8 cycles

 The electronic state is 1-A.
 Alpha  occ. eigenvalues --  -14.37887 -14.37784 -14.37629 -14.36135 -14.35611
 Alpha  occ. eigenvalues --  -14.34926 -10.26770 -10.26745 -10.26682 -10.24813
 Alpha  occ. eigenvalues --  -10.24597 -10.24553 -10.24504 -10.24466 -10.24438
 Alpha  occ. eigenvalues --  -10.24435 -10.24339 -10.24248 -10.23891 -10.23881
 Alpha  occ. eigenvalues --  -10.23474 -10.22431 -10.22378 -10.22359 -10.22335
 Alpha  occ. eigenvalues --  -10.22027 -10.21921 -10.20665 -10.20382 -10.20251
 Alpha  occ. eigenvalues --  -10.20191 -10.20138 -10.20137 -10.20094 -10.20080
 Alpha  occ. eigenvalues --  -10.19848 -10.19703 -10.19582 -10.19319  -0.97127
 Alpha  occ. eigenvalues --   -0.96884  -0.96795  -0.91577  -0.91192  -0.90869
 Alpha  occ. eigenvalues --   -0.89521  -0.83470  -0.83291  -0.82605  -0.81124
 Alpha  occ. eigenvalues --   -0.81029  -0.80819  -0.79712  -0.79657  -0.73863
 Alpha  occ. eigenvalues --   -0.73461  -0.72852  -0.70479  -0.70264  -0.70234
 Alpha  occ. eigenvalues --   -0.70035  -0.69982  -0.69629  -0.67675  -0.67498
 Alpha  occ. eigenvalues --   -0.66581  -0.64435  -0.63711  -0.62568  -0.59949
 Alpha  occ. eigenvalues --   -0.59414  -0.58005  -0.57452  -0.56770  -0.56029
 Alpha  occ. eigenvalues --   -0.55371  -0.54274  -0.52559  -0.52492  -0.52141
 Alpha  occ. eigenvalues --   -0.51799  -0.50862  -0.50497  -0.50315  -0.49858
 Alpha  occ. eigenvalues --   -0.48484  -0.48350  -0.47923  -0.47271  -0.46649
 Alpha  occ. eigenvalues --   -0.46124  -0.45513  -0.45355  -0.45018  -0.44699
 Alpha  occ. eigenvalues --   -0.44620  -0.44088  -0.43679  -0.43458  -0.43139
 Alpha  occ. eigenvalues --   -0.42958  -0.42834  -0.42596  -0.42410  -0.42129
 Alpha  occ. eigenvalues --   -0.41514  -0.40490  -0.40359  -0.40246  -0.39683
 Alpha  occ. eigenvalues --   -0.39642  -0.39465  -0.39382  -0.38918  -0.38884
 Alpha  occ. eigenvalues --   -0.38859  -0.38287  -0.38259  -0.37960  -0.37571
 Alpha  occ. eigenvalues --   -0.37179  -0.36798  -0.36028  -0.35694  -0.35082
 Alpha  occ. eigenvalues --   -0.34923  -0.34661  -0.34563  -0.34556  -0.34500
 Alpha  occ. eigenvalues --   -0.34271  -0.34241  -0.33906  -0.33647  -0.33592
 Alpha  occ. eigenvalues --   -0.33303  -0.32824  -0.32476  -0.32091  -0.31671
 Alpha  occ. eigenvalues --   -0.31269  -0.30121  -0.27354  -0.26956  -0.26669
 Alpha  occ. eigenvalues --   -0.26210  -0.26012  -0.25119  -0.24876  -0.24057
 Alpha virt. eigenvalues --   -0.06210  -0.05243  -0.01650   0.03122   0.03302
 Alpha virt. eigenvalues --    0.03907   0.04500   0.04645   0.05197   0.05368
 Alpha virt. eigenvalues --    0.05724   0.05992   0.06130   0.06509   0.06832

 Mulliken charges:
               1
     1  C    0.296684
     2  C   -0.197364
     3  C   -0.365657
     4  C    0.405534
     5  H    0.140552
     6  C   -0.408586
     7  C    0.352769
     8  H    0.140372
     9  C   -0.307623
    10  C   -0.205225
    11  H    0.218226
    12  C   -0.221077
    13  C    0.093052
    14  C    0.109690
    15  N   -0.596276
    16  H    0.106026
    17  C   -0.027283
    18  N   -0.300901
    19  H    0.095823
    20  C   -0.025531
    21  H    0.076962
    22  C   -0.444402
    23  C   -0.392317
    24  H    0.078502
    25  C   -0.419511
    26  C   -0.395346
    27  H    0.130215
    28  H    0.114178
    29  H    0.129281
    30  H    0.131732
    31  H    0.130537
    32  H    0.114459
    33  H    0.126833
    34  H    0.119673
    35  H    0.129395
    36  H    0.121897
    37  H    0.129379
    38  H    0.122703
    39  C    0.099598
    40  C    0.066369
    41  N   -0.256298
    42  H    0.083253
    43  C   -0.036981
    44  N   -0.573751
    45  H    0.111958
    46  C   -0.051966
    47  H    0.092471
    48  C   -0.416641
    49  C   -0.393039
    50  H    0.088232
    51  C   -0.395902
    52  C   -0.423804
    53  H    0.128804
    54  H    0.128018
    55  H    0.119077
    56  H    0.123252
    57  H    0.124842
    58  H    0.132850
    59  H    0.127594
    60  H    0.130808
    61  H    0.124153
    62  H    0.124508
    63  H    0.124773
    64  H    0.122509
    65  C    0.087549
    66  C    0.026623
    67  N   -0.257090
    68  H    0.053460
    69  C    0.024881
    70  N   -0.519126
    71  H    0.085350
    72  C   -0.076630
    73  H    0.081326
    74  C   -0.457267
    75  C   -0.402373
    76  H    0.091159
    77  C   -0.337994
    78  C   -0.391387
    79  H    0.127522
    80  H    0.117824
    81  H    0.128438
    82  H    0.126367
    83  H    0.129783
    84  H    0.141641
    85  H    0.119205
    86  H    0.120853
    87  H    0.126237
    88  H    0.105616
    89  H    0.116730
    90  H    0.125556
    91  H    0.230277
    92  H    0.218689
    93  H    0.241890
    94  H    0.225065
    95  H    0.226768
    96  H    0.225542
    97  H    0.132371
    98  H    0.093823
    99  H    0.099258
 Sum of Mulliken charges =  -0.00000

 Dipole moment (field-independent basis, Debye):
    X=             -1.3727    Y=              0.9729    Z=             -1.7238  Tot=              2.4088
 Quadrupole moment (field-independent basis, Debye-Ang):
   XX=           -233.7472   YY=           -250.8713   ZZ=           -253.2684
   XY=             -3.2010   XZ=              6.7382   YZ=              9.0630

 Normal termination of Gaussian 16 at Mon Oct 18 14:12:23 2021.
