 Gaussian 16, Revision C.01,
 Gaussian 16:  ES64L-G16RevC.01  3-Jul-2019

 ----------------------------------------------------------------------
 #P MP2/aug-cc-pVDZ SP SCF=(YQC,MaxCycle=900) int=(Grid=Superfinegrid)
 SCRF=(PCM,Solvent=Dichloromethane)
 ----------------------------------------------------------------------

 -----------------------------
 _1_alde1_3_ami1_2_opt_dcm_mp2
 -----------------------------
 Symbolic Z-matrix:
 Charge =  0 Multiplicity = 1

                         Standard orientation:
 ---------------------------------------------------------------------
 Center     Atomic      Atomic             Coordinates (Angstroms)
 Number     Number       Type             X           Y           Z
 ---------------------------------------------------------------------
      1          6           0        0.109299    1.555408   -1.350686
      2          6           0       -0.011570    2.994275   -1.658257
      3          6           0        1.357583    1.014216   -1.075232
      4          6           0        1.488846   -0.332407   -0.731466
      5          1           0        2.246025    1.626586   -1.101595
      6          6           0        0.355306   -1.135274   -0.670766
      7          6           0       -0.898839   -0.609912   -0.973843
      8          1           0        0.429424   -2.177090   -0.397565
      9          6           0       -1.015363    0.734023   -1.320518
     10          6           0       -2.097845   -1.431331   -0.912660
     11          1           0       -1.982119    1.149725   -1.571471
     12          6           0        2.800606   -0.892945   -0.438023
     13          6           0       -3.132273    3.719588   -0.592775
     14          6           0       -1.684337    3.544532   -0.073548
     15          7           0       -3.273402    2.944776   -1.825221
     16          1           0       -3.281859    4.795285   -0.783020
     17          6           0       -4.194329    3.264867    0.428588
     18          7           0       -0.778267    3.852788   -1.148272
     19          1           0       -1.569093    2.508413    0.275853
     20          6           0       -1.325614    4.476432    1.106727
     21          1           0       -3.952279    3.729389    1.388915
     22          6           0       -4.217305    1.748637    0.611179
     23          6           0       -5.583798    3.759760    0.020748
     24          1           0       -2.038980    4.289130    1.915307
     25          6           0       -1.376981    5.953085    0.724261
     26          6           0        0.069151    4.117100    1.620368
     27          1           0       -6.300477    3.550382    0.811705
     28          1           0       -5.929544    3.260316   -0.881876
     29          1           0       -5.576641    4.833522   -0.156488
     30          1           0       -5.010200    1.470198    1.301899
     31          1           0       -3.274888    1.386302    1.013276
     32          1           0       -4.398002    1.260563   -0.342286
     33          1           0        0.816595    4.331203    0.859983
     34          1           0        0.127756    3.059863    1.873169
     35          1           0        0.304883    4.696977    2.509906
     36          1           0       -2.398437    6.280350    0.549259
     37          1           0       -0.795559    6.117600   -0.178322
     38          1           0       -0.962378    6.558484    1.527149
     39          6           0        5.126637   -0.765226   -0.208469
     40          6           0        5.663296   -0.021579    1.038149
     41          7           0        3.847457   -0.193692   -0.504558
     42          1           0        5.033529   -1.833103    0.057922
     43          6           0        6.009224   -0.645314   -1.468679
     44          7           0        4.809621   -0.406687    2.158095
     45          1           0        5.592730    1.059252    0.821593
     46          6           0        7.130172   -0.345203    1.380699
     47          1           0        6.993740   -1.060329   -1.234587
     48          6           0        6.165058    0.803790   -1.920934
     49          6           0        5.404444   -1.483706   -2.595249
     50          1           0        7.743239   -0.086684    0.512371
     51          6           0        7.319289   -1.823044    1.711165
     52          6           0        7.613954    0.516949    2.549093
     53          1           0        6.054387   -1.467123   -3.467218
     54          1           0        4.432126   -1.088800   -2.881711
     55          1           0        5.278205   -2.518141   -2.281299
     56          1           0        6.707127    0.843580   -2.863489
     57          1           0        6.713598    1.387924   -1.187067
     58          1           0        5.185002    1.250996   -2.060411
     59          1           0        7.390094    1.567981    2.374942
     60          1           0        8.690593    0.413496    2.665368
     61          1           0        7.145520    0.206871    3.479807
     62          1           0        7.170946   -2.443190    0.831343
     63          1           0        6.600241   -2.119326    2.469509
     64          1           0        8.324988   -1.998003    2.086706
     65          6           0       -3.303237   -3.343854   -0.346343
     66          6           0       -3.696651   -3.422894    1.168185
     67          7           0       -2.085909   -2.603098   -0.447985
     68          1           0       -4.118417   -2.827452   -0.883244
     69          6           0       -3.140238   -4.726956   -1.010442
     70          7           0       -2.553687   -3.446231    2.062734
     71          1           0       -4.255086   -4.352633    1.330446
     72          6           0       -4.605730   -2.237229    1.557463
     73          1           0       -4.086137   -5.263434   -0.870377
     74          6           0       -2.006950   -5.552318   -0.407819
     75          6           0       -2.906479   -4.540615   -2.510105
     76          1           0       -4.123390   -1.314367    1.213134
     77          6           0       -4.765260   -2.163310    3.075599
     78          6           0       -5.992349   -2.343775    0.924858
     79          1           0       -1.968957   -4.015126   -2.679300
     80          1           0       -3.711735   -3.961483   -2.958475
     81          1           0       -2.859078   -5.505207   -3.010274
     82          1           0       -1.832274   -6.438937   -1.014277
     83          1           0       -2.252381   -5.881633    0.599054
     84          1           0       -1.093416   -4.963942   -0.383430
     85          1           0       -6.481078   -3.261102    1.246437
     86          1           0       -5.953759   -2.342264   -0.161497
     87          1           0       -6.605791   -1.501590    1.237639
     88          1           0       -5.255737   -3.061864    3.441640
     89          1           0       -5.370776   -1.301024    3.346029
     90          1           0       -3.798212   -2.083785    3.559899
     91          1           0       -1.985381   -2.620665    1.898171
     92          1           0       -1.968552   -4.247698    1.863587
     93          1           0       -2.621563    3.303315   -2.516483
     94          1           0       -4.208583    3.070016   -2.198166
     95          1           0        5.020896    0.164905    2.967975
     96          1           0        3.837379   -0.244141    1.917975
     97          1           0        0.676853    3.369125   -2.413913
     98          1           0        2.816300   -1.957783   -0.157027
     99          1           0       -3.018415   -0.953439   -1.284256
 ---------------------------------------------------------------------

 SCF Done:  E(RHF) =  -1611.41846416     a.u. after    7 cycles
 SCF Done:  E(RHF) =  -1611.41850330     A.U. after   15 cycles
 E2 =    -0.5922741106D+01 EUMP2 =    -0.16173412444065D+04

 The electronic state is 1-A.
 Alpha  occ. eigenvalues --  -15.56210 -15.55933 -15.55753 -15.54238 -15.54018
 Alpha  occ. eigenvalues --  -15.53338 -11.28626 -11.28603 -11.28522 -11.25360
 Alpha  occ. eigenvalues --  -11.25273 -11.25272 -11.25213 -11.25130 -11.25095
 Alpha  occ. eigenvalues --  -11.25015 -11.25005 -11.24991 -11.24941 -11.24882
 Alpha  occ. eigenvalues --  -11.24722 -11.22621 -11.22586 -11.22559 -11.22523
 Alpha  occ. eigenvalues --  -11.22304 -11.22213 -11.21456 -11.21253 -11.21133
 Alpha  occ. eigenvalues --  -11.21021 -11.20998 -11.20986 -11.20915 -11.20888
 Alpha  occ. eigenvalues --  -11.20738 -11.20588 -11.20528 -11.20262  -1.25796
 Alpha  occ. eigenvalues --   -1.25475  -1.25365  -1.18933  -1.18431  -1.18199
 Alpha  occ. eigenvalues --   -1.16605  -1.08949  -1.08727  -1.07904  -1.06137
 Alpha  occ. eigenvalues --   -1.06067  -1.05842  -1.04562  -1.04550  -0.96873
 Alpha  occ. eigenvalues --   -0.96462  -0.95844  -0.92974  -0.92790  -0.92775
 Alpha  occ. eigenvalues --   -0.92553  -0.92513  -0.92146  -0.89065  -0.88883
 Alpha  occ. eigenvalues --   -0.87577  -0.85064  -0.84311  -0.82648  -0.79161
 Alpha  occ. eigenvalues --   -0.78605  -0.76586  -0.76305  -0.75356  -0.74388
 Alpha  occ. eigenvalues --   -0.73445  -0.72209  -0.69479  -0.68703  -0.68313
 Alpha  occ. eigenvalues --   -0.67811  -0.67050  -0.66792  -0.66088  -0.66039
 Alpha  occ. eigenvalues --   -0.63778  -0.63558  -0.63100  -0.62798  -0.61949
 Alpha  occ. eigenvalues --   -0.61228  -0.60508  -0.59998  -0.59805  -0.59204
 Alpha  occ. eigenvalues --   -0.59110  -0.58629  -0.57999  -0.57920  -0.57659
 Alpha  occ. eigenvalues --   -0.57305  -0.56955  -0.56757  -0.56715  -0.56252
 Alpha  occ. eigenvalues --   -0.54457  -0.54385  -0.54302  -0.53999  -0.53576
 Alpha  occ. eigenvalues --   -0.53433  -0.53258  -0.53134  -0.52660  -0.52605
 Alpha  occ. eigenvalues --   -0.52572  -0.52215  -0.52118  -0.51343  -0.51121
 Alpha  occ. eigenvalues --   -0.50483  -0.48809  -0.48567  -0.47930  -0.47787
 Alpha  occ. eigenvalues --   -0.47509  -0.47270  -0.47133  -0.47047  -0.46832
 Alpha  occ. eigenvalues --   -0.46753  -0.46545  -0.46243  -0.46149  -0.45813
 Alpha  occ. eigenvalues --   -0.45637  -0.44995  -0.44529  -0.43951  -0.42958
 Alpha  occ. eigenvalues --   -0.42216  -0.40662  -0.40400  -0.40012  -0.39303
 Alpha  occ. eigenvalues --   -0.38258  -0.37946  -0.37007  -0.33156  -0.32170
 Alpha virt. eigenvalues --    0.03057   0.03413   0.03498   0.03659   0.04049
 Alpha virt. eigenvalues --    0.04115   0.04400   0.04501   0.04668   0.05115
 Alpha virt. eigenvalues --    0.05208   0.05335   0.05636   0.05713   0.05864

 Mulliken charges:
               1
     1  C    0.601174
     2  C    0.345220
     3  C   -0.098675
     4  C    0.990921
     5  H   -0.949128
     6  C    0.736865
     7  C    0.475022
     8  H   -1.022240
     9  C    1.088703
    10  C    0.368810
    11  H   -0.756459
    12  C    0.156852
    13  C    0.836942
    14  C    0.682850
    15  N   -0.322675
    16  H   -0.378342
    17  C   -0.797963
    18  N   -0.535731
    19  H   -0.873561
    20  C   -1.108798
    21  H   -0.323432
    22  C    0.885378
    23  C    1.181130
    24  H   -0.269443
    25  C    1.227046
    26  C    1.036384
    27  H   -0.069889
    28  H   -0.077161
    29  H   -0.130471
    30  H   -0.317414
    31  H   -0.136096
    32  H    0.006835
    33  H    0.016556
    34  H   -0.053047
    35  H   -0.224373
    36  H   -0.079118
    37  H   -0.008868
    38  H   -0.147384
    39  C   -0.862409
    40  C    0.891422
    41  N   -0.014871
    42  H   -0.398252
    43  C   -1.221587
    44  N   -0.304256
    45  H   -0.315776
    46  C   -1.271661
    47  H   -0.323502
    48  C    1.238099
    49  C    1.334251
    50  H   -0.310942
    51  C    1.262323
    52  C    1.215028
    53  H   -0.145378
    54  H    0.074714
    55  H   -0.051860
    56  H   -0.126471
    57  H   -0.079874
    58  H   -0.150611
    59  H   -0.064065
    60  H   -0.085419
    61  H   -0.068265
    62  H   -0.113714
    63  H    0.049929
    64  H   -0.167292
    65  C   -0.368396
    66  C    1.040120
    67  N   -0.177228
    68  H   -0.591744
    69  C   -0.627766
    70  N   -0.385973
    71  H   -0.557695
    72  C   -2.107068
    73  H   -0.395805
    74  C    1.178313
    75  C    1.255274
    76  H   -0.377994
    77  C    1.591154
    78  C    1.679468
    79  H    0.028246
    80  H   -0.070464
    81  H   -0.160485
    82  H   -0.198522
    83  H   -0.061298
    84  H   -0.045579
    85  H   -0.070315
    86  H   -0.101648
    87  H   -0.133295
    88  H   -0.067028
    89  H   -0.066099
    90  H   -0.034382
    91  H    0.071798
    92  H   -0.037484
    93  H    0.008018
    94  H    0.018109
    95  H   -0.016001
    96  H   -0.013121
    97  H   -0.486532
    98  H   -0.704496
    99  H   -0.960064
 Sum of Mulliken charges =   0.00000

 Dipole moment (field-independent basis, Debye):
    X=             -1.5315    Y=              0.8720    Z=             -2.0852  Tot=              2.7302
 Quadrupole moment (field-independent basis, Debye-Ang):
   XX=           -237.8312   YY=           -256.4515   ZZ=           -258.8928
   XY=             -3.2943   XZ=              7.0981   YZ=              9.7180

 Normal termination of Gaussian 16 at Wed Nov 10 01:50:03 2021.
