 Gaussian 16, Revision C.01,
 Gaussian 16:  ES64L-G16RevC.01  3-Jul-2019

 ----------------------------------------------------------------------
 #P PBE1PBE/Def2TZVP SP SCF=(YQC,MaxCycle=900) int=(Grid=Superfinegrid)
  EmpiricalDispersion=GD3 SCRF=(PCM,Solvent=Chloroform)
 ----------------------------------------------------------------------

 -------------------------
 _1_alde1_3_ami3_1_opt_cfm
 -------------------------
 Symbolic Z-matrix:
 Charge =  0 Multiplicity = 1

                         Standard orientation:
 ---------------------------------------------------------------------
 Center     Atomic      Atomic             Coordinates (Angstroms)
 Number     Number       Type             X           Y           Z
 ---------------------------------------------------------------------
      1          6           0        1.329728   -0.402172   -1.350807
      2          6           0        2.784498   -0.802552   -1.307453
      3          6           0        0.320392   -1.349581   -1.347463
      4          6           0       -1.013010   -0.956269   -1.348170
      5          1           0        0.575086   -2.397501   -1.359316
      6          6           0       -1.328735    0.391688   -1.347591
      7          6           0       -0.321473    1.349789   -1.350650
      8          1           0       -2.363578    0.695258   -1.359988
      9          6           0        1.003725    0.949234   -1.350178
     10          6           0       -0.701746    2.809918   -1.306139
     11          1           0        1.784097    1.693665   -1.364351
     12          6           0       -2.087752   -2.015242   -1.301752
     13          6           0        4.143180   -1.644057    0.377846
     14          6           0        3.362151   -2.799134   -0.273011
     15          7           0        3.357598   -0.472596    0.019803
     16          7           0        2.968918   -2.243332   -1.559525
     17          6           0       -4.107376   -1.508153   -0.275463
     18          6           0       -3.501088   -2.758823    0.384880
     19          7           0       -3.426525   -1.454979   -1.560768
     20          7           0       -2.092849   -2.668754    0.029461
     21          6           0        0.744947    4.305315   -0.276921
     22          6           0       -0.642531    4.405686    0.380880
     23          7           0        0.452898    3.689565   -1.563024
     24          7           0       -1.268334    3.141408    0.023730
     25          1           0        0.202680    4.405643   -2.237035
     26          1           0       -1.482463    2.994793   -2.057059
     27          1           0       -0.989282    2.424564    0.689572
     28          1           0        3.333433   -0.221502   -2.061613
     29          1           0        2.598769   -0.355949    0.687387
     30          1           0       -3.920929   -2.030343   -2.234721
     31          1           0       -1.612744   -2.066921    0.694666
     32          1           0       -1.857336   -2.785631   -2.050832
     33          6           0        4.185057   -4.070768   -0.254809
     34          1           0        3.711153   -2.386853   -2.236406
     35          6           0       -5.620308   -1.582083   -0.260083
     36          6           0        1.437542    5.652440   -0.259867
     37          1           0        2.437502   -2.960556    0.300608
     38          6           0        4.496495   -4.395955    1.209783
     39          1           0        5.113434   -3.921146   -0.812204
     40          1           0        3.638316   -4.894326   -0.717028
     41          6           0        5.192032   -3.235543    1.928021
     42          1           0        5.131229   -5.282624    1.262034
     43          1           0        3.560621   -4.625750    1.724574
     44          6           0        4.387897   -1.933899    1.844680
     45          1           0        5.349081   -3.503341    2.974773
     46          1           0        6.173170   -3.071602    1.476103
     47          1           0        4.938298   -1.118190    2.316344
     48          1           0        3.432872   -2.048186    2.364090
     49          1           0        5.111211   -1.541376   -0.135233
     50          1           0       -3.784530   -0.623605    0.293237
     51          6           0       -6.060861   -1.678719    1.204330
     52          1           0       -5.955345   -2.463959   -0.812367
     53          1           0       -6.057383   -0.699043   -0.728920
     54          6           0       -5.407462   -2.857837    1.931464
     55          1           0       -7.146506   -1.782744    1.254976
     56          1           0       -5.791349   -0.750604    1.713573
     57          6           0       -3.877773   -2.815671    1.851224
     58          1           0       -5.756822   -3.791756    1.484791
     59          1           0       -5.720224   -2.852749    2.977527
     60          1           0       -3.896505   -3.651209   -0.123340
     61          1           0       -3.449353   -3.698014    2.329626
     62          1           0       -3.498870   -1.928880    2.365881
     63          1           0        1.348474    3.583153    0.292629
     64          6           0        1.571476    6.081831    1.204950
     65          1           0        0.842418    6.383785   -0.813007
     66          1           0        2.421580    5.589637   -0.727029
     67          6           0        0.222455    6.105299    1.929840
     68          1           0        2.024250    7.073940    1.256742
     69          1           0        2.239691    5.384019    1.715117
     70          6           0       -0.505936    4.759648    1.847585
     71          1           0       -0.410752    6.875142    1.482421
     72          1           0        0.381480    6.373112    2.976257
     73          1           0       -1.485038    4.829620    2.324248
     74          1           0        0.071529    3.987723    2.362830
     75          1           0       -1.216454    5.194789   -0.128037
 ---------------------------------------------------------------------

 SCF Done:  E(RPBE1PBE) =  -1381.60337699     a.u. after    6 cycles
 SCF Done:  E(RPBE1PBE) =  -1381.60340306     A.U. after    8 cycles

 The electronic state is 1-A.
 Alpha  occ. eigenvalues --  -14.36674 -14.36671 -14.36667 -14.36558 -14.36556
 Alpha  occ. eigenvalues --  -14.36553 -10.27276 -10.27275 -10.27272 -10.23895
 Alpha  occ. eigenvalues --  -10.23894 -10.23892 -10.23868 -10.23868 -10.23865
 Alpha  occ. eigenvalues --  -10.22395 -10.22394 -10.22393 -10.21571 -10.21570
 Alpha  occ. eigenvalues --  -10.21568 -10.21547 -10.21546 -10.21545 -10.21534
 Alpha  occ. eigenvalues --  -10.21532 -10.21531 -10.21512 -10.21510 -10.21509
 Alpha  occ. eigenvalues --  -10.21177 -10.21176 -10.21173  -0.98858  -0.98726
 Alpha  occ. eigenvalues --   -0.98724  -0.88631  -0.87752  -0.87750  -0.87706
 Alpha  occ. eigenvalues --   -0.85248  -0.85246  -0.84583  -0.79069  -0.79067
 Alpha  occ. eigenvalues --   -0.75891  -0.75889  -0.75884  -0.74903  -0.73361
 Alpha  occ. eigenvalues --   -0.73360  -0.65994  -0.65993  -0.65232  -0.62335
 Alpha  occ. eigenvalues --   -0.62334  -0.62024  -0.61919  -0.61881  -0.61877
 Alpha  occ. eigenvalues --   -0.59175  -0.59173  -0.59014  -0.57480  -0.57477
 Alpha  occ. eigenvalues --   -0.52714  -0.52257  -0.51105  -0.51104  -0.50143
 Alpha  occ. eigenvalues --   -0.49354  -0.49349  -0.48026  -0.47585  -0.47583
 Alpha  occ. eigenvalues --   -0.47237  -0.46957  -0.46955  -0.46023  -0.45230
 Alpha  occ. eigenvalues --   -0.44764  -0.44761  -0.43567  -0.43566  -0.43127
 Alpha  occ. eigenvalues --   -0.41141  -0.41075  -0.41073  -0.40916  -0.40914
 Alpha  occ. eigenvalues --   -0.40640  -0.39695  -0.39340  -0.39338  -0.38263
 Alpha  occ. eigenvalues --   -0.37245  -0.37240  -0.36465  -0.36463  -0.36334
 Alpha  occ. eigenvalues --   -0.35762  -0.35761  -0.35745  -0.34955  -0.34278
 Alpha  occ. eigenvalues --   -0.34277  -0.33697  -0.33694  -0.33656  -0.32902
 Alpha  occ. eigenvalues --   -0.32901  -0.32829  -0.32240  -0.32239  -0.32205
 Alpha  occ. eigenvalues --   -0.26472  -0.26468  -0.24889  -0.24398  -0.24134
 Alpha  occ. eigenvalues --   -0.24131  -0.23696  -0.23694
 Alpha virt. eigenvalues --   -0.00441  -0.00433   0.03523   0.04744   0.04829
 Alpha virt. eigenvalues --    0.04831   0.05050   0.05053   0.05585   0.06629
 Alpha virt. eigenvalues --    0.06631   0.07016   0.07542   0.07550   0.08716

 Mulliken charges:
               1
     1  C    0.153215
     2  C    0.020570
     3  C   -0.344582
     4  C    0.153847
     5  H    0.131874
     6  C   -0.344314
     7  C    0.152793
     8  H    0.132417
     9  C   -0.344453
    10  C    0.021236
    11  H    0.132318
    12  C    0.020405
    13  C   -0.066485
    14  C   -0.083256
    15  N   -0.289634
    16  N   -0.275014
    17  C   -0.083394
    18  C   -0.065956
    19  N   -0.275002
    20  N   -0.289708
    21  C   -0.082596
    22  C   -0.066452
    23  N   -0.275240
    24  N   -0.289830
    25  H    0.201267
    26  H    0.094010
    27  H    0.203212
    28  H    0.093877
    29  H    0.203050
    30  H    0.201173
    31  H    0.203115
    32  H    0.093979
    33  C   -0.151688
    34  H    0.201223
    35  C   -0.151744
    36  C   -0.152141
    37  H    0.066987
    38  C   -0.198536
    39  H    0.095702
    40  H    0.109743
    41  C   -0.199527
    42  H    0.114527
    43  H    0.099895
    44  C   -0.160482
    45  H    0.114026
    46  H    0.099179
    47  H    0.109059
    48  H    0.096194
    49  H    0.059378
    50  H    0.067029
    51  C   -0.198696
    52  H    0.095755
    53  H    0.109775
    54  C   -0.199533
    55  H    0.114513
    56  H    0.099941
    57  C   -0.160971
    58  H    0.099193
    59  H    0.114026
    60  H    0.059457
    61  H    0.108976
    62  H    0.096328
    63  H    0.067066
    64  C   -0.198516
    65  H    0.095844
    66  H    0.109703
    67  C   -0.199650
    68  H    0.114496
    69  H    0.099886
    70  C   -0.160754
    71  H    0.099134
    72  H    0.114053
    73  H    0.109008
    74  H    0.096288
    75  H    0.059407
 Sum of Mulliken charges =   0.00000

 Dipole moment (field-independent basis, Debye):
    X=              0.0082    Y=              0.0035    Z=              2.4795  Tot=              2.4796
 Quadrupole moment (field-independent basis, Debye-Ang):
   XX=           -184.4945   YY=           -184.5903   ZZ=           -198.6947
   XY=             -0.0178   XZ=              0.0008   YZ=              0.0202

 Normal termination of Gaussian 16 at Mon Oct 18 11:57:16 2021.
