 Gaussian 16, Revision C.01,
 Gaussian 16:  ES64L-G16RevC.01  3-Jul-2019

 ----------------------------------------------------------------------
 #P PBE1PBE/Def2TZVP SP SCF=(YQC,MaxCycle=900) int=(Grid=Superfinegrid)
  EmpiricalDispersion=GD3
 ----------------------------------------------------------------------

 -------------------------
 _1_alde1_3_ami3_2_opt_gas
 -------------------------
 Symbolic Z-matrix:
 Charge =  0 Multiplicity = 1

                         Standard orientation:
 ---------------------------------------------------------------------
 Center     Atomic      Atomic             Coordinates (Angstroms)
 Number     Number       Type             X           Y           Z
 ---------------------------------------------------------------------
      1          6           0        0.262562    1.683372   -1.143704
      2          6           0        0.307044    3.114013   -1.504123
      3          6           0       -0.933736    0.971667   -1.068329
      4          6           0       -0.930947   -0.376816   -0.716723
      5          1           0       -1.867743    1.462717   -1.307458
      6          6           0        0.276042   -1.014699   -0.439659
      7          6           0        1.476920   -0.319755   -0.527463
      8          1           0        0.254868   -2.058802   -0.166783
      9          6           0        1.461349    1.027653   -0.888618
     10          6           0        2.736476   -0.995927   -0.250488
     11          1           0        2.402823    1.551738   -0.951844
     12          6           0       -2.190800   -1.102827   -0.642739
     13          6           0       -2.771942    4.274432   -0.735984
     14          6           0       -1.408639    3.954674   -0.094213
     15          7           0       -3.058646    3.288952   -1.773568
     16          1           0       -2.712488    5.299012   -1.143885
     17          6           0       -3.862280    4.225228    0.332160
     18          7           0       -0.383403    4.082419   -1.090066
     19          1           0       -1.456993    2.948871    0.349441
     20          6           0       -1.119119    4.975427    1.012106
     21          6           0       -3.573155    5.219056    1.451805
     22          6           0       -2.210189    4.938180    2.075384
     23          6           0       -3.492309   -3.003905   -0.247417
     24          6           0       -3.694263   -3.503089    1.194726
     25          7           0       -2.237849   -2.320628   -0.316951
     26          1           0       -4.337442   -2.339324   -0.502201
     27          6           0       -3.449307   -4.190766   -1.215234
     28          7           0       -3.845083   -2.345910    2.066863
     29          1           0       -2.815521   -4.120622    1.455650
     30          6           0       -4.956850   -4.359102    1.284935
     31          6           0       -4.717473   -5.028250   -1.112543
     32          6           0       -4.903485   -5.532628    0.314131
     33          6           0        5.062571   -1.083709   -0.032979
     34          6           0        5.746242   -0.389031    1.158388
     35          7           0        3.842579   -0.393781   -0.317146
     36          1           0        4.884608   -2.139225    0.240689
     37          6           0        5.959148   -1.008711   -1.273084
     38          7           0        4.918968   -0.581855    2.341853
     39          1           0        5.867030    0.677058    0.892803
     40          6           0        7.121749   -1.005208    1.410350
     41          6           0        7.322592   -1.631569   -1.002119
     42          6           0        8.001378   -0.928790    0.168187
     43          1           0        3.993355   -0.197708    2.181677
     44          1           0        5.324511   -0.096465    3.134962
     45          1           0       -2.402922    3.406132   -2.540426
     46          1           0       -3.992418    3.438325   -2.142723
     47          1           0       -3.022653   -1.755145    2.000147
     48          1           0       -3.936048   -2.645119    3.031964
     49          1           0        1.087238    3.375893   -2.217308
     50          1           0        2.658868   -2.059718    0.022487
     51          1           0       -5.823576   -6.115701    0.389150
     52          1           0       -4.068916   -6.186197    0.578730
     53          1           0       -4.656847   -5.871241   -1.804024
     54          1           0       -5.579166   -4.420252   -1.397542
     55          1           0       -3.322397   -3.813036   -2.232079
     56          1           0       -2.576453   -4.799609   -0.972638
     57          1           0       -5.069286   -4.722880    2.308925
     58          1           0       -5.816054   -3.724783    1.060121
     59          1           0       -3.092891   -0.520170   -0.884905
     60          1           0        7.943935   -1.556370   -1.896884
     61          1           0        7.198363   -2.690980   -0.766400
     62          1           0        5.462561   -1.521418   -2.099693
     63          1           0        6.074026    0.040782   -1.550181
     64          1           0        8.969476   -1.390156    0.372677
     65          1           0        8.175813    0.118340   -0.090206
     66          1           0        7.599833   -0.483318    2.242550
     67          1           0        6.980378   -2.046130    1.706590
     68          1           0       -1.994674    5.677213    2.849680
     69          1           0       -2.223280    3.952394    2.546201
     70          1           0       -4.353483    5.154438    2.212654
     71          1           0       -3.582941    6.233481    1.046000
     72          1           0       -3.911629    3.211077    0.733511
     73          1           0       -4.827993    4.451323   -0.126887
     74          1           0       -1.059463    5.968519    0.563735
     75          1           0       -0.147836    4.749151    1.456299
 ---------------------------------------------------------------------

 SCF Done:  E(RPBE1PBE) =  -1381.57628674     a.u. after    6 cycles
 SCF Done:  E(RPBE1PBE) =  -1381.57631648     A.U. after    8 cycles

 The electronic state is 1-A.
 Alpha  occ. eigenvalues --  -14.37489 -14.37369 -14.37367 -14.36580 -14.35425
 Alpha  occ. eigenvalues --  -14.35420 -10.26372 -10.26238 -10.26217 -10.24931
 Alpha  occ. eigenvalues --  -10.24442 -10.24387 -10.24359 -10.24319 -10.24298
 Alpha  occ. eigenvalues --  -10.24146 -10.23946 -10.23789 -10.23394 -10.23343
 Alpha  occ. eigenvalues --  -10.23114 -10.21536 -10.21454 -10.21309 -10.21224
 Alpha  occ. eigenvalues --  -10.21218 -10.21181 -10.21170 -10.21168 -10.21152
 Alpha  occ. eigenvalues --  -10.21084 -10.20970 -10.20965  -0.96614  -0.96391
 Alpha  occ. eigenvalues --   -0.96212  -0.91577  -0.91034  -0.90733  -0.89101
 Alpha  occ. eigenvalues --   -0.84501  -0.84265  -0.84039  -0.80494  -0.80203
 Alpha  occ. eigenvalues --   -0.76685  -0.75991  -0.75663  -0.74518  -0.74072
 Alpha  occ. eigenvalues --   -0.73854  -0.67399  -0.67190  -0.66142  -0.63426
 Alpha  occ. eigenvalues --   -0.62601  -0.62193  -0.61839  -0.61382  -0.60280
 Alpha  occ. eigenvalues --   -0.57972  -0.57434  -0.57244  -0.56027  -0.55433
 Alpha  occ. eigenvalues --   -0.52854  -0.52224  -0.50710  -0.50421  -0.49790
 Alpha  occ. eigenvalues --   -0.49515  -0.49383  -0.49327  -0.48844  -0.48752
 Alpha  occ. eigenvalues --   -0.48360  -0.46730  -0.46400  -0.46304  -0.46205
 Alpha  occ. eigenvalues --   -0.46015  -0.45578  -0.44528  -0.44002  -0.43903
 Alpha  occ. eigenvalues --   -0.42135  -0.41377  -0.41240  -0.40905  -0.40056
 Alpha  occ. eigenvalues --   -0.39949  -0.39610  -0.39310  -0.39286  -0.38753
 Alpha  occ. eigenvalues --   -0.38307  -0.37847  -0.37086  -0.36586  -0.36381
 Alpha  occ. eigenvalues --   -0.36007  -0.35741  -0.35655  -0.35593  -0.34773
 Alpha  occ. eigenvalues --   -0.33946  -0.33670  -0.33537  -0.33397  -0.32095
 Alpha  occ. eigenvalues --   -0.31837  -0.31678  -0.31153  -0.31040  -0.29502
 Alpha  occ. eigenvalues --   -0.27067  -0.26694  -0.26420  -0.25846  -0.25570
 Alpha  occ. eigenvalues --   -0.25267  -0.24819  -0.24555
 Alpha virt. eigenvalues --   -0.05704  -0.04802  -0.01149   0.04065   0.04333
 Alpha virt. eigenvalues --    0.04590   0.04718   0.05008   0.05285   0.05480
 Alpha virt. eigenvalues --    0.05626   0.06069   0.06673   0.06788   0.07267

 Mulliken charges:
               1
     1  C    0.320284
     2  C   -0.204896
     3  C   -0.334062
     4  C    0.293505
     5  H    0.226351
     6  C   -0.372886
     7  C    0.375706
     8  H    0.117572
     9  C   -0.367084
    10  C   -0.168716
    11  H    0.127569
    12  C   -0.169488
    13  C    0.052416
    14  C    0.033948
    15  N   -0.561521
    16  H    0.085975
    17  C   -0.235928
    18  N   -0.193400
    19  H    0.084705
    20  C   -0.200702
    21  C   -0.180166
    22  C   -0.189652
    23  C    0.061407
    24  C    0.048918
    25  N   -0.207827
    26  H    0.038457
    27  C   -0.195914
    28  N   -0.523394
    29  H    0.078065
    30  C   -0.216467
    31  C   -0.171462
    32  C   -0.185627
    33  C    0.053632
    34  C    0.050698
    35  N   -0.204768
    36  H    0.040927
    37  C   -0.196177
    38  N   -0.523619
    39  H    0.078634
    40  C   -0.216759
    41  C   -0.171600
    42  C   -0.185619
    43  H    0.222552
    44  H    0.209481
    45  H    0.236609
    46  H    0.214058
    47  H    0.222204
    48  H    0.209302
    49  H    0.122399
    50  H    0.079236
    51  H    0.106389
    52  H    0.087411
    53  H    0.106909
    54  H    0.087902
    55  H    0.105932
    56  H    0.100580
    57  H    0.096104
    58  H    0.105009
    59  H    0.086131
    60  H    0.107156
    61  H    0.088331
    62  H    0.106294
    63  H    0.101092
    64  H    0.106612
    65  H    0.087457
    66  H    0.096304
    67  H    0.105337
    68  H    0.107236
    69  H    0.091826
    70  H    0.108484
    71  H    0.087712
    72  H    0.109602
    73  H    0.097255
    74  H    0.104062
    75  H    0.105997
 Sum of Mulliken charges =  -0.00000

 Dipole moment (field-independent basis, Debye):
    X=             -0.7464    Y=              0.1039    Z=              0.1420  Tot=              0.7668
 Quadrupole moment (field-independent basis, Debye-Ang):
   XX=           -191.5060   YY=           -199.0960   ZZ=           -196.9308
   XY=             -2.5618   XZ=              3.6799   YZ=              1.4941

 1\1\GINC-CX3-6-1\SP\RPBE1PBE\def2TZVP\C27H42N6\ATARZIA\18-Oct-2021\0\\
 #P PBE1PBE/Def2TZVP SP SCF=(YQC,MaxCycle=900) int=(Grid=Superfinegrid)
  EmpiricalDispersion=GD3\\_1_alde1_3_ami3_2_opt_gas\\0,1\C,0,-0.8344,0
 .0796,0.1552\C,0,-0.4031,-1.0133,1.0486\C,0,-2.1777,0.4023,-0.0312\C,0
 ,-2.5415,1.4375,-0.8903\H,0,-2.9412,-0.1382,0.5125\C,0,-1.5547,2.1524,
 -1.5653\C,0,-0.211,1.8507,-1.375\H,0,-1.8589,2.9484,-2.2278\C,0,0.1405
 ,0.8176,-0.5059\C,0,0.8164,2.6111,-2.0726\H,0,1.1883,0.5969,-0.3701\C,
 0,-3.9498,1.759,-1.0723\C,0,-3.0907,-3.0514,1.2479\C,0,-1.8811,-2.7347

 Normal termination of Gaussian 16 at Mon Oct 18 03:15:48 2021.
