 Gaussian 16, Revision C.01,
 Gaussian 16:  ES64L-G16RevC.01  3-Jul-2019

 ----------------------------------------------------------------------
 #P PBE1PBE/Def2TZVP SP SCF=(YQC,MaxCycle=900) int=(Grid=Superfinegrid)
  EmpiricalDispersion=GD3
 ----------------------------------------------------------------------

 -------------------------
 _1_alde1_2_ami4_2_opt_gas
 -------------------------
 Symbolic Z-matrix:
 Charge =  0 Multiplicity = 1

                         Standard orientation:
 ---------------------------------------------------------------------
 Center     Atomic      Atomic             Coordinates (Angstroms)
 Number     Number       Type             X           Y           Z
 ---------------------------------------------------------------------
      1          6           0        0.069850    1.734389    0.078355
      2          6           0        0.116205    3.200336    0.196440
      3          6           0        1.228984    0.981123    0.237373
      4          6           0        1.186586   -0.407550    0.132519
      5          1           0        2.175811    1.454540    0.447556
      6          6           0       -0.030239   -1.032073   -0.134146
      7          6           0       -1.197579   -0.289712   -0.299164
      8          1           0       -0.068579   -2.110148   -0.215299
      9          6           0       -1.139672    1.097258   -0.190767
     10          6           0       -2.460176   -0.963572   -0.577185
     11          1           0       -2.039351    1.679154   -0.317547
     12          6           0        2.394947   -1.203065    0.299172
     13          8           0       -0.828963    3.937677    0.095324
     14          6           0        4.688330   -1.465627    0.650628
     15          6           0        5.667631   -1.117636   -0.496840
     16          7           0        3.514687   -0.668725    0.525064
     17          7           0        6.087058    0.262768   -0.537842
     18          6           0       -5.755968   -0.656061    0.125834
     19          6           0       -4.758567   -0.996087   -0.988457
     20          7           0       -5.343240   -1.306828    1.358601
     21          7           0       -3.528991   -0.317089   -0.742705
     22          1           0        1.132391    3.595600    0.397147
     23          1           0       -6.003448   -1.104966    2.101364
     24          1           0       -4.437150   -0.949115    1.645586
     25          1           0        6.555744    0.514943    0.326410
     26          1           0        5.272932    0.861314   -0.629341
     27          1           0       -2.417608   -2.062613   -0.634623
     28          1           0       -5.822252    0.440121    0.206144
     29          1           0       -6.739507   -1.047287   -0.146656
     30          1           0       -5.154516   -0.619795   -1.936320
     31          1           0       -4.638336   -2.089363   -1.046340
     32          1           0        2.267798   -2.294463    0.222369
     33          1           0        5.185121   -1.349557   -1.450532
     34          1           0        6.555629   -1.747348   -0.396060
     35          1           0        5.161686   -1.205540    1.603563
     36          1           0        4.476750   -2.548113    0.635595
 ---------------------------------------------------------------------

 SCF Done:  E(RPBE1PBE) =  -799.786572208     a.u. after    7 cycles
 SCF Done:  E(RPBE1PBE) =  -799.786576225     A.U. after    8 cycles

 The electronic state is 1-A.
 Alpha  occ. eigenvalues --  -19.20728 -14.39020 -14.38650 -14.36197 -14.35951
 Alpha  occ. eigenvalues --  -10.31317 -10.27941 -10.27502 -10.25853 -10.25714
 Alpha  occ. eigenvalues --  -10.25545 -10.25383 -10.25267 -10.25172 -10.24918
 Alpha  occ. eigenvalues --  -10.24830 -10.24807 -10.24587  -1.08413  -0.97597
 Alpha  occ. eigenvalues --   -0.97215  -0.91818  -0.90974  -0.90407  -0.82259
 Alpha  occ. eigenvalues --   -0.82045  -0.76325  -0.75044  -0.69377  -0.68605
 Alpha  occ. eigenvalues --   -0.66978  -0.63464  -0.60689  -0.59191  -0.56940
 Alpha  occ. eigenvalues --   -0.54460  -0.53559  -0.52047  -0.51494  -0.50610
 Alpha  occ. eigenvalues --   -0.49962  -0.49210  -0.48234  -0.46861  -0.46147
 Alpha  occ. eigenvalues --   -0.45625  -0.44734  -0.44248  -0.42738  -0.42104
 Alpha  occ. eigenvalues --   -0.41413  -0.40389  -0.40257  -0.39576  -0.38799
 Alpha  occ. eigenvalues --   -0.37233  -0.36795  -0.36021  -0.33130  -0.28641
 Alpha  occ. eigenvalues --   -0.28429  -0.27846  -0.27609  -0.27040  -0.25494
 Alpha  occ. eigenvalues --   -0.24984
 Alpha virt. eigenvalues --   -0.07740  -0.07179  -0.03124   0.04159   0.04404
 Alpha virt. eigenvalues --    0.04691   0.05202   0.05696   0.05983   0.07528
 Alpha virt. eigenvalues --    0.07693   0.08436   0.08900   0.09344   0.09731

 Mulliken charges:
               1
     1  C    0.304501
     2  C    0.050325
     3  C   -0.312028
     4  C    0.315840
     5  H    0.132491
     6  C   -0.324227
     7  C    0.371883
     8  H    0.115191
     9  C   -0.352326
    10  C   -0.171037
    11  H    0.151823
    12  C   -0.162327
    13  O   -0.270263
    14  C   -0.121267
    15  C   -0.084554
    16  N   -0.167812
    17  N   -0.494574
    18  C   -0.097503
    19  C   -0.055976
    20  N   -0.527762
    21  N   -0.179110
    22  H    0.075132
    23  H    0.216990
    24  H    0.224537
    25  H    0.208881
    26  H    0.223546
    27  H    0.071285
    28  H    0.103290
    29  H    0.101223
    30  H    0.117550
    31  H    0.068446
    32  H    0.065916
    33  H    0.106517
    34  H    0.111330
    35  H    0.115361
    36  H    0.068711
 Sum of Mulliken charges =   0.00000

 Dipole moment (field-independent basis, Debye):
    X=              0.4347    Y=             -3.6306    Z=              1.2377  Tot=              3.8603
 Quadrupole moment (field-independent basis, Debye-Ang):
   XX=           -105.0941   YY=           -117.0604   ZZ=           -107.4424
   XY=             -0.6922   XZ=              7.8344   YZ=              3.4048

 Normal termination of Gaussian 16 at Mon Oct 18 02:52:38 2021.
