 Gaussian 16, Revision C.01,
 Gaussian 16:  ES64L-G16RevC.01  3-Jul-2019

 ----------------------------------------------------------------------
 #P MP2/aug-cc-pVDZ SP SCF=(YQC,MaxCycle=900) int=(Grid=Superfinegrid)
 SCRF=(PCM,Solvent=Dichloromethane)
 ----------------------------------------------------------------------

 -----------------------------
 _1_alde1_2_ami3_1_opt_dcm_mp2
 -----------------------------
 Symbolic Z-matrix:
 Charge =  0 Multiplicity = 1

                         Standard orientation:
 ---------------------------------------------------------------------
 Center     Atomic      Atomic             Coordinates (Angstroms)
 Number     Number       Type             X           Y           Z
 ---------------------------------------------------------------------
      1          6           0        0.003438    2.081018   -0.102015
      2          6           0        0.045940    3.546434   -0.138313
      3          6           0       -1.100423    1.401081   -0.613485
      4          6           0       -1.139278    0.017448   -0.582902
      5          1           0       -1.932428    1.940080   -1.040572
      6          6           0       -0.064261   -0.683666   -0.047640
      7          6           0        1.042826   -0.016200    0.465393
      8          1           0       -0.089295   -1.763893   -0.030466
      9          6           0        1.071659    1.367197    0.441022
     10          6           0        2.203501   -0.821479    1.001228
     11          1           0        1.917414    1.899767    0.846927
     12          6           0       -2.338673   -0.747540   -1.093761
     13          8           0        0.955695    4.233588    0.251915
     14          6           0       -4.386909    0.126617   -0.489373
     15          6           0       -4.316141   -1.332948   -0.008611
     16          7           0       -3.396714    0.162371   -1.556750
     17          1           0       -4.008362    0.776849    0.312851
     18          6           0       -5.815623    0.510911   -0.812118
     19          7           0       -2.888371   -1.618912   -0.026040
     20          1           0       -4.777388   -1.976610   -0.773029
     21          6           0       -5.070494   -1.494556    1.295280
     22          1           0       -6.204989   -0.135563   -1.602696
     23          6           0       -6.638249    0.331948    0.468191
     24          1           0       -4.627951   -0.852783    2.061509
     25          6           0       -6.524668   -1.084786    1.039007
     26          1           0       -7.687299    0.553810    0.263790
     27          1           0       -6.286243    1.047613    1.214885
     28          1           0       -6.969772   -1.791268    0.334482
     29          1           0       -7.090979   -1.143049    1.970295
     30          6           0        4.300511    0.023374    0.533118
     31          6           0        4.216978   -1.413987   -0.009194
     32          7           0        3.254758    0.047186    1.545763
     33          1           0        3.986870    0.715094   -0.261948
     34          6           0        5.718853    0.352731    0.948660
     35          7           0        2.782861   -1.659379   -0.079102
     36          1           0        4.617444   -2.100600    0.752207
     37          6           0        5.037204   -1.546479   -1.275868
     38          1           0        6.046166   -0.334316    1.733378
     39          6           0        6.606366    0.199047   -0.290932
     40          1           0        4.655693   -0.861532   -2.037601
     41          6           0        6.485661   -1.190338   -0.924245
     42          1           0        6.316500    0.953715   -1.025618
     43          1           0        7.648274    0.381029   -0.020766
     44          1           0        6.871058   -1.936997   -0.225861
     45          1           0        7.101097   -1.229241   -1.824945
     46          1           0        3.613565   -0.336109    2.414494
     47          1           0        1.832008   -1.492903    1.788425
     48          1           0        2.425780   -1.344285   -0.977665
     49          1           0       -3.811180   -0.191166   -2.413541
     50          1           0       -2.476254   -1.359456    0.866580
     51          1           0       -2.015746   -1.390372   -1.925004
     52          1           0       -0.864897    4.003928   -0.576924
     53          1           0       -5.872868    1.544327   -1.157419
     54          1           0       -5.024484   -2.526830    1.645704
     55          1           0        5.783268    1.370348    1.336423
     56          1           0        4.982407   -2.562124   -1.670961
 ---------------------------------------------------------------------

 SCF Done:  E(RHF) =  -1105.49576709     a.u. after    6 cycles
 SCF Done:  E(RHF) =  -1105.49583815     A.U. after   12 cycles
 E2 =    -0.3868348997D+01 EUMP2 =    -0.11093641871515D+04

 The electronic state is 1-A.
 Alpha  occ. eigenvalues --  -20.56930 -15.55328 -15.55231 -15.55200 -15.55145
 Alpha  occ. eigenvalues --  -11.34352 -11.29409 -11.29298 -11.24939 -11.24894
 Alpha  occ. eigenvalues --  -11.24849 -11.24817 -11.24814 -11.24752 -11.24751
 Alpha  occ. eigenvalues --  -11.24682 -11.24654 -11.24281 -11.22375 -11.22341
 Alpha  occ. eigenvalues --  -11.22299 -11.22276 -11.22250 -11.22247 -11.22212
 Alpha  occ. eigenvalues --  -11.22162  -1.40614  -1.28145  -1.27961  -1.17475
 Alpha  occ. eigenvalues --   -1.15072  -1.14952  -1.11409  -1.10926  -1.05688
 Alpha  occ. eigenvalues --   -1.05000  -0.99997  -0.99903  -0.98366  -0.97685
 Alpha  occ. eigenvalues --   -0.89795  -0.88365  -0.86680  -0.82884  -0.82597
 Alpha  occ. eigenvalues --   -0.81921  -0.81788  -0.78818  -0.78173  -0.77390
 Alpha  occ. eigenvalues --   -0.76507  -0.70914  -0.69452  -0.67350  -0.66851
 Alpha  occ. eigenvalues --   -0.66247  -0.65593  -0.63994  -0.63432  -0.62851
 Alpha  occ. eigenvalues --   -0.62675  -0.62410  -0.60799  -0.59982  -0.59500
 Alpha  occ. eigenvalues --   -0.59127  -0.58971  -0.56248  -0.55625  -0.55286
 Alpha  occ. eigenvalues --   -0.54837  -0.54772  -0.54146  -0.53989  -0.52154
 Alpha  occ. eigenvalues --   -0.51669  -0.50411  -0.50138  -0.49118  -0.49020
 Alpha  occ. eigenvalues --   -0.48886  -0.48496  -0.47327  -0.46535  -0.46420
 Alpha  occ. eigenvalues --   -0.45180  -0.45007  -0.44939  -0.44803  -0.43035
 Alpha  occ. eigenvalues --   -0.38451  -0.37933  -0.37582  -0.37489  -0.34502
 Alpha  occ. eigenvalues --   -0.33331
 Alpha virt. eigenvalues --    0.03427   0.03739   0.03879   0.03941   0.04274
 Alpha virt. eigenvalues --    0.04555   0.04595   0.05379   0.05596   0.05776
 Alpha virt. eigenvalues --    0.06025   0.06128   0.06234   0.06623   0.06816

 Mulliken charges:
               1
     1  C   -0.038219
     2  C    1.419624
     3  C    1.019659
     4  C    0.188920
     5  H   -0.844346
     6  C    0.632588
     7  C    0.046470
     8  H   -1.128963
     9  C    0.522998
    10  C    0.559814
    11  H   -0.902502
    12  C    0.675163
    13  O   -0.871667
    14  C    0.252920
    15  C   -0.154528
    16  N   -0.718828
    17  H   -0.397583
    18  C    0.697171
    19  N   -0.585058
    20  H   -0.399696
    21  C    0.709778
    22  H   -0.025846
    23  C    0.399404
    24  H   -0.040812
    25  C    0.434888
    26  H   -0.145780
    27  H   -0.094226
    28  H   -0.096492
    29  H   -0.137008
    30  C    0.251223
    31  C   -0.142830
    32  N   -0.701491
    33  H   -0.404855
    34  C    0.715182
    35  N   -0.600319
    36  H   -0.397008
    37  C    0.682402
    38  H   -0.030151
    39  C    0.402470
    40  H   -0.039689
    41  C    0.441518
    42  H   -0.094148
    43  H   -0.147201
    44  H   -0.096374
    45  H   -0.139577
    46  H    0.081205
    47  H   -0.203476
    48  H    0.170117
    49  H    0.101038
    50  H    0.177480
    51  H   -0.179220
    52  H   -0.320390
    53  H   -0.130163
    54  H   -0.121729
    55  H   -0.129812
    56  H   -0.122044
 Sum of Mulliken charges =   0.00000

 Dipole moment (field-independent basis, Debye):
    X=             -2.5108    Y=             -3.6837    Z=             -0.8910  Tot=              4.5462
 Quadrupole moment (field-independent basis, Debye-Ang):
   XX=           -125.3767   YY=           -185.9097   ZZ=           -152.8094
   XY=            -11.1370   XZ=              1.8385   YZ=             -4.7983

 Normal termination of Gaussian 16 at Mon Nov 22 11:03:47 2021.
