 Gaussian 16, Revision C.01,
 Gaussian 16:  ES64L-G16RevC.01  3-Jul-2019

 ----------------------------------------------------------------------
 #P MP2/aug-cc-pVDZ SP SCF=(YQC,MaxCycle=900) int=(Grid=Superfinegrid)
 SCRF=(PCM,Solvent=Dichloromethane)
 ----------------------------------------------------------------------

 -----------------------------
 _1_alde1_2_ami4_1_opt_dcm_mp2
 -----------------------------
 Symbolic Z-matrix:
 Charge =  0 Multiplicity = 1

                         Standard orientation:
 ---------------------------------------------------------------------
 Center     Atomic      Atomic             Coordinates (Angstroms)
 Number     Number       Type             X           Y           Z
 ---------------------------------------------------------------------
      1          6           0        0.345219    2.086327   -0.123314
      2          6           0        0.749759    3.496334   -0.143748
      3          6           0       -0.990899    1.733669   -0.303384
      4          6           0       -1.366189    0.400017   -0.291220
      5          1           0       -1.738352    2.500354   -0.447950
      6          6           0       -0.402863   -0.580723   -0.092034
      7          6           0        0.932339   -0.242552    0.085187
      8          1           0       -0.712090   -1.614873   -0.087189
      9          6           0        1.303159    1.091315    0.067656
     10          6           0        1.983578   -1.309404    0.252632
     11          1           0        2.334033    1.373408    0.218878
     12          6           0       -2.820810    0.031850   -0.441217
     13          8           0        1.879064    3.902862   -0.039156
     14          6           0       -4.712246   -0.584450    0.689757
     15          6           0       -4.203105   -1.847941   -0.034928
     16          7           0       -3.547361    0.279155    0.794678
     17          1           0       -5.142493   -0.789728    1.667702
     18          7           0       -3.007799   -1.395451   -0.743214
     19          1           0       -4.957192   -2.271956   -0.701315
     20          6           0        4.326268   -1.257708    0.618511
     21          6           0        3.954482   -2.087118   -0.626145
     22          7           0        3.036929   -0.876182    1.189222
     23          1           0        4.861387   -0.347011    0.323400
     24          7           0        2.644042   -1.590282   -1.013715
     25          1           0        3.848523   -3.143829   -0.360621
     26          1           0        2.890163   -1.260928    2.112233
     27          1           0        1.506710   -2.246418    0.589425
     28          1           0        2.749181   -0.719188   -1.527469
     29          1           0       -2.969641   -0.017720    1.576932
     30          1           0       -3.052316   -1.562098   -1.739305
     31          1           0       -3.277693    0.672985   -1.218375
     32          1           0       -0.098431    4.199211   -0.273418
     33          1           0       -3.909534   -2.616772    0.689850
     34          1           0        4.949018   -1.812509    1.321709
     35          1           0       -5.456227   -0.068974    0.074373
     36          1           0        4.669620   -1.995228   -1.440933
 ---------------------------------------------------------------------

 SCF Done:  E(RHF) =  -795.506191180     a.u. after    6 cycles
 SCF Done:  E(RHF) =  -795.506231662     A.U. after   11 cycles
 E2 =    -0.2695873205D+01 EUMP2 =    -0.79820210486689D+03

 The electronic state is 1-A.
 Alpha  occ. eigenvalues --  -20.57005 -15.55854 -15.55786 -15.54782 -15.54652
 Alpha  occ. eigenvalues --  -11.34463 -11.29363 -11.29186 -11.25381 -11.25362
 Alpha  occ. eigenvalues --  -11.25246 -11.25125 -11.24992 -11.24901 -11.24687
 Alpha  occ. eigenvalues --  -11.24631 -11.24539 -11.24430  -1.40717  -1.28062
 Alpha  occ. eigenvalues --   -1.27843  -1.17453  -1.14500  -1.14364  -1.06515
 Alpha  occ. eigenvalues --   -1.06059  -0.99053  -0.97772  -0.90009  -0.86921
 Alpha  occ. eigenvalues --   -0.85190  -0.82681  -0.82559  -0.79269  -0.77307
 Alpha  occ. eigenvalues --   -0.71897  -0.70581  -0.68935  -0.68033  -0.67689
 Alpha  occ. eigenvalues --   -0.66268  -0.64374  -0.62367  -0.60522  -0.59400
 Alpha  occ. eigenvalues --   -0.58741  -0.58486  -0.56498  -0.55362  -0.54980
 Alpha  occ. eigenvalues --   -0.53947  -0.53609  -0.53502  -0.52704  -0.50920
 Alpha  occ. eigenvalues --   -0.49673  -0.49548  -0.48959  -0.48091  -0.43066
 Alpha  occ. eigenvalues --   -0.39605  -0.39559  -0.37586  -0.36999  -0.34631
 Alpha  occ. eigenvalues --   -0.33380
 Alpha virt. eigenvalues --    0.03534   0.03948   0.04227   0.04576   0.05040
 Alpha virt. eigenvalues --    0.05231   0.05456   0.05905   0.06373   0.06618
 Alpha virt. eigenvalues --    0.06784   0.07090   0.07291   0.07834   0.08331

 Mulliken charges:
               1
     1  C    0.437307
     2  C    1.281328
     3  C    0.112096
     4  C    0.986528
     5  H   -0.733101
     6  C    0.642111
     7  C    0.999904
     8  H   -0.832160
     9  C   -0.344900
    10  C    0.507320
    11  H   -0.824374
    12  C    0.662140
    13  O   -0.856786
    14  C    0.661675
    15  C    0.643993
    16  N   -0.628721
    17  H   -0.192498
    18  N   -0.524879
    19  H   -0.193557
    20  C    0.651423
    21  C    0.689713
    22  N   -0.456210
    23  H   -0.250160
    24  N   -0.624258
    25  H   -0.248347
    26  H   -0.046231
    27  H   -0.308788
    28  H    0.065875
    29  H    0.064383
    30  H    0.005023
    31  H   -0.138059
    32  H   -0.306145
    33  H   -0.252050
    34  H   -0.201282
    35  H   -0.249980
    36  H   -0.198334
 Sum of Mulliken charges =   0.00000

 Dipole moment (field-independent basis, Debye):
    X=             -3.4666    Y=             -4.6989    Z=             -0.0383  Tot=              5.8394
 Quadrupole moment (field-independent basis, Debye-Ang):
   XX=            -93.8248   YY=           -119.8104   ZZ=           -104.6065
   XY=            -12.2232   XZ=              4.5172   YZ=             -7.9451

 Normal termination of Gaussian 16 at Tue Nov  2 18:39:00 2021.
