 Gaussian 16, Revision C.01,
 Gaussian 16:  ES64L-G16RevC.01  3-Jul-2019

 ----------------------------------------------------------------------
 #P PBE1PBE/Def2TZVP SP SCF=(YQC,MaxCycle=900) int=(Grid=Superfinegrid)
  EmpiricalDispersion=GD3 SCRF=(PCM,Solvent=Chloroform)
 ----------------------------------------------------------------------

 -------------------------
 _1_alde1_3_ami4_2_opt_cfm
 -------------------------
 Symbolic Z-matrix:
 Charge =  0 Multiplicity = 1

                         Standard orientation:
 ---------------------------------------------------------------------
 Center     Atomic      Atomic             Coordinates (Angstroms)
 Number     Number       Type             X           Y           Z
 ---------------------------------------------------------------------
      1          6           0       -0.362819   -1.562710   -0.526628
      2          6           0       -1.197398   -2.767940   -0.690230
      3          6           0       -0.903432   -0.302319   -0.308054
      4          6           0       -0.076975    0.811984   -0.147728
      5          1           0       -1.969269   -0.143988   -0.288084
      6          6           0        1.301014    0.657176   -0.216111
      7          6           0        1.859924   -0.598769   -0.451559
      8          1           0        1.966024    1.498330   -0.094902
      9          6           0        1.022733   -1.698111   -0.611316
     10          6           0        3.304506   -0.761935   -0.535623
     11          1           0        1.449932   -2.675435   -0.791076
     12          6           0       -0.662619    2.123707    0.093623
     13          6           0       -4.145143   -1.868807    0.636351
     14          6           0       -2.774669   -2.449516    1.060460
     15          7           0       -5.119240   -2.854130    0.227090
     16          7           0       -2.199208   -3.163501   -0.037747
     17          1           0       -2.947504   -3.189809    1.850267
     18          6           0       -2.462851    3.564592    0.486649
     19          6           0       -3.618815    3.798877   -0.491121
     20          7           0       -1.904068    2.272034    0.254334
     21          7           0       -4.725149    2.927197   -0.140704
     22          6           0        5.502339    0.020284   -0.474664
     23          6           0        6.150440    0.439590    0.850437
     24          7           0        4.091162    0.214037   -0.399505
     25          1           0        5.787323   -1.018634   -0.704765
     26          7           0        7.590879    0.276414    0.760925
     27          1           0        7.972727    0.906549    0.062758
     28          1           0        8.025831    0.498722    1.649458
     29          1           0       -5.311706   -3.495106    0.990220
     30          1           0       -4.742246   -3.402641   -0.539283
     31          1           0       -5.447545    2.961754   -0.851762
     32          1           0       -4.386119    1.972447   -0.081501
     33          1           0       -0.865500   -3.445059   -1.475504
     34          1           0        0.046442    2.965322    0.137919
     35          1           0        3.661562   -1.785865   -0.729439
     36          1           0       -2.140012   -1.645585    1.457783
     37          1           0        5.880207    0.673442   -1.268856
     38          1           0       -1.716853    4.372320    0.400634
     39          1           0       -2.879262    3.564743    1.498622
     40          1           0       -3.242695    3.647330   -1.518222
     41          1           0       -3.959075    4.835282   -0.403141
     42          1           0       -3.998341   -1.184657   -0.204384
     43          1           0       -4.556710   -1.301186    1.475198
     44          1           0        5.828246    1.467204    1.083950
     45          1           0        5.786496   -0.216458    1.646443
 ---------------------------------------------------------------------

 SCF Done:  E(RPBE1PBE) =  -913.783354257     a.u. after    6 cycles
 SCF Done:  E(RPBE1PBE) =  -913.783367155     A.U. after    8 cycles

 The electronic state is 1-A.
 Alpha  occ. eigenvalues --  -14.38363 -14.38289 -14.38075 -14.36307 -14.35708
 Alpha  occ. eigenvalues --  -14.35643 -10.27048 -10.27039 -10.26880 -10.25078
 Alpha  occ. eigenvalues --  -10.24829 -10.24765 -10.24673 -10.24551 -10.24551
 Alpha  occ. eigenvalues --  -10.24446 -10.24392 -10.24240 -10.24219 -10.24176
 Alpha  occ. eigenvalues --  -10.24116  -0.96924  -0.96628  -0.96255  -0.91303
 Alpha  occ. eigenvalues --   -0.90863  -0.90565  -0.89757  -0.81682  -0.81114
 Alpha  occ. eigenvalues --   -0.75944  -0.75151  -0.74841  -0.68205  -0.67439
 Alpha  occ. eigenvalues --   -0.66180  -0.63720  -0.62304  -0.60624  -0.57278
 Alpha  occ. eigenvalues --   -0.55921  -0.53930  -0.52939  -0.51651  -0.51238
 Alpha  occ. eigenvalues --   -0.50852  -0.50219  -0.49740  -0.48670  -0.48201
 Alpha  occ. eigenvalues --   -0.47536  -0.46235  -0.45780  -0.45249  -0.44993
 Alpha  occ. eigenvalues --   -0.43340  -0.42503  -0.41902  -0.40758  -0.40460
 Alpha  occ. eigenvalues --   -0.40015  -0.39355  -0.39062  -0.38386  -0.37093
 Alpha  occ. eigenvalues --   -0.36507  -0.36166  -0.35026  -0.34223  -0.31339
 Alpha  occ. eigenvalues --   -0.27912  -0.27524  -0.27003  -0.26529  -0.26109
 Alpha  occ. eigenvalues --   -0.25499  -0.25171  -0.25031
 Alpha virt. eigenvalues --   -0.06522  -0.05639  -0.01979   0.03726   0.04461
 Alpha virt. eigenvalues --    0.04632   0.05659   0.05825   0.06516   0.06852
 Alpha virt. eigenvalues --    0.07554   0.07972   0.08088   0.08893   0.09268

 Mulliken charges:
               1
     1  C    0.287005
     2  C   -0.167180
     3  C   -0.335410
     4  C    0.354196
     5  H    0.153685
     6  C   -0.350897
     7  C    0.302902
     8  H    0.125593
     9  C   -0.328162
    10  C   -0.139993
    11  H    0.137139
    12  C   -0.168705
    13  C   -0.102284
    14  C   -0.155558
    15  N   -0.536642
    16  N   -0.208266
    17  H    0.117275
    18  C   -0.063319
    19  C   -0.082190
    20  N   -0.213162
    21  N   -0.561753
    22  C   -0.085530
    23  C   -0.107768
    24  N   -0.184511
    25  H    0.077654
    26  N   -0.550294
    27  H    0.233572
    28  H    0.236728
    29  H    0.225738
    30  H    0.232531
    31  H    0.230685
    32  H    0.234649
    33  H    0.132059
    34  H    0.093039
    35  H    0.087908
    36  H    0.123126
    37  H    0.116481
    38  H    0.087696
    39  H    0.108871
    40  H    0.096381
    41  H    0.105751
    42  H    0.112840
    43  H    0.123128
    44  H    0.095519
    45  H    0.109474
 Sum of Mulliken charges =   0.00000

 Dipole moment (field-independent basis, Debye):
    X=              4.0671    Y=              1.4807    Z=             -0.3176  Tot=              4.3399
 Quadrupole moment (field-independent basis, Debye-Ang):
   XX=           -137.1758   YY=           -121.2580   ZZ=           -123.5904
   XY=              5.3142   XZ=              4.1932   YZ=             -3.3367

 1\1\GINC-CX3-6-2\SP\RPBE1PBE\def2TZVP\C15H24N6\ATARZIA\18-Oct-2021\0\\
 #P PBE1PBE/Def2TZVP SP SCF=(YQC,MaxCycle=900) int=(Grid=Superfinegrid)
  EmpiricalDispersion=GD3 SCRF=(PCM,Solvent=Chloroform)\\_1_alde1_3_ami
 4_2_opt_cfm\\0,1\C,0,-0.872,-0.345,-1.1043\C,0,-0.9763,-1.6702,-0.4649
 \C,0,-1.9469,0.5299,-1.1924\C,0,-1.8029,1.7806,-1.7969\H,0,-2.924,0.25
 78,-0.8281\C,0,-0.5718,2.1486,-2.3227\C,0,0.5137,1.2753,-2.2575\H,0,-0
 .4284,3.1084,-2.7946\C,0,0.353,0.0323,-1.6541\C,0,1.8029,1.654,-2.8188
 \H,0,1.1917,-0.6484,-1.5975\C,0,-2.9389,2.6896,-1.8681\C,0,-3.7274,-1.

 Normal termination of Gaussian 16 at Mon Oct 18 20:54:40 2021.
