 Gaussian 16, Revision C.01,
 Gaussian 16:  ES64L-G16RevC.01  3-Jul-2019

 ----------------------------------------------------------------------
 #P PBE1PBE/Def2TZVP SP SCF=(YQC,MaxCycle=900) int=(Grid=Superfinegrid)
  EmpiricalDispersion=GD3 SCRF=(PCM,Solvent=Chloroform)
 ----------------------------------------------------------------------

 -------------------------
 _1_alde1_2_ami2_1_opt_cfm
 -------------------------
 Symbolic Z-matrix:
 Charge =  0 Multiplicity = 1

                         Standard orientation:
 ---------------------------------------------------------------------
 Center     Atomic      Atomic             Coordinates (Angstroms)
 Number     Number       Type             X           Y           Z
 ---------------------------------------------------------------------
      1          6           0       -0.437457    2.506953    0.050321
      2          6           0       -0.924964    3.889890    0.019304
      3          6           0       -1.344261    1.449446   -0.009493
      4          6           0       -0.894742    0.140242    0.018986
      5          1           0       -2.399627    1.660250   -0.094223
      6          6           0        0.467944   -0.109823    0.111690
      7          6           0        1.381721    0.934373    0.183063
      8          1           0        0.837458   -1.123827    0.141291
      9          6           0        0.927271    2.242424    0.148449
     10          6           0        2.860976    0.652089    0.243420
     11          1           0        1.634355    3.058169    0.193160
     12          6           0       -1.885991   -0.993620   -0.001895
     13          8           0       -2.081211    4.224762   -0.031736
     14          6           0       -4.233142   -1.335827   -0.204265
     15          6           0       -3.647165   -1.958039    1.092169
     16          7           0       -3.072762   -0.655957   -0.786675
     17          6           0       -5.299568   -0.284359    0.119711
     18          7           0       -2.386431   -1.275130    1.334958
     19          1           0       -3.426383   -3.018186    0.931045
     20          1           0       -6.173597   -0.752020    0.566522
     21          6           0        4.699976    0.004271   -0.949407
     22          6           0        4.392097   -1.155655    0.036571
     23          7           0        3.468475    0.767307   -1.073939
     24          1           0        5.045859   -0.343655   -1.920594
     25          7           0        3.148652   -0.714576    0.675348
     26          6           0        4.113341   -2.461028   -0.716316
     27          1           0        3.778302   -3.225852   -0.020213
     28          1           0        2.854804    0.321098   -1.750590
     29          1           0        3.350107    1.406166    0.890816
     30          1           0        3.162696   -0.811794    1.681666
     31          1           0       -2.958240   -0.837620   -1.774378
     32          1           0       -2.561952   -0.390221    1.803698
     33          1           0       -1.389319   -1.914615   -0.363897
     34          1           0       -0.114452    4.646688    0.050963
     35          1           0       -4.313838   -1.865194    1.947178
     36          1           0       -4.900369    0.454256    0.810431
     37          1           0       -5.600590    0.230041   -0.789303
     38          1           0        5.459603    0.665928   -0.521233
     39          1           0        5.011644   -2.811152   -1.218795
     40          1           0        3.330557   -2.306458   -1.455011
     41          6           0        5.527991   -1.357232    1.039073
     42          1           0        6.451657   -1.598172    0.518002
     43          1           0        5.291169   -2.173806    1.718454
     44          1           0        5.686805   -0.451973    1.623238
     45          6           0       -4.811426   -2.406409   -1.129445
     46          1           0       -5.215625   -1.948000   -2.029979
     47          1           0       -5.611631   -2.945245   -0.627385
     48          1           0       -4.040844   -3.120592   -1.416444
 ---------------------------------------------------------------------

 SCF Done:  E(RPBE1PBE) =  -956.948743451     a.u. after    6 cycles
 SCF Done:  E(RPBE1PBE) =  -956.948761247     A.U. after    8 cycles

 The electronic state is 1-A.
 Alpha  occ. eigenvalues --  -19.20538 -14.37630 -14.37459 -14.36502 -14.36250
 Alpha  occ. eigenvalues --  -10.31025 -10.28105 -10.27882 -10.25746 -10.25543
 Alpha  occ. eigenvalues --  -10.24132 -10.24061 -10.24003 -10.23979 -10.23941
 Alpha  occ. eigenvalues --  -10.23863 -10.23343 -10.23227 -10.20878 -10.20746
 Alpha  occ. eigenvalues --  -10.20182 -10.19941  -1.08289  -0.99649  -0.99436
 Alpha  occ. eigenvalues --   -0.90194  -0.88399  -0.88178  -0.82637  -0.81799
 Alpha  occ. eigenvalues --   -0.78869  -0.77689  -0.71073  -0.70896  -0.70221
 Alpha  occ. eigenvalues --   -0.70083  -0.67838  -0.65720  -0.64856  -0.60463
 Alpha  occ. eigenvalues --   -0.58633  -0.58344  -0.58102  -0.54295  -0.53331
 Alpha  occ. eigenvalues --   -0.51913  -0.51103  -0.50283  -0.48923  -0.47368
 Alpha  occ. eigenvalues --   -0.46090  -0.45944  -0.45508  -0.45280  -0.45176
 Alpha  occ. eigenvalues --   -0.44292  -0.43225  -0.42948  -0.42389  -0.42303
 Alpha  occ. eigenvalues --   -0.41288  -0.40949  -0.40416  -0.40343  -0.38063
 Alpha  occ. eigenvalues --   -0.37745  -0.37570  -0.37374  -0.37256  -0.36996
 Alpha  occ. eigenvalues --   -0.36286  -0.35583  -0.34619  -0.34348  -0.34267
 Alpha  occ. eigenvalues --   -0.28006  -0.27790  -0.27534  -0.25871  -0.25704
 Alpha  occ. eigenvalues --   -0.23908  -0.23616
 Alpha virt. eigenvalues --   -0.06623  -0.02029   0.03300   0.03790   0.04166
 Alpha virt. eigenvalues --    0.05662   0.06343   0.06966   0.07501   0.08468
 Alpha virt. eigenvalues --    0.08888   0.09085   0.09611   0.10129   0.10469

 Mulliken charges:
               1
     1  C    0.245912
     2  C    0.057692
     3  C   -0.309156
     4  C    0.345285
     5  H    0.141357
     6  C   -0.378556
     7  C    0.240380
     8  H    0.128380
     9  C   -0.349497
    10  C   -0.054539
    11  H    0.124610
    12  C   -0.092142
    13  O   -0.325713
    14  C    0.134111
    15  C   -0.138959
    16  N   -0.294185
    17  C   -0.381323
    18  N   -0.293001
    19  H    0.091634
    20  H    0.119248
    21  C   -0.137588
    22  C    0.124335
    23  N   -0.294568
    24  H    0.138357
    25  N   -0.298917
    26  C   -0.375990
    27  H    0.117499
    28  H    0.207599
    29  H    0.086377
    30  H    0.212828
    31  H    0.207502
    32  H    0.209980
    33  H    0.084030
    34  H    0.088683
    35  H    0.137653
    36  H    0.121263
    37  H    0.117491
    38  H    0.092673
    39  H    0.119638
    40  H    0.115608
    41  C   -0.436090
    42  H    0.129410
    43  H    0.132351
    44  H    0.131918
    45  C   -0.435002
    46  H    0.132244
    47  H    0.128532
    48  H    0.130647
 Sum of Mulliken charges =   0.00000

 Dipole moment (field-independent basis, Debye):
    X=              3.1158    Y=             -4.2602    Z=             -0.0165  Tot=              5.2781
 Quadrupole moment (field-independent basis, Debye-Ang):
   XX=           -120.9058   YY=           -146.4937   ZZ=           -130.2979
   XY=             13.5067   XZ=              3.2707   YZ=              5.8848

 Normal termination of Gaussian 16 at Mon Oct 18 01:37:55 2021.
