 Gaussian 16, Revision C.01,
 Gaussian 16:  ES64L-G16RevC.01  3-Jul-2019

 ----------------------------------------------------------------------
 #P MP2/aug-cc-pVDZ SP SCF=(YQC,MaxCycle=900) int=(Grid=Superfinegrid)
 SCRF=(PCM,Solvent=Chloroform)
 ----------------------------------------------------------------------

 -----------------------------
 _1_alde1_2_ami4_1_opt_cfm_mp2
 -----------------------------
 Symbolic Z-matrix:
 Charge =  0 Multiplicity = 1

                         Standard orientation:
 ---------------------------------------------------------------------
 Center     Atomic      Atomic             Coordinates (Angstroms)
 Number     Number       Type             X           Y           Z
 ---------------------------------------------------------------------
      1          6           0        0.345219    2.086327   -0.123314
      2          6           0        0.749759    3.496334   -0.143748
      3          6           0       -0.990899    1.733669   -0.303384
      4          6           0       -1.366189    0.400017   -0.291220
      5          1           0       -1.738352    2.500354   -0.447950
      6          6           0       -0.402863   -0.580723   -0.092034
      7          6           0        0.932339   -0.242552    0.085187
      8          1           0       -0.712090   -1.614873   -0.087189
      9          6           0        1.303159    1.091315    0.067656
     10          6           0        1.983578   -1.309404    0.252632
     11          1           0        2.334033    1.373408    0.218878
     12          6           0       -2.820810    0.031850   -0.441217
     13          8           0        1.879064    3.902862   -0.039156
     14          6           0       -4.712246   -0.584450    0.689757
     15          6           0       -4.203105   -1.847941   -0.034928
     16          7           0       -3.547361    0.279155    0.794678
     17          1           0       -5.142493   -0.789728    1.667702
     18          7           0       -3.007799   -1.395451   -0.743214
     19          1           0       -4.957192   -2.271956   -0.701315
     20          6           0        4.326268   -1.257708    0.618511
     21          6           0        3.954482   -2.087118   -0.626145
     22          7           0        3.036929   -0.876182    1.189222
     23          1           0        4.861387   -0.347011    0.323400
     24          7           0        2.644042   -1.590282   -1.013715
     25          1           0        3.848523   -3.143829   -0.360621
     26          1           0        2.890163   -1.260928    2.112233
     27          1           0        1.506710   -2.246418    0.589425
     28          1           0        2.749181   -0.719188   -1.527469
     29          1           0       -2.969641   -0.017720    1.576932
     30          1           0       -3.052316   -1.562098   -1.739305
     31          1           0       -3.277693    0.672985   -1.218375
     32          1           0       -0.098431    4.199211   -0.273418
     33          1           0       -3.909534   -2.616772    0.689850
     34          1           0        4.949018   -1.812509    1.321709
     35          1           0       -5.456227   -0.068974    0.074373
     36          1           0        4.669620   -1.995228   -1.440933
 ---------------------------------------------------------------------

 SCF Done:  E(RHF) =  -795.503668150     a.u. after    6 cycles
 SCF Done:  E(RHF) =  -795.503709831     A.U. after   12 cycles
 E2 =    -0.2696258840D+01 EUMP2 =    -0.79819996867111D+03

 The electronic state is 1-A.
 Alpha  occ. eigenvalues --  -20.56792 -15.55865 -15.55729 -15.54863 -15.54646
 Alpha  occ. eigenvalues --  -11.34275 -11.29410 -11.29173 -11.25459 -11.25322
 Alpha  occ. eigenvalues --  -11.25277 -11.25242 -11.25028 -11.24803 -11.24631
 Alpha  occ. eigenvalues --  -11.24534 -11.24461 -11.24351  -1.40474  -1.28107
 Alpha  occ. eigenvalues --   -1.27833  -1.17374  -1.14560  -1.14346  -1.06474
 Alpha  occ. eigenvalues --   -1.05995  -0.99078  -0.97780  -0.89914  -0.86888
 Alpha  occ. eigenvalues --   -0.85200  -0.82694  -0.82636  -0.79216  -0.77256
 Alpha  occ. eigenvalues --   -0.71836  -0.70578  -0.68955  -0.67990  -0.67657
 Alpha  occ. eigenvalues --   -0.66214  -0.64248  -0.62280  -0.60578  -0.59389
 Alpha  occ. eigenvalues --   -0.58780  -0.58471  -0.56379  -0.55247  -0.54975
 Alpha  occ. eigenvalues --   -0.54009  -0.53625  -0.53482  -0.52725  -0.50890
 Alpha  occ. eigenvalues --   -0.49744  -0.49577  -0.48888  -0.48061  -0.42873
 Alpha  occ. eigenvalues --   -0.39607  -0.39503  -0.37593  -0.37013  -0.34533
 Alpha  occ. eigenvalues --   -0.33312
 Alpha virt. eigenvalues --    0.03474   0.03875   0.04204   0.04539   0.04998
 Alpha virt. eigenvalues --    0.05190   0.05447   0.05888   0.06452   0.06595
 Alpha virt. eigenvalues --    0.06783   0.07092   0.07275   0.07821   0.08326

 Mulliken charges:
               1
     1  C    0.439385
     2  C    1.276228
     3  C    0.115138
     4  C    0.984235
     5  H   -0.733553
     6  C    0.643148
     7  C    0.995961
     8  H   -0.831687
     9  C   -0.346160
    10  C    0.500868
    11  H   -0.823688
    12  C    0.660284
    13  O   -0.847162
    14  C    0.662373
    15  C    0.645276
    16  N   -0.621133
    17  H   -0.193555
    18  N   -0.521416
    19  H   -0.195366
    20  C    0.653614
    21  C    0.690647
    22  N   -0.446224
    23  H   -0.250750
    24  N   -0.616178
    25  H   -0.249405
    26  H   -0.050136
    27  H   -0.311281
    28  H    0.063316
    29  H    0.061743
    30  H    0.002298
    31  H   -0.140777
    32  H   -0.310079
    33  H   -0.252458
    34  H   -0.203305
    35  H   -0.250754
    36  H   -0.199448
 Sum of Mulliken charges =   0.00000

 Dipole moment (field-independent basis, Debye):
    X=             -3.3415    Y=             -4.5781    Z=             -0.0234  Tot=              5.6679
 Quadrupole moment (field-independent basis, Debye-Ang):
   XX=            -94.2316   YY=           -119.7190   ZZ=           -104.6650
   XY=            -11.8672   XZ=              4.3533   YZ=             -7.7054

 Normal termination of Gaussian 16 at Tue Nov  2 15:41:47 2021.
