 Gaussian 16, Revision C.01,
 Gaussian 16:  ES64L-G16RevC.01  3-Jul-2019

 ----------------------------------------------------------------------
 #P PBE1PBE/Def2TZVP SP SCF=(YQC,MaxCycle=900) int=(Grid=Superfinegrid)
  EmpiricalDispersion=GD3 SCRF=(PCM,Solvent=Dichloromethane)
 ----------------------------------------------------------------------

 -------------------------
 _1_alde1_2_ami2_2_opt_dcm
 -------------------------
 Symbolic Z-matrix:
 Charge =  0 Multiplicity = 1

                         Standard orientation:
 ---------------------------------------------------------------------
 Center     Atomic      Atomic             Coordinates (Angstroms)
 Number     Number       Type             X           Y           Z
 ---------------------------------------------------------------------
      1          6           0       -0.418655    2.824876    0.044975
      2          6           0       -0.849522    4.185819    0.396407
      3          6           0       -1.356420    1.831369   -0.210148
      4          6           0       -0.943280    0.541703   -0.545568
      5          1           0       -2.414191    2.039220   -0.157550
      6          6           0        0.417372    0.262802   -0.621216
      7          6           0        1.369753    1.250853   -0.367828
      8          1           0        0.764619   -0.725757   -0.881745
      9          6           0        0.943216    2.531218   -0.034690
     10          6           0        2.792371    0.950361   -0.450979
     11          1           0        1.653820    3.319767    0.167423
     12          6           0       -1.920575   -0.504091   -0.815675
     13          8           0       -0.112961    5.109090    0.629778
     14          6           0       -4.099896   -1.321946   -0.994119
     15          6           0       -4.976335   -1.550069    0.275452
     16          7           0       -3.160821   -0.281009   -0.756114
     17          7           0       -5.606844   -0.325547    0.731276
     18          6           0        4.961820   -1.575489    0.265448
     19          6           0        4.602487   -0.484000   -0.788787
     20          7           0        4.146754   -2.766943    0.116781
     21          7           0        3.208798   -0.204253   -0.743120
     22          1           0       -1.950289    4.307616    0.432534
     23          1           0        4.286647   -3.179512   -0.799281
     24          1           0        3.166537   -2.519272    0.197025
     25          1           0       -6.215785    0.049185    0.011789
     26          1           0       -4.895726    0.370528    0.927011
     27          1           0       -1.509004   -1.490307   -1.079248
     28          1           0        3.473056    1.791136   -0.249721
     29          6           0       -4.099848   -2.081321    1.411237
     30          6           0        6.428795   -1.968431    0.087121
     31          1           0        4.819143   -0.889019   -1.783401
     32          1           0        5.225078    0.410644   -0.623348
     33          1           0        6.681706   -2.743333    0.805188
     34          1           0        7.078915   -1.112283    0.245913
     35          1           0        6.603225   -2.356744   -0.914270
     36          1           0       -4.757287   -0.986190   -1.803574
     37          1           0       -3.622625   -2.270485   -1.291141
     38          1           0       -3.662049   -3.039430    1.143147
     39          1           0       -4.705059   -2.204760    2.304657
     40          1           0       -3.298598   -1.378712    1.630978
     41          6           0       -6.072926   -2.562063   -0.058843
     42          1           0       -6.696272   -2.197779   -0.872718
     43          1           0       -6.700932   -2.710880    0.814950
     44          1           0       -5.641307   -3.515500   -0.351511
     45          6           0        4.734229   -1.019773    1.672534
     46          1           0        3.698628   -0.709107    1.793763
     47          1           0        5.380328   -0.165291    1.857273
     48          1           0        4.950370   -1.793110    2.403939
 ---------------------------------------------------------------------

 SCF Done:  E(RPBE1PBE) =  -956.934844259     a.u. after    6 cycles
 SCF Done:  E(RPBE1PBE) =  -956.934860839     A.U. after    9 cycles

 The electronic state is 1-A.
 Alpha  occ. eigenvalues --  -19.21441 -14.38462 -14.38452 -14.35569 -14.35562
 Alpha  occ. eigenvalues --  -10.31875 -10.27258 -10.27236 -10.25995 -10.25995
 Alpha  occ. eigenvalues --  -10.25378 -10.25350 -10.25273 -10.25192 -10.25136
 Alpha  occ. eigenvalues --  -10.25078 -10.24303 -10.24292 -10.20524 -10.20522
 Alpha  occ. eigenvalues --  -10.20296 -10.20291  -1.09217  -0.97263  -0.97046
 Alpha  occ. eigenvalues --   -0.92264  -0.91789  -0.90646  -0.82051  -0.81844
 Alpha  occ. eigenvalues --   -0.78426  -0.78177  -0.72984  -0.72600  -0.71090
 Alpha  occ. eigenvalues --   -0.71086  -0.68876  -0.66445  -0.64163  -0.58133
 Alpha  occ. eigenvalues --   -0.57716  -0.56857  -0.56337  -0.54902  -0.52847
 Alpha  occ. eigenvalues --   -0.50850  -0.50554  -0.50243  -0.50121  -0.48836
 Alpha  occ. eigenvalues --   -0.48194  -0.47735  -0.47242  -0.46995  -0.45486
 Alpha  occ. eigenvalues --   -0.45149  -0.44789  -0.44407  -0.42510  -0.42500
 Alpha  occ. eigenvalues --   -0.41158  -0.39526  -0.39319  -0.39124  -0.39103
 Alpha  occ. eigenvalues --   -0.38750  -0.38385  -0.37647  -0.37237  -0.37160
 Alpha  occ. eigenvalues --   -0.36591  -0.35096  -0.34441  -0.33952  -0.32639
 Alpha  occ. eigenvalues --   -0.28780  -0.28183  -0.27711  -0.27573  -0.27225
 Alpha  occ. eigenvalues --   -0.25226  -0.24997
 Alpha virt. eigenvalues --   -0.07871  -0.06838  -0.03236   0.04116   0.04194
 Alpha virt. eigenvalues --    0.05134   0.05482   0.06306   0.06747   0.07576
 Alpha virt. eigenvalues --    0.08475   0.08640   0.09164   0.09432   0.09491

 Mulliken charges:
               1
     1  C    0.251180
     2  C    0.075201
     3  C   -0.313498
     4  C    0.357909
     5  H    0.140865
     6  C   -0.342360
     7  C    0.351712
     8  H    0.135707
     9  C   -0.327473
    10  C   -0.154554
    11  H    0.139736
    12  C   -0.163226
    13  O   -0.326228
    14  C   -0.135669
    15  C    0.154637
    16  N   -0.191120
    17  N   -0.550092
    18  C    0.154430
    19  C   -0.137514
    20  N   -0.549893
    21  N   -0.191244
    22  H    0.099525
    23  H    0.224664
    24  H    0.231206
    25  H    0.224841
    26  H    0.231398
    27  H    0.093070
    28  H    0.094060
    29  C   -0.386250
    30  C   -0.373142
    31  H    0.125623
    32  H    0.086652
    33  H    0.129091
    34  H    0.123524
    35  H    0.126112
    36  H    0.125917
    37  H    0.086059
    38  H    0.120246
    39  H    0.127432
    40  H    0.132069
    41  C   -0.373096
    42  H    0.126151
    43  H    0.129199
    44  H    0.123319
    45  C   -0.385925
    46  H    0.132092
    47  H    0.120400
    48  H    0.127258
 Sum of Mulliken charges =  -0.00000

 Dipole moment (field-independent basis, Debye):
    X=              0.6415    Y=             -2.3677    Z=             -3.0385  Tot=              3.9052
 Quadrupole moment (field-independent basis, Debye-Ang):
   XX=           -129.2042   YY=           -156.5990   ZZ=           -137.7026
   XY=              5.0531   XZ=              4.1434   YZ=              2.9938

 Normal termination of Gaussian 16 at Mon Oct 18 15:17:11 2021.
