 Gaussian 16, Revision C.01,
 Gaussian 16:  ES64L-G16RevC.01  3-Jul-2019

 ---------------------------------------------------------------------
 #P MP2/aug-cc-pVDZ SP SCF=(YQC,MaxCycle=900) int=(Grid=Superfinegrid)
 ---------------------------------------------------------------------

 -----------------------------
 _1_alde1_2_ami2_1_opt_gas_mp2
 -----------------------------
 Symbolic Z-matrix:
 Charge =  0 Multiplicity = 1

                         Standard orientation:
 ---------------------------------------------------------------------
 Center     Atomic      Atomic             Coordinates (Angstroms)
 Number     Number       Type             X           Y           Z
 ---------------------------------------------------------------------
      1          6           0       -0.437457    2.506953    0.050321
      2          6           0       -0.924964    3.889890    0.019304
      3          6           0       -1.344261    1.449446   -0.009493
      4          6           0       -0.894742    0.140242    0.018986
      5          1           0       -2.399627    1.660250   -0.094223
      6          6           0        0.467944   -0.109823    0.111690
      7          6           0        1.381721    0.934373    0.183063
      8          1           0        0.837458   -1.123827    0.141291
      9          6           0        0.927271    2.242424    0.148449
     10          6           0        2.860976    0.652089    0.243420
     11          1           0        1.634355    3.058169    0.193160
     12          6           0       -1.885991   -0.993620   -0.001895
     13          8           0       -2.081211    4.224762   -0.031736
     14          6           0       -4.233142   -1.335827   -0.204265
     15          6           0       -3.647165   -1.958039    1.092169
     16          7           0       -3.072762   -0.655957   -0.786675
     17          6           0       -5.299568   -0.284359    0.119711
     18          7           0       -2.386431   -1.275130    1.334958
     19          1           0       -3.426383   -3.018186    0.931045
     20          1           0       -6.173597   -0.752020    0.566522
     21          6           0        4.699976    0.004271   -0.949407
     22          6           0        4.392097   -1.155655    0.036571
     23          7           0        3.468475    0.767307   -1.073939
     24          1           0        5.045859   -0.343655   -1.920594
     25          7           0        3.148652   -0.714576    0.675348
     26          6           0        4.113341   -2.461028   -0.716316
     27          1           0        3.778302   -3.225852   -0.020213
     28          1           0        2.854804    0.321098   -1.750590
     29          1           0        3.350107    1.406166    0.890816
     30          1           0        3.162696   -0.811794    1.681666
     31          1           0       -2.958240   -0.837620   -1.774378
     32          1           0       -2.561952   -0.390221    1.803698
     33          1           0       -1.389319   -1.914615   -0.363897
     34          1           0       -0.114452    4.646688    0.050963
     35          1           0       -4.313838   -1.865194    1.947178
     36          1           0       -4.900369    0.454256    0.810431
     37          1           0       -5.600590    0.230041   -0.789303
     38          1           0        5.459603    0.665928   -0.521233
     39          1           0        5.011644   -2.811152   -1.218795
     40          1           0        3.330557   -2.306458   -1.455011
     41          6           0        5.527991   -1.357232    1.039073
     42          1           0        6.451657   -1.598172    0.518002
     43          1           0        5.291169   -2.173806    1.718454
     44          1           0        5.686805   -0.451973    1.623238
     45          6           0       -4.811426   -2.406409   -1.129445
     46          1           0       -5.215625   -1.948000   -2.029979
     47          1           0       -5.611631   -2.945245   -0.627385
     48          1           0       -4.040844   -3.120592   -1.416444
 ---------------------------------------------------------------------

 SCF Done:  E(RHF) =  -951.656519620     a.u. after    7 cycles
 SCF Done:  E(RHF) =  -951.656547963     A.U. after   12 cycles
 E2 =    -0.3311011136D+01 EUMP2 =    -0.95496755909865D+03

 The electronic state is 1-A.
 Alpha  occ. eigenvalues --  -20.55706 -15.55849 -15.55377 -15.54925 -15.54322
 Alpha  occ. eigenvalues --  -11.33264 -11.29637 -11.29150 -11.26844 -11.26266
 Alpha  occ. eigenvalues --  -11.25630 -11.25148 -11.25146 -11.24489 -11.24384
 Alpha  occ. eigenvalues --  -11.24292 -11.24163 -11.23970 -11.22778 -11.22311
 Alpha  occ. eigenvalues --  -11.21892 -11.21162  -1.39205  -1.28730  -1.28207
 Alpha  occ. eigenvalues --   -1.17213  -1.15508  -1.14953  -1.08094  -1.07073
 Alpha  occ. eigenvalues --   -1.03589  -1.02217  -0.94543  -0.93962  -0.92723
 Alpha  occ. eigenvalues --   -0.92340  -0.89221  -0.86664  -0.85523  -0.79493
 Alpha  occ. eigenvalues --   -0.77276  -0.77202  -0.76608  -0.71197  -0.70082
 Alpha  occ. eigenvalues --   -0.68204  -0.67577  -0.66564  -0.65308  -0.63526
 Alpha  occ. eigenvalues --   -0.61673  -0.61189  -0.60854  -0.60386  -0.59929
 Alpha  occ. eigenvalues --   -0.59386  -0.57983  -0.57060  -0.56480  -0.55953
 Alpha  occ. eigenvalues --   -0.55218  -0.54720  -0.54632  -0.54329  -0.51907
 Alpha  occ. eigenvalues --   -0.51551  -0.51345  -0.51071  -0.50817  -0.50320
 Alpha  occ. eigenvalues --   -0.48922  -0.48266  -0.47713  -0.47093  -0.47073
 Alpha  occ. eigenvalues --   -0.41839  -0.39090  -0.38611  -0.37482  -0.36807
 Alpha  occ. eigenvalues --   -0.34100  -0.33207
 Alpha virt. eigenvalues --    0.02971   0.03349   0.03828   0.04048   0.04322
 Alpha virt. eigenvalues --    0.04684   0.04944   0.05269   0.05836   0.05935
 Alpha virt. eigenvalues --    0.06145   0.06274   0.06785   0.06999   0.07273

 Mulliken charges:
               1
     1  C    0.475041
     2  C    1.254303
     3  C   -0.126032
     4  C    1.050091
     5  H   -0.843601
     6  C    0.543006
     7  C    0.976172
     8  H   -0.839618
     9  C    0.132121
    10  C    0.446260
    11  H   -0.758846
    12  C    0.326564
    13  O   -0.786790
    14  C   -2.286762
    15  C    1.348728
    16  N   -0.263886
    17  C    1.161877
    18  N   -0.615499
    19  H   -0.279355
    20  H   -0.016394
    21  C    1.406626
    22  C   -2.363877
    23  N   -0.637550
    24  H   -0.189689
    25  N   -0.338127
    26  C    1.109428
    27  H   -0.069881
    28  H    0.078186
    29  H   -0.217349
    30  H   -0.052805
    31  H   -0.085511
    32  H    0.077806
    33  H   -0.356786
    34  H   -0.354090
    35  H   -0.206882
    36  H   -0.074506
    37  H   -0.085107
    38  H   -0.284255
    39  H   -0.015710
    40  H   -0.051199
    41  C    1.004702
    42  H   -0.034455
    43  H   -0.014518
    44  H   -0.031077
    45  C    0.978909
    46  H   -0.012702
    47  H   -0.031166
    48  H   -0.045796
 Sum of Mulliken charges =   0.00000

 Dipole moment (field-independent basis, Debye):
    X=              2.8645    Y=             -3.7334    Z=             -0.0215  Tot=              4.7057
 Quadrupole moment (field-independent basis, Debye-Ang):
   XX=           -124.7147   YY=           -147.2407   ZZ=           -133.2993
   XY=             12.9704   XZ=              2.9689   YZ=              5.6875

 Normal termination of Gaussian 16 at Mon Oct 25 19:09:46 2021.
