 Gaussian 16, Revision C.01,
 Gaussian 16:  ES64L-G16RevC.01  3-Jul-2019

 ----------------------------------------------------------------------
 #P MP2/aug-cc-pVDZ SP SCF=(YQC,MaxCycle=900) int=(Grid=Superfinegrid)
 SCRF=(PCM,Solvent=Dichloromethane)
 ----------------------------------------------------------------------

 -----------------------------
 _1_alde1_3_ami3_1_opt_dcm_mp2
 -----------------------------
 Symbolic Z-matrix:
 Charge =  0 Multiplicity = 1

                         Standard orientation:
 ---------------------------------------------------------------------
 Center     Atomic      Atomic             Coordinates (Angstroms)
 Number     Number       Type             X           Y           Z
 ---------------------------------------------------------------------
      1          6           0        1.329728   -0.402172   -1.350807
      2          6           0        2.784498   -0.802552   -1.307453
      3          6           0        0.320392   -1.349581   -1.347463
      4          6           0       -1.013010   -0.956269   -1.348170
      5          1           0        0.575086   -2.397501   -1.359316
      6          6           0       -1.328735    0.391688   -1.347591
      7          6           0       -0.321473    1.349789   -1.350650
      8          1           0       -2.363578    0.695258   -1.359988
      9          6           0        1.003725    0.949234   -1.350178
     10          6           0       -0.701746    2.809918   -1.306139
     11          1           0        1.784097    1.693665   -1.364351
     12          6           0       -2.087752   -2.015242   -1.301752
     13          6           0        4.143180   -1.644057    0.377846
     14          6           0        3.362151   -2.799134   -0.273011
     15          7           0        3.357598   -0.472596    0.019803
     16          7           0        2.968918   -2.243332   -1.559525
     17          6           0       -4.107376   -1.508153   -0.275463
     18          6           0       -3.501088   -2.758823    0.384880
     19          7           0       -3.426525   -1.454979   -1.560768
     20          7           0       -2.092849   -2.668754    0.029461
     21          6           0        0.744947    4.305315   -0.276921
     22          6           0       -0.642531    4.405686    0.380880
     23          7           0        0.452898    3.689565   -1.563024
     24          7           0       -1.268334    3.141408    0.023730
     25          1           0        0.202680    4.405643   -2.237035
     26          1           0       -1.482463    2.994793   -2.057059
     27          1           0       -0.989282    2.424564    0.689572
     28          1           0        3.333433   -0.221502   -2.061613
     29          1           0        2.598769   -0.355949    0.687387
     30          1           0       -3.920929   -2.030343   -2.234721
     31          1           0       -1.612744   -2.066921    0.694666
     32          1           0       -1.857336   -2.785631   -2.050832
     33          6           0        4.185057   -4.070768   -0.254809
     34          1           0        3.711153   -2.386853   -2.236406
     35          6           0       -5.620308   -1.582083   -0.260083
     36          6           0        1.437542    5.652440   -0.259867
     37          1           0        2.437502   -2.960556    0.300608
     38          6           0        4.496495   -4.395955    1.209783
     39          1           0        5.113434   -3.921146   -0.812204
     40          1           0        3.638316   -4.894326   -0.717028
     41          6           0        5.192032   -3.235543    1.928021
     42          1           0        5.131229   -5.282624    1.262034
     43          1           0        3.560621   -4.625750    1.724574
     44          6           0        4.387897   -1.933899    1.844680
     45          1           0        5.349081   -3.503341    2.974773
     46          1           0        6.173170   -3.071602    1.476103
     47          1           0        4.938298   -1.118190    2.316344
     48          1           0        3.432872   -2.048186    2.364090
     49          1           0        5.111211   -1.541376   -0.135233
     50          1           0       -3.784530   -0.623605    0.293237
     51          6           0       -6.060861   -1.678719    1.204330
     52          1           0       -5.955345   -2.463959   -0.812367
     53          1           0       -6.057383   -0.699043   -0.728920
     54          6           0       -5.407462   -2.857837    1.931464
     55          1           0       -7.146506   -1.782744    1.254976
     56          1           0       -5.791349   -0.750604    1.713573
     57          6           0       -3.877773   -2.815671    1.851224
     58          1           0       -5.756822   -3.791756    1.484791
     59          1           0       -5.720224   -2.852749    2.977527
     60          1           0       -3.896505   -3.651209   -0.123340
     61          1           0       -3.449353   -3.698014    2.329626
     62          1           0       -3.498870   -1.928880    2.365881
     63          1           0        1.348474    3.583153    0.292629
     64          6           0        1.571476    6.081831    1.204950
     65          1           0        0.842418    6.383785   -0.813007
     66          1           0        2.421580    5.589637   -0.727029
     67          6           0        0.222455    6.105299    1.929840
     68          1           0        2.024250    7.073940    1.256742
     69          1           0        2.239691    5.384019    1.715117
     70          6           0       -0.505936    4.759648    1.847585
     71          1           0       -0.410752    6.875142    1.482421
     72          1           0        0.381480    6.373112    2.976257
     73          1           0       -1.485038    4.829620    2.324248
     74          1           0        0.071529    3.987723    2.362830
     75          1           0       -1.216454    5.194789   -0.128037
 ---------------------------------------------------------------------

 SCF Done:  E(RHF) =  -1373.75485820     a.u. after    7 cycles
 SCF Done:  E(RHF) =  -1373.75488146     A.U. after   11 cycles
 E2 =    -0.4925066833D+01 EUMP2 =    -0.13786799482943D+04

 The electronic state is 1-A.
 Alpha  occ. eigenvalues --  -15.54986 -15.54984 -15.54979 -15.54740 -15.54737
 Alpha  occ. eigenvalues --  -15.54734 -11.28693 -11.28692 -11.28689 -11.24628
 Alpha  occ. eigenvalues --  -11.24626 -11.24624 -11.24567 -11.24566 -11.24563
 Alpha  occ. eigenvalues --  -11.23448 -11.23441 -11.23440 -11.22222 -11.22221
 Alpha  occ. eigenvalues --  -11.22219 -11.22190 -11.22188 -11.22186 -11.22183
 Alpha  occ. eigenvalues --  -11.22182 -11.22172 -11.22156 -11.22154 -11.22152
 Alpha  occ. eigenvalues --  -11.22120 -11.22118 -11.22116  -1.27691  -1.27503
 Alpha  occ. eigenvalues --   -1.27500  -1.15960  -1.14627  -1.14624  -1.14584
 Alpha  occ. eigenvalues --   -1.11153  -1.11151  -1.10362  -1.04032  -1.04029
 Alpha  occ. eigenvalues --   -0.99787  -0.99784  -0.99779  -0.98528  -0.96951
 Alpha  occ. eigenvalues --   -0.96951  -0.87381  -0.87380  -0.86173  -0.82557
 Alpha  occ. eigenvalues --   -0.82556  -0.82095  -0.81688  -0.81680  -0.81677
 Alpha  occ. eigenvalues --   -0.78166  -0.78163  -0.77795  -0.76256  -0.76253
 Alpha  occ. eigenvalues --   -0.69478  -0.68472  -0.66801  -0.66801  -0.66179
 Alpha  occ. eigenvalues --   -0.64997  -0.64992  -0.63301  -0.62910  -0.62908
 Alpha  occ. eigenvalues --   -0.62696  -0.61929  -0.61926  -0.60999  -0.60208
 Alpha  occ. eigenvalues --   -0.59445  -0.59442  -0.58302  -0.58300  -0.58039
 Alpha  occ. eigenvalues --   -0.55356  -0.55353  -0.55113  -0.54683  -0.54683
 Alpha  occ. eigenvalues --   -0.54443  -0.53460  -0.53312  -0.53308  -0.51156
 Alpha  occ. eigenvalues --   -0.50452  -0.50444  -0.49700  -0.49698  -0.49300
 Alpha  occ. eigenvalues --   -0.48747  -0.48745  -0.48735  -0.47156  -0.47104
 Alpha  occ. eigenvalues --   -0.47102  -0.46398  -0.46395  -0.46291  -0.44946
 Alpha  occ. eigenvalues --   -0.44944  -0.44859  -0.44701  -0.44700  -0.44451
 Alpha  occ. eigenvalues --   -0.38001  -0.37999  -0.37718  -0.37446  -0.36971
 Alpha  occ. eigenvalues --   -0.36968  -0.32077  -0.32074
 Alpha virt. eigenvalues --    0.03185   0.03577   0.03578   0.03745   0.04259
 Alpha virt. eigenvalues --    0.04260   0.04511   0.04555   0.04557   0.05314
 Alpha virt. eigenvalues --    0.05864   0.05868   0.05869   0.05981   0.05982

 Mulliken charges:
               1
     1  C   -0.171740
     2  C    1.148895
     3  C    0.710231
     4  C   -0.171662
     5  H   -0.977639
     6  C    0.711074
     7  C   -0.169466
     8  H   -0.978985
     9  C    0.700902
    10  C    1.150611
    11  H   -0.978953
    12  C    1.148987
    13  C    0.007791
    14  C    0.059112
    15  N   -0.550899
    16  N   -0.822447
    17  C    0.055103
    18  C    0.006892
    19  N   -0.823164
    20  N   -0.554495
    21  C    0.056797
    22  C    0.008134
    23  N   -0.822687
    24  N   -0.552583
    25  H    0.074455
    26  H   -0.284661
    27  H    0.145919
    28  H   -0.283175
    29  H    0.144388
    30  H    0.073875
    31  H    0.145826
    32  H   -0.285389
    33  C    0.776818
    34  H    0.074837
    35  C    0.778342
    36  C    0.777778
    37  H   -0.515797
    38  C    0.417822
    39  H   -0.029292
    40  H   -0.133702
    41  C    0.518734
    42  H   -0.155070
    43  H   -0.095662
    44  C    0.714952
    45  H   -0.146134
    46  H   -0.094873
    47  H   -0.131573
    48  H   -0.032525
    49  H   -0.426456
    50  H   -0.516606
    51  C    0.417557
    52  H   -0.029182
    53  H   -0.133856
    54  C    0.519976
    55  H   -0.154843
    56  H   -0.096503
    57  C    0.714160
    58  H   -0.094966
    59  H   -0.146315
    60  H   -0.424986
    61  H   -0.131280
    62  H   -0.032343
    63  H   -0.516417
    64  C    0.417290
    65  H   -0.028931
    66  H   -0.134134
    67  C    0.519263
    68  H   -0.154977
    69  H   -0.096001
    70  C    0.714689
    71  H   -0.095035
    72  H   -0.146385
    73  H   -0.131645
    74  H   -0.032110
    75  H   -0.425671
 Sum of Mulliken charges =   0.00000

 Dipole moment (field-independent basis, Debye):
    X=              0.0085    Y=              0.0034    Z=              2.6849  Tot=              2.6849
 Quadrupole moment (field-independent basis, Debye-Ang):
   XX=           -186.7959   YY=           -186.8896   ZZ=           -202.3677
   XY=             -0.0191   XZ=             -0.0011   YZ=              0.0220

 Normal termination of Gaussian 16 at Mon Nov  8 19:04:33 2021.
