 Gaussian 16, Revision C.01,
 Gaussian 16:  ES64L-G16RevC.01  3-Jul-2019

 ---------------------------------------------------------------------
 #P MP2/aug-cc-pVDZ SP SCF=(YQC,MaxCycle=900) int=(Grid=Superfinegrid)
 ---------------------------------------------------------------------

 -----------------------------
 _1_alde1_3_ami4_1_opt_gas_mp2
 -----------------------------
 Symbolic Z-matrix:
 Charge =  0 Multiplicity = 1

                         Standard orientation:
 ---------------------------------------------------------------------
 Center     Atomic      Atomic             Coordinates (Angstroms)
 Number     Number       Type             X           Y           Z
 ---------------------------------------------------------------------
      1          6           0       -1.594822   -0.666401   -0.154053
      2          6           0       -3.043692   -1.073667   -0.179864
      3          6           0       -1.256224    0.676472   -0.242331
      4          6           0        0.070592    1.071553   -0.182798
      5          1           0       -2.040788    1.407002   -0.369615
      6          6           0        1.061342    0.113358   -0.028862
      7          6           0        0.734491   -1.230986    0.062958
      8          1           0        2.095928    0.416372    0.018781
      9          6           0       -0.596234   -1.616083   -0.000548
     10          6           0        1.832054   -2.251551    0.196350
     11          1           0       -0.857447   -2.662015    0.069543
     12          6           0        0.450328    2.526324   -0.246165
     13          6           0       -5.081845   -0.866171    0.837227
     14          6           0       -5.190363   -0.144772   -0.525878
     15          7           0       -3.659087   -0.933480    1.129201
     16          7           0       -3.835267   -0.207271   -1.065487
     17          6           0        2.369770    3.886847   -0.491841
     18          6           0        1.571358    4.231755    0.786313
     19          7           0        1.674916    2.724672   -1.037749
     20          7           0        0.764960    3.055614    1.069742
     21          6           0        4.145268   -2.387413    0.663474
     22          6           0        3.783624   -3.057748   -0.682238
     23          7           0        2.891895   -1.780137    1.100788
     24          7           0        2.502972   -2.488660   -1.070173
     25          1           0        2.674172   -1.966289    2.070533
     26          1           0        1.407092   -3.218217    0.526304
     27          1           0        2.646804   -1.591681   -1.526559
     28          1           0       -3.801670   -0.516604   -2.027535
     29          1           0       -3.126077   -2.139645   -0.464941
     30          1           0       -3.347081   -0.055694    1.536390
     31          1           0        1.477753    2.805090   -2.026161
     32          1           0        1.322663    2.365292    1.565724
     33          1           0       -0.396670    3.117408   -0.641887
     34          1           0       -5.468133    0.907391   -0.395133
     35          1           0       -5.935498   -0.619517   -1.171916
     36          1           0       -5.454081   -1.891956    0.750598
     37          1           0       -5.624753   -0.362234    1.634392
     38          1           0        3.398915    3.598377   -0.248644
     39          1           0        2.404515    4.734554   -1.183391
     40          1           0        0.889767    5.065588    0.590546
     41          1           0        2.205466    4.488867    1.632602
     42          1           0        4.889752   -1.595389    0.524226
     43          1           0        4.546292   -3.114907    1.376663
     44          1           0        3.642224   -4.133893   -0.540482
     45          1           0        4.534251   -2.902165   -1.454763
 ---------------------------------------------------------------------

 SCF Done:  E(RHF) =  -908.755078715     a.u. after    6 cycles
 SCF Done:  E(RHF) =  -908.755106494     A.U. after   11 cycles
 E2 =    -0.3167821493D+01 EUMP2 =    -0.91192292798686D+03

 The electronic state is 1-A.
 Alpha  occ. eigenvalues --  -15.54796 -15.54763 -15.54750 -15.54258 -15.54198
 Alpha  occ. eigenvalues --  -15.54190 -11.28364 -11.28299 -11.28256 -11.25096
 Alpha  occ. eigenvalues --  -11.25071 -11.25069 -11.24928 -11.24880 -11.24872
 Alpha  occ. eigenvalues --  -11.22805 -11.22767 -11.22701 -11.22359 -11.21938
 Alpha  occ. eigenvalues --  -11.21633  -1.27411  -1.27255  -1.27191  -1.15211
 Alpha  occ. eigenvalues --   -1.13739  -1.13674  -1.13670  -1.04907  -1.04881
 Alpha  occ. eigenvalues --   -0.99136  -0.96895  -0.96354  -0.86747  -0.85373
 Alpha  occ. eigenvalues --   -0.83906  -0.81982  -0.81943  -0.81794  -0.78460
 Alpha  occ. eigenvalues --   -0.76838  -0.71321  -0.69838  -0.68594  -0.68224
 Alpha  occ. eigenvalues --   -0.66433  -0.66054  -0.65627  -0.63174  -0.59829
 Alpha  occ. eigenvalues --   -0.59681  -0.58534  -0.58141  -0.57755  -0.57216
 Alpha  occ. eigenvalues --   -0.54652  -0.54207  -0.54123  -0.53947  -0.53884
 Alpha  occ. eigenvalues --   -0.52843  -0.52084  -0.52009  -0.51804  -0.49208
 Alpha  occ. eigenvalues --   -0.49110  -0.49059  -0.47356  -0.46734  -0.46282
 Alpha  occ. eigenvalues --   -0.38622  -0.38538  -0.38483  -0.36828  -0.36560
 Alpha  occ. eigenvalues --   -0.36337  -0.31970  -0.31376
 Alpha virt. eigenvalues --    0.03296   0.03648   0.03827   0.04349   0.04688
 Alpha virt. eigenvalues --    0.04750   0.05114   0.05461   0.05591   0.06203
 Alpha virt. eigenvalues --    0.06259   0.06814   0.07065   0.07537   0.07721

 Mulliken charges:
               1
     1  C    0.681263
     2  C    0.719244
     3  C    0.245883
     4  C    0.852977
     5  H   -0.856803
     6  C   -0.024128
     7  C    0.771103
     8  H   -1.091296
     9  C    0.806706
    10  C    0.699400
    11  H   -0.756959
    12  C    0.829373
    13  C    0.692060
    14  C    0.677745
    15  N   -0.555226
    16  N   -0.428360
    17  C    0.717734
    18  C    0.663916
    19  N   -0.454180
    20  N   -0.607055
    21  C    0.703081
    22  C    0.663439
    23  N   -0.422440
    24  N   -0.598007
    25  H   -0.061722
    26  H   -0.363204
    27  H    0.049378
    28  H   -0.052311
    29  H   -0.321163
    30  H    0.042211
    31  H   -0.060972
    32  H    0.045638
    33  H   -0.350900
    34  H   -0.254293
    35  H   -0.206782
    36  H   -0.259687
    37  H   -0.213627
    38  H   -0.272314
    39  H   -0.204568
    40  H   -0.264590
    41  H   -0.220944
    42  H   -0.273925
    43  H   -0.202253
    44  H   -0.264726
    45  H   -0.218716
 Sum of Mulliken charges =   0.00000

 Dipole moment (field-independent basis, Debye):
    X=              0.4610    Y=              0.5073    Z=             -0.6848  Tot=              0.9689
 Quadrupole moment (field-independent basis, Debye-Ang):
   XX=           -111.2373   YY=           -120.8394   ZZ=           -127.7866
   XY=              0.8124   XZ=              5.9078   YZ=             -5.2693

 Normal termination of Gaussian 16 at Fri Oct 29 10:04:32 2021.
