 Gaussian 16, Revision C.01,
 Gaussian 16:  ES64L-G16RevC.01  3-Jul-2019

 ----------------------------------------------------------------------
 #P MP2/aug-cc-pVDZ SP SCF=(YQC,MaxCycle=900) int=(Grid=Superfinegrid)
 SCRF=(PCM,Solvent=Chloroform)
 ----------------------------------------------------------------------

 -----------------------------
 _1_alde1_2_ami3_2_opt_cfm_mp2
 -----------------------------
 Symbolic Z-matrix:
 Charge =  0 Multiplicity = 1

                         Standard orientation:
 ---------------------------------------------------------------------
 Center     Atomic      Atomic             Coordinates (Angstroms)
 Number     Number       Type             X           Y           Z
 ---------------------------------------------------------------------
      1          6           0        0.019322    1.729755   -0.012799
      2          6           0       -0.000507    3.200313   -0.016787
      3          6           0       -1.177703    1.019852    0.051915
      4          6           0       -1.173805   -0.372205    0.054852
      5          1           0       -2.116347    1.549106    0.099985
      6          6           0        0.043953   -1.046461   -0.007055
      7          6           0        1.248510   -0.349347   -0.071169
      8          1           0        0.054849   -2.128208   -0.005105
      9          6           0        1.228351    1.043447   -0.074012
     10          6           0        2.512380   -1.072118   -0.134703
     11          1           0        2.168244    1.571225   -0.124875
     12          6           0       -2.424512   -1.118054    0.121166
     13          8           0       -0.989247    3.884721    0.030415
     14          6           0       -4.753900   -1.271289    0.247736
     15          6           0       -5.560097   -0.971673   -1.035260
     16          7           0       -3.535149   -0.529686    0.190644
     17          1           0       -4.572834   -2.361936    0.280029
     18          6           0       -5.526831   -0.849009    1.504068
     19          7           0       -6.637393   -1.939300   -1.154801
     20          1           0       -4.892807   -1.147518   -1.890101
     21          6           0       -5.997217    0.501263   -1.056107
     22          6           0       -5.931626    0.619146    1.437200
     23          6           0       -6.778191    0.882817    0.197436
     24          6           0        5.638410   -0.899581    1.036786
     25          6           0        4.842806   -1.194753   -0.253717
     26          7           0        6.720902   -1.860625    1.156377
     27          1           0        4.966468   -1.085705    1.885713
     28          6           0        6.066203    0.576226    1.072381
     29          7           0        3.614678   -0.466174   -0.199105
     30          1           0        4.672367   -2.286449   -0.295332
     31          6           0        5.620319   -0.756997   -1.501723
     32          6           0        6.851711    0.973061   -0.173573
     33          6           0        6.015131    0.713174   -1.421018
     34          1           0        1.008891    3.656002   -0.069381
     35          1           0        7.197712   -1.735917    2.042805
     36          1           0        7.402736   -1.718900    0.419356
     37          1           0       -7.314732   -1.805874   -0.412010
     38          1           0       -7.121450   -1.808756   -2.036591
     39          1           0       -7.706827    0.307196    0.255062
     40          1           0       -7.051286    1.938844    0.149069
     41          1           0       -5.030065    1.230865    1.392810
     42          1           0       -6.487228    0.888492    2.338147
     43          1           0       -6.410427   -1.482808    1.602442
     44          1           0       -4.893204   -1.021904    2.376859
     45          1           0       -5.100122    1.118089   -1.118980
     46          1           0       -6.601879    0.683381   -1.949289
     47          1           0       -2.333697   -2.216277    0.107095
     48          1           0        2.440656   -2.171347   -0.123361
     49          1           0        5.108666    1.318047   -1.378653
     50          1           0        6.574835    0.993356   -2.316059
     51          1           0        6.508790   -1.383467   -1.599893
     52          1           0        4.993168   -0.926859   -2.379766
     53          1           0        6.664711    0.754907    1.970332
     54          1           0        5.164305    1.186125    1.136264
     55          1           0        7.783891    0.403372   -0.229973
     56          1           0        7.119094    2.030250   -0.115422
 ---------------------------------------------------------------------

 SCF Done:  E(RHF) =  -1105.49097764     a.u. after    6 cycles
 SCF Done:  E(RHF) =  -1105.49105139     A.U. after   12 cycles
 E2 =    -0.3852268132D+01 EUMP2 =    -0.11093433195226D+04

 The electronic state is 1-A.
 Alpha  occ. eigenvalues --  -20.57353 -15.56321 -15.56180 -15.54758 -15.54644
 Alpha  occ. eigenvalues --  -11.34817 -11.29069 -11.28898 -11.26884 -11.26632
 Alpha  occ. eigenvalues --  -11.26178 -11.25874 -11.25797 -11.25765 -11.25484
 Alpha  occ. eigenvalues --  -11.25363 -11.25345 -11.25208 -11.22077 -11.21924
 Alpha  occ. eigenvalues --  -11.21747 -11.21521 -11.21483 -11.21409 -11.21237
 Alpha  occ. eigenvalues --  -11.21171  -1.41062  -1.25862  -1.25587  -1.19635
 Alpha  occ. eigenvalues --   -1.19129  -1.17879  -1.09686  -1.09188  -1.06889
 Alpha  occ. eigenvalues --   -1.06006  -1.00509  -0.99882  -0.98061  -0.97595
 Alpha  occ. eigenvalues --   -0.90884  -0.89839  -0.87176  -0.83305  -0.82863
 Alpha  occ. eigenvalues --   -0.82592  -0.81257  -0.78805  -0.76989  -0.73646
 Alpha  occ. eigenvalues --   -0.73335  -0.71429  -0.68944  -0.68634  -0.68204
 Alpha  occ. eigenvalues --   -0.66835  -0.65689  -0.64931  -0.64403  -0.63051
 Alpha  occ. eigenvalues --   -0.61478  -0.61283  -0.61113  -0.60937  -0.60567
 Alpha  occ. eigenvalues --   -0.59984  -0.59217  -0.57010  -0.55279  -0.55109
 Alpha  occ. eigenvalues --   -0.54211  -0.54078  -0.53660  -0.53443  -0.52864
 Alpha  occ. eigenvalues --   -0.52034  -0.51964  -0.51730  -0.51070  -0.50183
 Alpha  occ. eigenvalues --   -0.49472  -0.47068  -0.46905  -0.46756  -0.44702
 Alpha  occ. eigenvalues --   -0.44251  -0.43932  -0.43418  -0.42252  -0.41033
 Alpha  occ. eigenvalues --   -0.40237  -0.39959  -0.38380  -0.38232  -0.34955
 Alpha  occ. eigenvalues --   -0.32561
 Alpha virt. eigenvalues --    0.03268   0.03635   0.03922   0.04189   0.04255
 Alpha virt. eigenvalues --    0.04566   0.04707   0.05108   0.05284   0.05517
 Alpha virt. eigenvalues --    0.05699   0.05728   0.06223   0.06346   0.06568

 Mulliken charges:
               1
     1  C    0.442081
     2  C    1.176074
     3  C   -0.195946
     4  C    0.416287
     5  H   -0.717018
     6  C    0.632768
     7  C    0.634392
     8  H   -0.671430
     9  C    0.355824
    10  C    0.069626
    11  H   -0.722345
    12  C    0.298981
    13  O   -0.827105
    14  C    0.316271
    15  C    0.301587
    16  N   -0.182424
    17  H   -0.286408
    18  C    0.620323
    19  N   -0.430038
    20  H   -0.301923
    21  C    0.693463
    22  C    0.615798
    23  C    0.346929
    24  C    0.300084
    25  C    0.319089
    26  N   -0.425700
    27  H   -0.301786
    28  C    0.684057
    29  N   -0.162097
    30  H   -0.277582
    31  C    0.627246
    32  C    0.352134
    33  C    0.603513
    34  H   -0.338857
    35  H    0.005502
    36  H    0.055134
    37  H    0.055534
    38  H    0.006018
    39  H   -0.166052
    40  H   -0.173724
    41  H   -0.098137
    42  H   -0.212090
    43  H   -0.155369
    44  H   -0.228888
    45  H   -0.057599
    46  H   -0.212096
    47  H   -0.750185
    48  H   -0.753738
    49  H   -0.091164
    50  H   -0.210226
    51  H   -0.152272
    52  H   -0.227450
    53  H   -0.209599
    54  H   -0.050768
    55  H   -0.162689
    56  H   -0.176014
 Sum of Mulliken charges =   0.00000

 Dipole moment (field-independent basis, Debye):
    X=              2.5685    Y=             -3.1145    Z=             -0.1028  Tot=              4.0383
 Quadrupole moment (field-independent basis, Debye-Ang):
   XX=           -137.6043   YY=           -178.8300   ZZ=           -158.1081
   XY=             10.0747   XZ=              2.1452   YZ=             -0.4958

 Normal termination of Gaussian 16 at Thu Nov 11 15:19:47 2021.
