 Gaussian 16, Revision C.01,
 Gaussian 16:  ES64L-G16RevC.01  3-Jul-2019

 ----------------------------------------------------------------------
 #P MP2/aug-cc-pVDZ SP SCF=(YQC,MaxCycle=900) int=(Grid=Superfinegrid)
 SCRF=(PCM,Solvent=Chloroform)
 ----------------------------------------------------------------------

 -----------------------------
 _1_alde1_3_ami3_1_opt_cfm_mp2
 -----------------------------
 Symbolic Z-matrix:
 Charge =  0 Multiplicity = 1

                         Standard orientation:
 ---------------------------------------------------------------------
 Center     Atomic      Atomic             Coordinates (Angstroms)
 Number     Number       Type             X           Y           Z
 ---------------------------------------------------------------------
      1          6           0        1.329728   -0.402172   -1.350807
      2          6           0        2.784498   -0.802552   -1.307453
      3          6           0        0.320392   -1.349581   -1.347463
      4          6           0       -1.013010   -0.956269   -1.348170
      5          1           0        0.575086   -2.397501   -1.359316
      6          6           0       -1.328735    0.391688   -1.347591
      7          6           0       -0.321473    1.349789   -1.350650
      8          1           0       -2.363578    0.695258   -1.359988
      9          6           0        1.003725    0.949234   -1.350178
     10          6           0       -0.701746    2.809918   -1.306139
     11          1           0        1.784097    1.693665   -1.364351
     12          6           0       -2.087752   -2.015242   -1.301752
     13          6           0        4.143180   -1.644057    0.377846
     14          6           0        3.362151   -2.799134   -0.273011
     15          7           0        3.357598   -0.472596    0.019803
     16          7           0        2.968918   -2.243332   -1.559525
     17          6           0       -4.107376   -1.508153   -0.275463
     18          6           0       -3.501088   -2.758823    0.384880
     19          7           0       -3.426525   -1.454979   -1.560768
     20          7           0       -2.092849   -2.668754    0.029461
     21          6           0        0.744947    4.305315   -0.276921
     22          6           0       -0.642531    4.405686    0.380880
     23          7           0        0.452898    3.689565   -1.563024
     24          7           0       -1.268334    3.141408    0.023730
     25          1           0        0.202680    4.405643   -2.237035
     26          1           0       -1.482463    2.994793   -2.057059
     27          1           0       -0.989282    2.424564    0.689572
     28          1           0        3.333433   -0.221502   -2.061613
     29          1           0        2.598769   -0.355949    0.687387
     30          1           0       -3.920929   -2.030343   -2.234721
     31          1           0       -1.612744   -2.066921    0.694666
     32          1           0       -1.857336   -2.785631   -2.050832
     33          6           0        4.185057   -4.070768   -0.254809
     34          1           0        3.711153   -2.386853   -2.236406
     35          6           0       -5.620308   -1.582083   -0.260083
     36          6           0        1.437542    5.652440   -0.259867
     37          1           0        2.437502   -2.960556    0.300608
     38          6           0        4.496495   -4.395955    1.209783
     39          1           0        5.113434   -3.921146   -0.812204
     40          1           0        3.638316   -4.894326   -0.717028
     41          6           0        5.192032   -3.235543    1.928021
     42          1           0        5.131229   -5.282624    1.262034
     43          1           0        3.560621   -4.625750    1.724574
     44          6           0        4.387897   -1.933899    1.844680
     45          1           0        5.349081   -3.503341    2.974773
     46          1           0        6.173170   -3.071602    1.476103
     47          1           0        4.938298   -1.118190    2.316344
     48          1           0        3.432872   -2.048186    2.364090
     49          1           0        5.111211   -1.541376   -0.135233
     50          1           0       -3.784530   -0.623605    0.293237
     51          6           0       -6.060861   -1.678719    1.204330
     52          1           0       -5.955345   -2.463959   -0.812367
     53          1           0       -6.057383   -0.699043   -0.728920
     54          6           0       -5.407462   -2.857837    1.931464
     55          1           0       -7.146506   -1.782744    1.254976
     56          1           0       -5.791349   -0.750604    1.713573
     57          6           0       -3.877773   -2.815671    1.851224
     58          1           0       -5.756822   -3.791756    1.484791
     59          1           0       -5.720224   -2.852749    2.977527
     60          1           0       -3.896505   -3.651209   -0.123340
     61          1           0       -3.449353   -3.698014    2.329626
     62          1           0       -3.498870   -1.928880    2.365881
     63          1           0        1.348474    3.583153    0.292629
     64          6           0        1.571476    6.081831    1.204950
     65          1           0        0.842418    6.383785   -0.813007
     66          1           0        2.421580    5.589637   -0.727029
     67          6           0        0.222455    6.105299    1.929840
     68          1           0        2.024250    7.073940    1.256742
     69          1           0        2.239691    5.384019    1.715117
     70          6           0       -0.505936    4.759648    1.847585
     71          1           0       -0.410752    6.875142    1.482421
     72          1           0        0.381480    6.373112    2.976257
     73          1           0       -1.485038    4.829620    2.324248
     74          1           0        0.071529    3.987723    2.362830
     75          1           0       -1.216454    5.194789   -0.128037
 ---------------------------------------------------------------------

 SCF Done:  E(RHF) =  -1373.75215197     a.u. after    7 cycles
 SCF Done:  E(RHF) =  -1373.75217831     A.U. after   11 cycles
 E2 =    -0.4925200650D+01 EUMP2 =    -0.13786773789551D+04

 The electronic state is 1-A.
 Alpha  occ. eigenvalues --  -15.54852 -15.54850 -15.54845 -15.54640 -15.54637
 Alpha  occ. eigenvalues --  -15.54634 -11.28562 -11.28561 -11.28558 -11.24592
 Alpha  occ. eigenvalues --  -11.24591 -11.24589 -11.24531 -11.24530 -11.24527
 Alpha  occ. eigenvalues --  -11.23239 -11.23232 -11.23231 -11.22261 -11.22260
 Alpha  occ. eigenvalues --  -11.22259 -11.22219 -11.22217 -11.22215 -11.22185
 Alpha  occ. eigenvalues --  -11.22183 -11.22181 -11.22153 -11.22151 -11.22149
 Alpha  occ. eigenvalues --  -11.21980 -11.21979 -11.21969  -1.27589  -1.27404
 Alpha  occ. eigenvalues --   -1.27401  -1.15773  -1.14526  -1.14524  -1.14483
 Alpha  occ. eigenvalues --   -1.11147  -1.11145  -1.10358  -1.03892  -1.03890
 Alpha  occ. eigenvalues --   -0.99795  -0.99793  -0.99788  -0.98495  -0.96881
 Alpha  occ. eigenvalues --   -0.96880  -0.87257  -0.87256  -0.86100  -0.82528
 Alpha  occ. eigenvalues --   -0.82527  -0.82050  -0.81665  -0.81653  -0.81650
 Alpha  occ. eigenvalues --   -0.78129  -0.78127  -0.77798  -0.76155  -0.76152
 Alpha  occ. eigenvalues --   -0.69336  -0.68351  -0.66749  -0.66748  -0.66069
 Alpha  occ. eigenvalues --   -0.64936  -0.64931  -0.63231  -0.62870  -0.62868
 Alpha  occ. eigenvalues --   -0.62643  -0.61890  -0.61887  -0.60938  -0.60191
 Alpha  occ. eigenvalues --   -0.59439  -0.59435  -0.58244  -0.58242  -0.57969
 Alpha  occ. eigenvalues --   -0.55305  -0.55302  -0.55063  -0.54658  -0.54658
 Alpha  occ. eigenvalues --   -0.54402  -0.53388  -0.53202  -0.53198  -0.51064
 Alpha  occ. eigenvalues --   -0.50372  -0.50365  -0.49676  -0.49674  -0.49284
 Alpha  occ. eigenvalues --   -0.48758  -0.48757  -0.48749  -0.47060  -0.46997
 Alpha  occ. eigenvalues --   -0.46996  -0.46439  -0.46436  -0.46303  -0.44941
 Alpha  occ. eigenvalues --   -0.44939  -0.44859  -0.44690  -0.44689  -0.44433
 Alpha  occ. eigenvalues --   -0.37902  -0.37900  -0.37578  -0.37351  -0.36828
 Alpha  occ. eigenvalues --   -0.36825  -0.31871  -0.31868
 Alpha virt. eigenvalues --    0.03159   0.03570   0.03571   0.03757   0.04249
 Alpha virt. eigenvalues --    0.04250   0.04500   0.04537   0.04539   0.05293
 Alpha virt. eigenvalues --    0.05854   0.05856   0.05901   0.05979   0.05980

 Mulliken charges:
               1
     1  C   -0.174036
     2  C    1.147269
     3  C    0.711816
     4  C   -0.173876
     5  H   -0.975466
     6  C    0.712744
     7  C   -0.171598
     8  H   -0.976908
     9  C    0.702621
    10  C    1.148971
    11  H   -0.976942
    12  C    1.147403
    13  C    0.006411
    14  C    0.058254
    15  N   -0.540554
    16  N   -0.812698
    17  C    0.054095
    18  C    0.005652
    19  N   -0.813326
    20  N   -0.544180
    21  C    0.055746
    22  C    0.006917
    23  N   -0.812890
    24  N   -0.542260
    25  H    0.070039
    26  H   -0.286387
    27  H    0.142729
    28  H   -0.284951
    29  H    0.141231
    30  H    0.069436
    31  H    0.142664
    32  H   -0.287168
    33  C    0.776203
    34  H    0.070433
    35  C    0.777701
    36  C    0.777216
    37  H   -0.517739
    38  C    0.418246
    39  H   -0.031592
    40  H   -0.132978
    41  C    0.519486
    42  H   -0.155502
    43  H   -0.096107
    44  C    0.715272
    45  H   -0.146613
    46  H   -0.095650
    47  H   -0.130790
    48  H   -0.034396
    49  H   -0.428995
    50  H   -0.518505
    51  C    0.417975
    52  H   -0.031454
    53  H   -0.133116
    54  C    0.520733
    55  H   -0.155282
    56  H   -0.096973
    57  C    0.714508
    58  H   -0.095704
    59  H   -0.146793
    60  H   -0.427617
    61  H   -0.130522
    62  H   -0.034272
    63  H   -0.518326
    64  C    0.417718
    65  H   -0.031293
    66  H   -0.133409
    67  C    0.519995
    68  H   -0.155405
    69  H   -0.096441
    70  C    0.715046
    71  H   -0.095812
    72  H   -0.146857
    73  H   -0.130865
    74  H   -0.034024
    75  H   -0.428261
 Sum of Mulliken charges =   0.00000

 Dipole moment (field-independent basis, Debye):
    X=              0.0080    Y=              0.0035    Z=              2.5243  Tot=              2.5243
 Quadrupole moment (field-independent basis, Debye-Ang):
   XX=           -187.5244   YY=           -187.6208   ZZ=           -202.3225
   XY=             -0.0199   XZ=             -0.0004   YZ=              0.0222

 Normal termination of Gaussian 16 at Mon Nov  8 19:57:01 2021.
