 Gaussian 16, Revision C.01,
 Gaussian 16:  ES64L-G16RevC.01  3-Jul-2019

 ----------------------------------------------------------------------
 #P MP2/aug-cc-pVDZ SP SCF=(YQC,MaxCycle=900) int=(Grid=Superfinegrid)
 SCRF=(PCM,Solvent=Dichloromethane)
 ----------------------------------------------------------------------

 -----------------------------
 _1_alde1_2_ami1_2_opt_dcm_mp2
 -----------------------------
 Symbolic Z-matrix:
 Charge =  0 Multiplicity = 1

                         Standard orientation:
 ---------------------------------------------------------------------
 Center     Atomic      Atomic             Coordinates (Angstroms)
 Number     Number       Type             X           Y           Z
 ---------------------------------------------------------------------
      1          6           0        0.013202   -0.162008    2.237961
      2          6           0       -0.004966   -0.266537    3.704936
      3          6           0        1.211755    0.047341    1.562934
      4          6           0        1.229416    0.146686    0.173341
      5          1           0        2.144105    0.138658    2.098874
      6          6           0        0.033189    0.031273   -0.531471
      7          6           0       -1.173985   -0.178893    0.131584
      8          1           0        0.042424    0.106628   -1.610832
      9          6           0       -1.175622   -0.273437    1.520610
     10          6           0       -2.413879   -0.299245   -0.622994
     11          1           0       -2.105109   -0.437352    2.043207
     12          6           0        2.479690    0.370374   -0.538746
     13          8           0       -0.986213   -0.445301    4.378173
     14          6           0        4.802952    0.657011   -0.637620
     15          6           0        5.742259   -0.537244   -0.285975
     16          7           0        3.580954    0.448411    0.069384
     17          1           0        4.653643    0.686906   -1.731328
     18          6           0        5.381330    2.024306   -0.205448
     19          7           0        6.052560   -0.608542    1.127949
     20          1           0        6.682521   -0.404017   -0.830981
     21          6           0        5.137842   -1.890222   -0.714339
     22          1           0        5.449354    2.036606    0.887357
     23          6           0        4.427377    3.141447   -0.628781
     24          6           0        6.762322    2.277475   -0.805254
     25          1           0        4.208688   -2.035420   -0.151763
     26          6           0        6.108867   -3.012290   -0.350120
     27          6           0        4.829254   -1.951752   -2.208716
     28          1           0        7.510072    1.598609   -0.403953
     29          1           0        7.077903    3.294124   -0.580450
     30          1           0        6.732917    2.160666   -1.886818
     31          1           0        4.807165    4.105410   -0.297934
     32          1           0        3.441551    2.994515   -0.193177
     33          1           0        4.328008    3.165609   -1.712620
     34          1           0        4.556557   -2.968166   -2.484601
     35          1           0        5.703023   -1.663069   -2.789897
     36          1           0        4.001095   -1.302110   -2.478661
     37          1           0        5.652444   -3.982092   -0.533529
     38          1           0        6.384386   -2.940373    0.697005
     39          1           0        7.012203   -2.935231   -0.951095
     40          6           0       -5.667210    0.604368   -0.296456
     41          6           0       -4.738599   -0.552014   -0.782101
     42          7           0       -5.990737    0.512195    1.112236
     43          1           0       -6.603453    0.548232   -0.861845
     44          6           0       -5.043142    1.990875   -0.556901
     45          7           0       -3.523270   -0.446795   -0.044525
     46          1           0       -4.579310   -0.452135   -1.870493
     47          6           0       -5.338415   -1.952983   -0.520814
     48          1           0       -4.117093    2.056210    0.025193
     49          6           0       -6.003569    3.073706   -0.067358
     50          6           0       -4.722571    2.226589   -2.031382
     51          1           0       -5.417418   -2.093447    0.562070
     52          6           0       -4.392840   -3.024109   -1.064626
     53          6           0       -6.715820   -2.114998   -1.159060
     54          1           0       -3.901143    1.602408   -2.372669
     55          1           0       -4.434840    3.264808   -2.182211
     56          1           0       -5.595716    2.021446   -2.647981
     57          1           0       -6.286104    2.881338    0.962523
     58          1           0       -6.904118    3.079263   -0.677578
     59          1           0       -5.534960    4.052830   -0.132475
     60          1           0       -7.046076   -3.146769   -1.059045
     61          1           0       -6.673713   -1.871464   -2.218968
     62          1           0       -7.459354   -1.478506   -0.686724
     63          1           0       -3.411819   -2.944513   -0.601659
     64          1           0       -4.278475   -2.918956   -2.142226
     65          1           0       -4.789128   -4.015577   -0.857235
     66          1           0        0.996947   -0.164581    4.168546
     67          1           0       -5.130093    0.479635    1.648683
     68          1           0       -6.512727   -0.333035    1.309241
     69          1           0        6.568565    0.210642    1.425685
     70          1           0        5.184943   -0.639669    1.653067
     71          1           0       -2.315160   -0.255722   -1.719769
     72          1           0        2.397428    0.468878   -1.632861
 ---------------------------------------------------------------------

 SCF Done:  E(RHF) =  -1263.95126816     a.u. after    7 cycles
 SCF Done:  E(RHF) =  -1263.95130425     A.U. after   12 cycles
 E2 =    -0.4524120831D+01 EUMP2 =    -0.12684754250786D+04

 The electronic state is 1-A.
 Alpha  occ. eigenvalues --  -20.57542 -15.56388 -15.56291 -15.53737 -15.53591
 Alpha  occ. eigenvalues --  -11.34983 -11.29076 -11.28948 -11.26959 -11.26742
 Alpha  occ. eigenvalues --  -11.26328 -11.25960 -11.25900 -11.25865 -11.25324
 Alpha  occ. eigenvalues --  -11.25226 -11.25051 -11.24965 -11.22846 -11.22740
 Alpha  occ. eigenvalues --  -11.22104 -11.22026 -11.21545 -11.21467 -11.21232
 Alpha  occ. eigenvalues --  -11.21180 -11.21178 -11.21094 -11.20234 -11.20161
 Alpha  occ. eigenvalues --   -1.41288  -1.26040  -1.25788  -1.19447  -1.18594
 Alpha  occ. eigenvalues --   -1.17606  -1.09034  -1.08413  -1.06613  -1.06240
 Alpha  occ. eigenvalues --   -1.06128  -1.05182  -0.96806  -0.96070  -0.93129
 Alpha  occ. eigenvalues --   -0.93053  -0.92322  -0.92258  -0.90802  -0.89614
 Alpha  occ. eigenvalues --   -0.87546  -0.85416  -0.82876  -0.78841  -0.77363
 Alpha  occ. eigenvalues --   -0.77198  -0.76975  -0.74962  -0.74736  -0.71711
 Alpha  occ. eigenvalues --   -0.69613  -0.67786  -0.67174  -0.65986  -0.65476
 Alpha  occ. eigenvalues --   -0.65210  -0.64661  -0.63463  -0.62695  -0.62577
 Alpha  occ. eigenvalues --   -0.61869  -0.61777  -0.60938  -0.59695  -0.59466
 Alpha  occ. eigenvalues --   -0.58869  -0.58706  -0.57135  -0.56401  -0.56045
 Alpha  occ. eigenvalues --   -0.54946  -0.54877  -0.53920  -0.53631  -0.53495
 Alpha  occ. eigenvalues --   -0.53388  -0.53334  -0.52997  -0.52843  -0.52618
 Alpha  occ. eigenvalues --   -0.52371  -0.51586  -0.51091  -0.50155  -0.49181
 Alpha  occ. eigenvalues --   -0.47481  -0.47321  -0.47001  -0.46831  -0.46768
 Alpha  occ. eigenvalues --   -0.46558  -0.46373  -0.45331  -0.45101  -0.44650
 Alpha  occ. eigenvalues --   -0.43778  -0.43173  -0.41964  -0.40824  -0.40567
 Alpha  occ. eigenvalues --   -0.37845  -0.37589  -0.34788  -0.32492
 Alpha virt. eigenvalues --    0.03260   0.03627   0.03744   0.03848   0.04148
 Alpha virt. eigenvalues --    0.04373   0.04569   0.04952   0.05166   0.05327
 Alpha virt. eigenvalues --    0.05391   0.05652   0.05700   0.06036   0.06181

 Mulliken charges:
               1
     1  C    0.602026
     2  C    1.123198
     3  C    0.341009
     4  C    1.277201
     5  H   -0.969233
     6  C    0.451622
     7  C    1.117777
     8  H   -0.792891
     9  C   -0.123803
    10  C    0.525658
    11  H   -1.008033
    12  C    0.399964
    13  O   -0.843899
    14  C    0.096064
    15  C    0.585099
    16  N   -0.470743
    17  H   -0.417729
    18  C   -1.177755
    19  N   -0.269628
    20  H   -0.397560
    21  C   -2.049500
    22  H   -0.395957
    23  C    1.181707
    24  C    1.292294
    25  H   -0.233446
    26  C    1.461284
    27  C    1.290261
    28  H   -0.087722
    29  H   -0.131227
    30  H   -0.000074
    31  H   -0.149486
    32  H   -0.016707
    33  H    0.039958
    34  H   -0.132374
    35  H   -0.013430
    36  H   -0.152313
    37  H   -0.059350
    38  H    0.002824
    39  H   -0.026146
    40  C    0.551766
    41  C    0.099148
    42  N   -0.269477
    43  H   -0.397832
    44  C   -2.042970
    45  N   -0.455424
    46  H   -0.412963
    47  C   -1.178817
    48  H   -0.233697
    49  C    1.455533
    50  C    1.291595
    51  H   -0.392152
    52  C    1.180529
    53  C    1.271916
    54  H   -0.156319
    55  H   -0.132706
    56  H   -0.011349
    57  H    0.003688
    58  H   -0.024864
    59  H   -0.060886
    60  H   -0.131489
    61  H   -0.001769
    62  H   -0.085295
    63  H   -0.019141
    64  H    0.038887
    65  H   -0.148040
    66  H   -0.327412
    67  H    0.060871
    68  H   -0.026991
    69  H   -0.023399
    70  H    0.059716
    71  H   -0.683453
    72  H   -0.666140
 Sum of Mulliken charges =   0.00000

 Dipole moment (field-independent basis, Debye):
    X=              2.6309    Y=              0.7891    Z=             -6.5646  Tot=              7.1161
 Quadrupole moment (field-independent basis, Debye-Ang):
   XX=           -206.3319   YY=           -197.4939   ZZ=           -202.2158
   XY=             22.6806   XZ=             12.8425   YZ=              2.1843

 Normal termination of Gaussian 16 at Mon Nov  8 14:39:25 2021.
