 Gaussian 16, Revision C.01,
 Gaussian 16:  ES64L-G16RevC.01  3-Jul-2019

 ----------------------------------------------------------------------
 #P PBE1PBE/Def2TZVP SP SCF=(YQC,MaxCycle=900) int=(Grid=Superfinegrid)
  EmpiricalDispersion=GD3
 ----------------------------------------------------------------------

 -------------------------
 _1_alde1_3_ami4_2_opt_gas
 -------------------------
 Symbolic Z-matrix:
 Charge =  0 Multiplicity = 1

                         Standard orientation:
 ---------------------------------------------------------------------
 Center     Atomic      Atomic             Coordinates (Angstroms)
 Number     Number       Type             X           Y           Z
 ---------------------------------------------------------------------
      1          6           0       -0.362819   -1.562710   -0.526628
      2          6           0       -1.197398   -2.767940   -0.690230
      3          6           0       -0.903432   -0.302319   -0.308054
      4          6           0       -0.076975    0.811984   -0.147728
      5          1           0       -1.969269   -0.143988   -0.288084
      6          6           0        1.301014    0.657176   -0.216111
      7          6           0        1.859924   -0.598769   -0.451559
      8          1           0        1.966024    1.498330   -0.094902
      9          6           0        1.022733   -1.698111   -0.611316
     10          6           0        3.304506   -0.761935   -0.535623
     11          1           0        1.449932   -2.675435   -0.791076
     12          6           0       -0.662619    2.123707    0.093623
     13          6           0       -4.145143   -1.868807    0.636351
     14          6           0       -2.774669   -2.449516    1.060460
     15          7           0       -5.119240   -2.854130    0.227090
     16          7           0       -2.199208   -3.163501   -0.037747
     17          1           0       -2.947504   -3.189809    1.850267
     18          6           0       -2.462851    3.564592    0.486649
     19          6           0       -3.618815    3.798877   -0.491121
     20          7           0       -1.904068    2.272034    0.254334
     21          7           0       -4.725149    2.927197   -0.140704
     22          6           0        5.502339    0.020284   -0.474664
     23          6           0        6.150440    0.439590    0.850437
     24          7           0        4.091162    0.214037   -0.399505
     25          1           0        5.787323   -1.018634   -0.704765
     26          7           0        7.590879    0.276414    0.760925
     27          1           0        7.972727    0.906549    0.062758
     28          1           0        8.025831    0.498722    1.649458
     29          1           0       -5.311706   -3.495106    0.990220
     30          1           0       -4.742246   -3.402641   -0.539283
     31          1           0       -5.447545    2.961754   -0.851762
     32          1           0       -4.386119    1.972447   -0.081501
     33          1           0       -0.865500   -3.445059   -1.475504
     34          1           0        0.046442    2.965322    0.137919
     35          1           0        3.661562   -1.785865   -0.729439
     36          1           0       -2.140012   -1.645585    1.457783
     37          1           0        5.880207    0.673442   -1.268856
     38          1           0       -1.716853    4.372320    0.400634
     39          1           0       -2.879262    3.564743    1.498622
     40          1           0       -3.242695    3.647330   -1.518222
     41          1           0       -3.959075    4.835282   -0.403141
     42          1           0       -3.998341   -1.184657   -0.204384
     43          1           0       -4.556710   -1.301186    1.475198
     44          1           0        5.828246    1.467204    1.083950
     45          1           0        5.786496   -0.216458    1.646443
 ---------------------------------------------------------------------

 SCF Done:  E(RPBE1PBE) =  -913.771346819     a.u. after    6 cycles
 SCF Done:  E(RPBE1PBE) =  -913.771370134     A.U. after    9 cycles

 The electronic state is 1-A.
 Alpha  occ. eigenvalues --  -14.38435 -14.38369 -14.37798 -14.36583 -14.35339
 Alpha  occ. eigenvalues --  -14.35132 -10.27224 -10.27173 -10.26704 -10.25073
 Alpha  occ. eigenvalues --  -10.24916 -10.24850 -10.24805 -10.24796 -10.24697
 Alpha  occ. eigenvalues --  -10.24687 -10.24257 -10.24245 -10.24225 -10.24205
 Alpha  occ. eigenvalues --  -10.23991  -0.96984  -0.96729  -0.96022  -0.91488
 Alpha  occ. eigenvalues --   -0.90816  -0.90242  -0.89638  -0.81753  -0.81123
 Alpha  occ. eigenvalues --   -0.75962  -0.75069  -0.74944  -0.68246  -0.67486
 Alpha  occ. eigenvalues --   -0.66184  -0.63685  -0.62382  -0.60756  -0.57360
 Alpha  occ. eigenvalues --   -0.56033  -0.53929  -0.53101  -0.51630  -0.51230
 Alpha  occ. eigenvalues --   -0.50936  -0.50229  -0.49669  -0.48631  -0.48228
 Alpha  occ. eigenvalues --   -0.47566  -0.46375  -0.45797  -0.45287  -0.44829
 Alpha  occ. eigenvalues --   -0.43556  -0.42494  -0.41727  -0.40812  -0.40271
 Alpha  occ. eigenvalues --   -0.39965  -0.39466  -0.39153  -0.38495  -0.37245
 Alpha  occ. eigenvalues --   -0.36483  -0.36141  -0.35151  -0.34143  -0.31274
 Alpha  occ. eigenvalues --   -0.27915  -0.27543  -0.26919  -0.26448  -0.25867
 Alpha  occ. eigenvalues --   -0.25486  -0.24717  -0.24362
 Alpha virt. eigenvalues --   -0.06560  -0.05628  -0.01956   0.03704   0.03858
 Alpha virt. eigenvalues --    0.04422   0.05525   0.05762   0.06064   0.06151
 Alpha virt. eigenvalues --    0.07276   0.07478   0.07931   0.08344   0.09015

 Mulliken charges:
               1
     1  C    0.300635
     2  C   -0.177440
     3  C   -0.328957
     4  C    0.370438
     5  H    0.146268
     6  C   -0.345757
     7  C    0.301990
     8  H    0.124139
     9  C   -0.322910
    10  C   -0.140769
    11  H    0.120056
    12  C   -0.168625
    13  C   -0.104744
    14  C   -0.154646
    15  N   -0.492760
    16  N   -0.177829
    17  H    0.108831
    18  C   -0.063206
    19  C   -0.072973
    20  N   -0.200902
    21  N   -0.525070
    22  C   -0.091298
    23  C   -0.108461
    24  N   -0.164189
    25  H    0.079720
    26  N   -0.509168
    27  H    0.217548
    28  H    0.221274
    29  H    0.207871
    30  H    0.225810
    31  H    0.214110
    32  H    0.228525
    33  H    0.119339
    34  H    0.075919
    35  H    0.069067
    36  H    0.117642
    37  H    0.105862
    38  H    0.075188
    39  H    0.110803
    40  H    0.089697
    41  H    0.097820
    42  H    0.103597
    43  H    0.118553
    44  H    0.096468
    45  H    0.102533
 Sum of Mulliken charges =   0.00000

 Dipole moment (field-independent basis, Debye):
    X=              3.4099    Y=              1.3221    Z=             -0.2046  Tot=              3.6630
 Quadrupole moment (field-independent basis, Debye-Ang):
   XX=           -135.1936   YY=           -122.4881   ZZ=           -124.1853
   XY=              5.2663   XZ=              3.8854   YZ=             -2.8676

 Normal termination of Gaussian 16 at Mon Oct 18 15:19:20 2021.
