 Gaussian 16, Revision C.01,
 Gaussian 16:  ES64L-G16RevC.01  3-Jul-2019

 ---------------------------------------------------------------------
 #P MP2/aug-cc-pVDZ SP SCF=(YQC,MaxCycle=900) int=(Grid=Superfinegrid)
 ---------------------------------------------------------------------

 -----------------------------
 _1_alde1_3_ami2_1_opt_gas_mp2
 -----------------------------
 Symbolic Z-matrix:
 Charge =  0 Multiplicity = 1

                         Standard orientation:
 ---------------------------------------------------------------------
 Center     Atomic      Atomic             Coordinates (Angstroms)
 Number     Number       Type             X           Y           Z
 ---------------------------------------------------------------------
      1          6           0       -0.127528    0.891032   -0.056696
      2          6           0        0.282226    2.339058   -0.009519
      3          6           0       -1.460848    0.515509   -0.072365
      4          6           0       -1.812099   -0.827342   -0.080540
      5          1           0       -2.241211    1.261254   -0.089712
      6          6           0       -0.820785   -1.797217   -0.068626
      7          6           0        0.516172   -1.431208   -0.050336
      8          1           0       -1.093237   -2.842698   -0.073838
      9          6           0        0.854570   -0.087157   -0.044485
     10          6           0        1.615570   -2.459523   -0.074356
     11          1           0        1.894240    0.200866   -0.031017
     12          6           0       -3.266134   -1.216750   -0.052972
     13          6           0        1.529412    3.878159    1.139767
     14          6           0        2.300026    3.601749   -0.179097
     15          7           0        0.653327    2.736393    1.339438
     16          7           0        1.479335    2.574537   -0.825221
     17          6           0       -5.429055   -0.233142   -0.163418
     18          6           0       -5.226628   -1.088457    1.117714
     19          7           0       -4.099780   -0.255742   -0.777921
     20          7           0       -3.790143   -1.210874    1.303971
     21          6           0        3.986908   -2.510757    0.184182
     22          6           0        3.517479   -3.123004   -1.162990
     23          7           0        2.732315   -2.053962    0.787190
     24          7           0        2.187645   -2.589988   -1.404858
     25          1           0        2.614868   -2.363828    1.742179
     26          1           0        1.211959   -3.449555    0.208898
     27          1           0        2.256738   -1.662097   -1.814485
     28          1           0       -0.563561    2.980198   -0.320515
     29          1           0        1.172611    1.973048    1.765181
     30          1           0       -4.123509   -0.432766   -1.773115
     31          1           0       -3.431359   -0.387026    1.779415
     32          1           0       -3.383111   -2.246794   -0.441637
     33          1           0       -5.629615   -2.094405    0.960927
     34          1           0       -5.701040   -0.655365    1.996245
     35          1           0        3.429654   -4.210307   -1.066522
     36          1           0        4.188090   -2.897913   -1.990102
     37          6           0        3.683281    3.005778    0.108515
     38          1           0        3.588106    2.129673    0.745452
     39          1           0        4.319389    3.736183    0.602949
     40          1           0        4.155619    2.700585   -0.822114
     41          1           0        1.254223    2.793166   -1.786223
     42          6           0        2.436735    4.865008   -1.028032
     43          6           0       -6.507467   -0.828424   -1.069681
     44          1           0       -7.458412   -0.875485   -0.543815
     45          1           0       -6.232350   -1.836064   -1.377835
     46          1           0       -6.634454   -0.214145   -1.959268
     47          6           0       -5.777447    1.217083    0.188887
     48          1           0       -5.029816    1.626712    0.863694
     49          1           0       -6.753363    1.270418    0.665466
     50          1           0       -5.792057    1.824597   -0.712703
     51          6           0        4.714549   -3.539909    1.048280
     52          1           0        4.060867   -4.382245    1.270134
     53          1           0        5.032332   -3.088446    1.986338
     54          1           0        5.594159   -3.913254    0.528867
     55          6           0        4.883464   -1.289149   -0.051010
     56          1           0        5.096882   -0.798949    0.895705
     57          1           0        4.380393   -0.575162   -0.698538
     58          1           0        5.821969   -1.586681   -0.512678
     59          1           0        2.981979    5.629887   -0.479618
     60          1           0        1.455063    5.259103   -1.286734
     61          1           0        2.978069    4.645978   -1.946567
     62          1           0        2.186660    4.024276    1.994835
     63          1           0        0.899927    4.766688    1.023214
 ---------------------------------------------------------------------

 SCF Done:  E(RHF) =  -1143.00028666     a.u. after    6 cycles
 SCF Done:  E(RHF) =  -1143.00034844     A.U. after   11 cycles
 E2 =    -0.4089946451D+01 EUMP2 =    -0.11470902948882D+04

 The electronic state is 1-A.
 Alpha  occ. eigenvalues --  -15.54661 -15.54654 -15.54601 -15.53762 -15.53718
 Alpha  occ. eigenvalues --  -15.53706 -11.28226 -11.28219 -11.28186 -11.25865
 Alpha  occ. eigenvalues --  -11.25859 -11.25850 -11.24669 -11.24663 -11.24637
 Alpha  occ. eigenvalues --  -11.22698 -11.22621 -11.22550 -11.22237 -11.22052
 Alpha  occ. eigenvalues --  -11.22021 -11.21978 -11.21803 -11.21421 -11.21047
 Alpha  occ. eigenvalues --  -11.21021 -11.21012  -1.27595  -1.27451  -1.27391
 Alpha  occ. eigenvalues --   -1.15353  -1.14375  -1.14355  -1.14238  -1.07002
 Alpha  occ. eigenvalues --   -1.06891  -1.04668  -1.01017  -1.00494  -0.93765
 Alpha  occ. eigenvalues --   -0.93695  -0.93667  -0.91899  -0.91428  -0.91351
 Alpha  occ. eigenvalues --   -0.86203  -0.85205  -0.84079  -0.78500  -0.76984
 Alpha  occ. eigenvalues --   -0.76230  -0.76207  -0.76192  -0.70518  -0.69211
 Alpha  occ. eigenvalues --   -0.67366  -0.66712  -0.66024  -0.65641  -0.65038
 Alpha  occ. eigenvalues --   -0.62146  -0.60683  -0.60416  -0.60224  -0.59921
 Alpha  occ. eigenvalues --   -0.59342  -0.59232  -0.58481  -0.58024  -0.56615
 Alpha  occ. eigenvalues --   -0.56036  -0.55899  -0.55855  -0.54658  -0.54430
 Alpha  occ. eigenvalues --   -0.54263  -0.53703  -0.53560  -0.53402  -0.51036
 Alpha  occ. eigenvalues --   -0.50998  -0.50921  -0.50613  -0.50303  -0.50234
 Alpha  occ. eigenvalues --   -0.49740  -0.49467  -0.48701  -0.47135  -0.46811
 Alpha  occ. eigenvalues --   -0.46758  -0.46594  -0.46012  -0.45543  -0.38027
 Alpha  occ. eigenvalues --   -0.37891  -0.37883  -0.36486  -0.36245  -0.35951
 Alpha  occ. eigenvalues --   -0.31825  -0.31182
 Alpha virt. eigenvalues --    0.03213   0.03510   0.03670   0.04112   0.04420
 Alpha virt. eigenvalues --    0.04460   0.04746   0.05025   0.05137   0.05623
 Alpha virt. eigenvalues --    0.05754   0.06238   0.06279   0.06600   0.06905

 Mulliken charges:
               1
     1  C    0.777172
     2  C    0.486969
     3  C    0.372211
     4  C    0.563173
     5  H   -0.831288
     6  C    0.805769
     7  C    0.533386
     8  H   -0.744931
     9  C    0.355116
    10  C    0.267260
    11  H   -0.890558
    12  C    0.595606
    13  C    1.337516
    14  C   -2.380724
    15  N   -0.574237
    16  N   -0.119111
    17  C   -2.236900
    18  C    1.335972
    19  N   -0.260652
    20  N   -0.588888
    21  C   -2.346019
    22  C    1.345214
    23  N   -0.096819
    24  N   -0.560354
    25  H   -0.102091
    26  H   -0.430536
    27  H    0.093331
    28  H   -0.407030
    29  H    0.089341
    30  H   -0.074081
    31  H    0.085315
    32  H   -0.359108
    33  H   -0.298094
    34  H   -0.218645
    35  H   -0.288415
    36  H   -0.212673
    37  C    1.268310
    38  H   -0.163222
    39  H   -0.039473
    40  H   -0.096409
    41  H   -0.098669
    42  C    1.009643
    43  C    1.017721
    44  H   -0.041363
    45  H   -0.039854
    46  H   -0.021783
    47  C    1.118623
    48  H   -0.084054
    49  H   -0.020302
    50  H   -0.087176
    51  C    1.011677
    52  H   -0.041367
    53  H   -0.007638
    54  H   -0.033225
    55  C    1.221323
    56  H   -0.099104
    57  H   -0.173380
    58  H   -0.032895
    59  H   -0.032249
    60  H   -0.047334
    61  H   -0.008782
    62  H   -0.210863
    63  H   -0.290357
 Sum of Mulliken charges =   0.00000

 Dipole moment (field-independent basis, Debye):
    X=              0.6587    Y=              0.6939    Z=             -0.7194  Tot=              1.1971
 Quadrupole moment (field-independent basis, Debye-Ang):
   XX=           -151.2014   YY=           -162.8621   ZZ=           -169.6254
   XY=             -0.1704   XZ=              4.9627   YZ=             -4.5771

 Normal termination of Gaussian 16 at Mon Nov  8 19:03:15 2021.
