 Gaussian 16, Revision C.01,
 Gaussian 16:  ES64L-G16RevC.01  3-Jul-2019

 ----------------------------------------------------------------------
 #P PBE1PBE/Def2TZVP SP SCF=(YQC,MaxCycle=900) int=(Grid=Superfinegrid)
  EmpiricalDispersion=GD3 SCRF=(PCM,Solvent=Dichloromethane)
 ----------------------------------------------------------------------

 -------------------------
 _1_alde1_3_ami3_2_opt_dcm
 -------------------------
 Symbolic Z-matrix:
 Charge =  0 Multiplicity = 1

                         Standard orientation:
 ---------------------------------------------------------------------
 Center     Atomic      Atomic             Coordinates (Angstroms)
 Number     Number       Type             X           Y           Z
 ---------------------------------------------------------------------
      1          6           0        0.262562    1.683372   -1.143704
      2          6           0        0.307044    3.114013   -1.504123
      3          6           0       -0.933736    0.971667   -1.068329
      4          6           0       -0.930947   -0.376816   -0.716723
      5          1           0       -1.867743    1.462717   -1.307458
      6          6           0        0.276042   -1.014699   -0.439659
      7          6           0        1.476920   -0.319755   -0.527463
      8          1           0        0.254868   -2.058802   -0.166783
      9          6           0        1.461349    1.027653   -0.888618
     10          6           0        2.736476   -0.995927   -0.250488
     11          1           0        2.402823    1.551738   -0.951844
     12          6           0       -2.190800   -1.102827   -0.642739
     13          6           0       -2.771942    4.274432   -0.735984
     14          6           0       -1.408639    3.954674   -0.094213
     15          7           0       -3.058646    3.288952   -1.773568
     16          1           0       -2.712488    5.299012   -1.143885
     17          6           0       -3.862280    4.225228    0.332160
     18          7           0       -0.383403    4.082419   -1.090066
     19          1           0       -1.456993    2.948871    0.349441
     20          6           0       -1.119119    4.975427    1.012106
     21          6           0       -3.573155    5.219056    1.451805
     22          6           0       -2.210189    4.938180    2.075384
     23          6           0       -3.492309   -3.003905   -0.247417
     24          6           0       -3.694263   -3.503089    1.194726
     25          7           0       -2.237849   -2.320628   -0.316951
     26          1           0       -4.337442   -2.339324   -0.502201
     27          6           0       -3.449307   -4.190766   -1.215234
     28          7           0       -3.845083   -2.345910    2.066863
     29          1           0       -2.815521   -4.120622    1.455650
     30          6           0       -4.956850   -4.359102    1.284935
     31          6           0       -4.717473   -5.028250   -1.112543
     32          6           0       -4.903485   -5.532628    0.314131
     33          6           0        5.062571   -1.083709   -0.032979
     34          6           0        5.746242   -0.389031    1.158388
     35          7           0        3.842579   -0.393781   -0.317146
     36          1           0        4.884608   -2.139225    0.240689
     37          6           0        5.959148   -1.008711   -1.273084
     38          7           0        4.918968   -0.581855    2.341853
     39          1           0        5.867030    0.677058    0.892803
     40          6           0        7.121749   -1.005208    1.410350
     41          6           0        7.322592   -1.631569   -1.002119
     42          6           0        8.001378   -0.928790    0.168187
     43          1           0        3.993355   -0.197708    2.181677
     44          1           0        5.324511   -0.096465    3.134962
     45          1           0       -2.402922    3.406132   -2.540426
     46          1           0       -3.992418    3.438325   -2.142723
     47          1           0       -3.022653   -1.755145    2.000147
     48          1           0       -3.936048   -2.645119    3.031964
     49          1           0        1.087238    3.375893   -2.217308
     50          1           0        2.658868   -2.059718    0.022487
     51          1           0       -5.823576   -6.115701    0.389150
     52          1           0       -4.068916   -6.186197    0.578730
     53          1           0       -4.656847   -5.871241   -1.804024
     54          1           0       -5.579166   -4.420252   -1.397542
     55          1           0       -3.322397   -3.813036   -2.232079
     56          1           0       -2.576453   -4.799609   -0.972638
     57          1           0       -5.069286   -4.722880    2.308925
     58          1           0       -5.816054   -3.724783    1.060121
     59          1           0       -3.092891   -0.520170   -0.884905
     60          1           0        7.943935   -1.556370   -1.896884
     61          1           0        7.198363   -2.690980   -0.766400
     62          1           0        5.462561   -1.521418   -2.099693
     63          1           0        6.074026    0.040782   -1.550181
     64          1           0        8.969476   -1.390156    0.372677
     65          1           0        8.175813    0.118340   -0.090206
     66          1           0        7.599833   -0.483318    2.242550
     67          1           0        6.980378   -2.046130    1.706590
     68          1           0       -1.994674    5.677213    2.849680
     69          1           0       -2.223280    3.952394    2.546201
     70          1           0       -4.353483    5.154438    2.212654
     71          1           0       -3.582941    6.233481    1.046000
     72          1           0       -3.911629    3.211077    0.733511
     73          1           0       -4.827993    4.451323   -0.126887
     74          1           0       -1.059463    5.968519    0.563735
     75          1           0       -0.147836    4.749151    1.456299
 ---------------------------------------------------------------------

 SCF Done:  E(RPBE1PBE) =  -1381.58860200     a.u. after    7 cycles
 SCF Done:  E(RPBE1PBE) =  -1381.58861756     A.U. after    8 cycles

 The electronic state is 1-A.
 Alpha  occ. eigenvalues --  -14.37953 -14.37940 -14.37869 -14.36337 -14.35824
 Alpha  occ. eigenvalues --  -14.35822 -10.26734 -10.26711 -10.26646 -10.24845
 Alpha  occ. eigenvalues --  -10.24666 -10.24650 -10.24637 -10.24536 -10.24527
 Alpha  occ. eigenvalues --  -10.24514 -10.24428 -10.24266 -10.23889 -10.23820
 Alpha  occ. eigenvalues --  -10.23568 -10.21309 -10.21295 -10.21284 -10.21208
 Alpha  occ. eigenvalues --  -10.21197 -10.21161 -10.21160 -10.21158 -10.21098
 Alpha  occ. eigenvalues --  -10.21095 -10.21024 -10.21022  -0.97030  -0.96813
 Alpha  occ. eigenvalues --   -0.96618  -0.91626  -0.91253  -0.91063  -0.89543
 Alpha  occ. eigenvalues --   -0.84448  -0.84391  -0.84116  -0.80865  -0.80583
 Alpha  occ. eigenvalues --   -0.76778  -0.76136  -0.75826  -0.74458  -0.74212
 Alpha  occ. eigenvalues --   -0.74030  -0.67725  -0.67568  -0.66362  -0.63596
 Alpha  occ. eigenvalues --   -0.62781  -0.62259  -0.61894  -0.61523  -0.60444
 Alpha  occ. eigenvalues --   -0.57961  -0.57612  -0.57429  -0.56282  -0.55708
 Alpha  occ. eigenvalues --   -0.53199  -0.52540  -0.50903  -0.50376  -0.50054
 Alpha  occ. eigenvalues --   -0.49753  -0.49646  -0.49320  -0.48983  -0.48979
 Alpha  occ. eigenvalues --   -0.48613  -0.46816  -0.46520  -0.46415  -0.46339
 Alpha  occ. eigenvalues --   -0.46158  -0.45646  -0.44682  -0.44237  -0.44092
 Alpha  occ. eigenvalues --   -0.42491  -0.41443  -0.41388  -0.41039  -0.40333
 Alpha  occ. eigenvalues --   -0.40077  -0.39571  -0.39415  -0.39373  -0.38969
 Alpha  occ. eigenvalues --   -0.38620  -0.38181  -0.37144  -0.36739  -0.36559
 Alpha  occ. eigenvalues --   -0.36031  -0.35890  -0.35844  -0.35740  -0.34930
 Alpha  occ. eigenvalues --   -0.33948  -0.33612  -0.33544  -0.33426  -0.32202
 Alpha  occ. eigenvalues --   -0.31874  -0.31754  -0.31243  -0.31142  -0.29758
 Alpha  occ. eigenvalues --   -0.27598  -0.27236  -0.26895  -0.26183  -0.26119
 Alpha  occ. eigenvalues --   -0.25633  -0.25416  -0.25085
 Alpha virt. eigenvalues --   -0.06180  -0.05289  -0.01601   0.03869   0.04533
 Alpha virt. eigenvalues --    0.04814   0.04946   0.05147   0.05392   0.05464
 Alpha virt. eigenvalues --    0.05872   0.05981   0.06538   0.06871   0.07253

 Mulliken charges:
               1
     1  C    0.300065
     2  C   -0.188516
     3  C   -0.318278
     4  C    0.309853
     5  H    0.198769
     6  C   -0.383116
     7  C    0.368238
     8  H    0.118862
     9  C   -0.373354
    10  C   -0.168574
    11  H    0.127337
    12  C   -0.165503
    13  C    0.054840
    14  C    0.030704
    15  N   -0.575934
    16  H    0.085486
    17  C   -0.238201
    18  N   -0.224368
    19  H    0.088946
    20  C   -0.202766
    21  C   -0.188891
    22  C   -0.197491
    23  C    0.064895
    24  C    0.036607
    25  N   -0.220729
    26  H    0.042109
    27  C   -0.199659
    28  N   -0.560778
    29  H    0.080404
    30  C   -0.210475
    31  C   -0.180064
    32  C   -0.196330
    33  C    0.058642
    34  C    0.038382
    35  N   -0.217539
    36  H    0.044271
    37  C   -0.199740
    38  N   -0.561028
    39  H    0.080755
    40  C   -0.210541
    41  C   -0.179953
    42  C   -0.196145
    43  H    0.233572
    44  H    0.230213
    45  H    0.244887
    46  H    0.231616
    47  H    0.233444
    48  H    0.230160
    49  H    0.134597
    50  H    0.097003
    51  H    0.111302
    52  H    0.093568
    53  H    0.111957
    54  H    0.093911
    55  H    0.111261
    56  H    0.100257
    57  H    0.108793
    58  H    0.096705
    59  H    0.096679
    60  H    0.112074
    61  H    0.094002
    62  H    0.111509
    63  H    0.100509
    64  H    0.111378
    65  H    0.093543
    66  H    0.108892
    67  H    0.096748
    68  H    0.111719
    69  H    0.096635
    70  H    0.112418
    71  H    0.093210
    72  H    0.105180
    73  H    0.110413
    74  H    0.100928
    75  H    0.109730
 Sum of Mulliken charges =   0.00000

 Dipole moment (field-independent basis, Debye):
    X=             -0.9754    Y=             -0.0835    Z=              0.2072  Tot=              1.0006
 Quadrupole moment (field-independent basis, Debye-Ang):
   XX=           -187.0530   YY=           -197.5872   ZZ=           -195.7565
   XY=             -2.9415   XZ=              4.1612   YZ=              1.7290

 Normal termination of Gaussian 16 at Mon Oct 18 11:20:07 2021.
