 Gaussian 16, Revision C.01,
 Gaussian 16:  ES64L-G16RevC.01  3-Jul-2019

 ----------------------------------------------------------------------
 #P MP2/aug-cc-pVDZ SP SCF=(YQC,MaxCycle=900) int=(Grid=Superfinegrid)
 SCRF=(PCM,Solvent=Chloroform)
 ----------------------------------------------------------------------

 -----------------------------
 _1_alde1_3_ami4_1_opt_cfm_mp2
 -----------------------------
 Symbolic Z-matrix:
 Charge =  0 Multiplicity = 1

                         Standard orientation:
 ---------------------------------------------------------------------
 Center     Atomic      Atomic             Coordinates (Angstroms)
 Number     Number       Type             X           Y           Z
 ---------------------------------------------------------------------
      1          6           0       -1.594822   -0.666401   -0.154053
      2          6           0       -3.043692   -1.073667   -0.179864
      3          6           0       -1.256224    0.676472   -0.242331
      4          6           0        0.070592    1.071553   -0.182798
      5          1           0       -2.040788    1.407002   -0.369615
      6          6           0        1.061342    0.113358   -0.028862
      7          6           0        0.734491   -1.230986    0.062958
      8          1           0        2.095928    0.416372    0.018781
      9          6           0       -0.596234   -1.616083   -0.000548
     10          6           0        1.832054   -2.251551    0.196350
     11          1           0       -0.857447   -2.662015    0.069543
     12          6           0        0.450328    2.526324   -0.246165
     13          6           0       -5.081845   -0.866171    0.837227
     14          6           0       -5.190363   -0.144772   -0.525878
     15          7           0       -3.659087   -0.933480    1.129201
     16          7           0       -3.835267   -0.207271   -1.065487
     17          6           0        2.369770    3.886847   -0.491841
     18          6           0        1.571358    4.231755    0.786313
     19          7           0        1.674916    2.724672   -1.037749
     20          7           0        0.764960    3.055614    1.069742
     21          6           0        4.145268   -2.387413    0.663474
     22          6           0        3.783624   -3.057748   -0.682238
     23          7           0        2.891895   -1.780137    1.100788
     24          7           0        2.502972   -2.488660   -1.070173
     25          1           0        2.674172   -1.966289    2.070533
     26          1           0        1.407092   -3.218217    0.526304
     27          1           0        2.646804   -1.591681   -1.526559
     28          1           0       -3.801670   -0.516604   -2.027535
     29          1           0       -3.126077   -2.139645   -0.464941
     30          1           0       -3.347081   -0.055694    1.536390
     31          1           0        1.477753    2.805090   -2.026161
     32          1           0        1.322663    2.365292    1.565724
     33          1           0       -0.396670    3.117408   -0.641887
     34          1           0       -5.468133    0.907391   -0.395133
     35          1           0       -5.935498   -0.619517   -1.171916
     36          1           0       -5.454081   -1.891956    0.750598
     37          1           0       -5.624753   -0.362234    1.634392
     38          1           0        3.398915    3.598377   -0.248644
     39          1           0        2.404515    4.734554   -1.183391
     40          1           0        0.889767    5.065588    0.590546
     41          1           0        2.205466    4.488867    1.632602
     42          1           0        4.889752   -1.595389    0.524226
     43          1           0        4.546292   -3.114907    1.376663
     44          1           0        3.642224   -4.133893   -0.540482
     45          1           0        4.534251   -2.902165   -1.454763
 ---------------------------------------------------------------------

 SCF Done:  E(RHF) =  -908.766788280     a.u. after    6 cycles
 SCF Done:  E(RHF) =  -908.766811607     A.U. after   11 cycles
 E2 =    -0.3167049807D+01 EUMP2 =    -0.91193386141390D+03

 The electronic state is 1-A.
 Alpha  occ. eigenvalues --  -15.55288 -15.55286 -15.55283 -15.54365 -15.54354
 Alpha  occ. eigenvalues --  -15.54341 -11.28666 -11.28633 -11.28598 -11.25111
 Alpha  occ. eigenvalues --  -11.25108 -11.25105 -11.24843 -11.24824 -11.24823
 Alpha  occ. eigenvalues --  -11.23472 -11.23445 -11.23385 -11.22966 -11.22576
 Alpha  occ. eigenvalues --  -11.22297  -1.27707  -1.27531  -1.27486  -1.15874
 Alpha  occ. eigenvalues --   -1.13971  -1.13945  -1.13941  -1.05383  -1.05334
 Alpha  occ. eigenvalues --   -0.99280  -0.97197  -0.96664  -0.87172  -0.85784
 Alpha  occ. eigenvalues --   -0.84213  -0.82098  -0.82040  -0.81887  -0.78885
 Alpha  occ. eigenvalues --   -0.77253  -0.71690  -0.70100  -0.68747  -0.68412
 Alpha  occ. eigenvalues --   -0.66762  -0.66426  -0.65974  -0.63467  -0.59935
 Alpha  occ. eigenvalues --   -0.59788  -0.58751  -0.58387  -0.58057  -0.57521
 Alpha  occ. eigenvalues --   -0.55088  -0.54620  -0.54451  -0.54125  -0.54052
 Alpha  occ. eigenvalues --   -0.53055  -0.52365  -0.52249  -0.51965  -0.49229
 Alpha  occ. eigenvalues --   -0.49147  -0.49138  -0.47927  -0.47190  -0.46740
 Alpha  occ. eigenvalues --   -0.39164  -0.39083  -0.39045  -0.37079  -0.36797
 Alpha  occ. eigenvalues --   -0.36534  -0.32701  -0.32053
 Alpha virt. eigenvalues --    0.03442   0.03855   0.04000   0.04426   0.04859
 Alpha virt. eigenvalues --    0.04894   0.05269   0.05524   0.05716   0.06308
 Alpha virt. eigenvalues --    0.06345   0.06963   0.07201   0.07521   0.07833

 Mulliken charges:
               1
     1  C    0.697355
     2  C    0.752432
     3  C    0.250240
     4  C    0.851603
     5  H   -0.860041
     6  C   -0.007313
     7  C    0.778718
     8  H   -1.092013
     9  C    0.778806
    10  C    0.737204
    11  H   -0.763029
    12  C    0.861038
    13  C    0.688885
    14  C    0.669792
    15  N   -0.596416
    16  N   -0.462996
    17  C    0.710314
    18  C    0.660697
    19  N   -0.492586
    20  N   -0.649092
    21  C    0.695968
    22  C    0.660177
    23  N   -0.460962
    24  N   -0.642344
    25  H   -0.045521
    26  H   -0.354436
    27  H    0.059636
    28  H   -0.036343
    29  H   -0.312588
    30  H    0.053126
    31  H   -0.044560
    32  H    0.056360
    33  H   -0.343825
    34  H   -0.252343
    35  H   -0.198479
    36  H   -0.256591
    37  H   -0.208039
    38  H   -0.270398
    39  H   -0.195955
    40  H   -0.261465
    41  H   -0.214953
    42  H   -0.271959
    43  H   -0.193728
    44  H   -0.261635
    45  H   -0.212742
 Sum of Mulliken charges =   0.00000

 Dipole moment (field-independent basis, Debye):
    X=              0.5683    Y=              0.6120    Z=             -0.8403  Tot=              1.1847
 Quadrupole moment (field-independent basis, Debye-Ang):
   XX=           -107.0370   YY=           -118.7226   ZZ=           -127.7474
   XY=              0.9432   XZ=              7.0688   YZ=             -6.2718

 Normal termination of Gaussian 16 at Tue Nov  2 15:30:04 2021.
