 Gaussian 16, Revision C.01,
 Gaussian 16:  ES64L-G16RevC.01  3-Jul-2019

 ----------------------------------------------------------------------
 #P MP2/aug-cc-pVDZ SP SCF=(YQC,MaxCycle=900) int=(Grid=Superfinegrid)
 SCRF=(PCM,Solvent=Chloroform)
 ----------------------------------------------------------------------

 -----------------------------
 _1_alde1_3_ami4_2_opt_cfm_mp2
 -----------------------------
 Symbolic Z-matrix:
 Charge =  0 Multiplicity = 1

                         Standard orientation:
 ---------------------------------------------------------------------
 Center     Atomic      Atomic             Coordinates (Angstroms)
 Number     Number       Type             X           Y           Z
 ---------------------------------------------------------------------
      1          6           0       -0.362819   -1.562710   -0.526628
      2          6           0       -1.197398   -2.767940   -0.690230
      3          6           0       -0.903432   -0.302319   -0.308054
      4          6           0       -0.076975    0.811984   -0.147728
      5          1           0       -1.969269   -0.143988   -0.288084
      6          6           0        1.301014    0.657176   -0.216111
      7          6           0        1.859924   -0.598769   -0.451559
      8          1           0        1.966024    1.498330   -0.094902
      9          6           0        1.022733   -1.698111   -0.611316
     10          6           0        3.304506   -0.761935   -0.535623
     11          1           0        1.449932   -2.675435   -0.791076
     12          6           0       -0.662619    2.123707    0.093623
     13          6           0       -4.145143   -1.868807    0.636351
     14          6           0       -2.774669   -2.449516    1.060460
     15          7           0       -5.119240   -2.854130    0.227090
     16          7           0       -2.199208   -3.163501   -0.037747
     17          1           0       -2.947504   -3.189809    1.850267
     18          6           0       -2.462851    3.564592    0.486649
     19          6           0       -3.618815    3.798877   -0.491121
     20          7           0       -1.904068    2.272034    0.254334
     21          7           0       -4.725149    2.927197   -0.140704
     22          6           0        5.502339    0.020284   -0.474664
     23          6           0        6.150440    0.439590    0.850437
     24          7           0        4.091162    0.214037   -0.399505
     25          1           0        5.787323   -1.018634   -0.704765
     26          7           0        7.590879    0.276414    0.760925
     27          1           0        7.972727    0.906549    0.062758
     28          1           0        8.025831    0.498722    1.649458
     29          1           0       -5.311706   -3.495106    0.990220
     30          1           0       -4.742246   -3.402641   -0.539283
     31          1           0       -5.447545    2.961754   -0.851762
     32          1           0       -4.386119    1.972447   -0.081501
     33          1           0       -0.865500   -3.445059   -1.475504
     34          1           0        0.046442    2.965322    0.137919
     35          1           0        3.661562   -1.785865   -0.729439
     36          1           0       -2.140012   -1.645585    1.457783
     37          1           0        5.880207    0.673442   -1.268856
     38          1           0       -1.716853    4.372320    0.400634
     39          1           0       -2.879262    3.564743    1.498622
     40          1           0       -3.242695    3.647330   -1.518222
     41          1           0       -3.959075    4.835282   -0.403141
     42          1           0       -3.998341   -1.184657   -0.204384
     43          1           0       -4.556710   -1.301186    1.475198
     44          1           0        5.828246    1.467204    1.083950
     45          1           0        5.786496   -0.216458    1.646443
 ---------------------------------------------------------------------

 SCF Done:  E(RHF) =  -908.757515742     a.u. after    6 cycles
 SCF Done:  E(RHF) =  -908.757572194     A.U. after   12 cycles
 E2 =    -0.3145093557D+01 EUMP2 =    -0.91190266575110D+03

 The electronic state is 1-A.
 Alpha  occ. eigenvalues --  -15.56776 -15.56765 -15.56744 -15.55102 -15.54447
 Alpha  occ. eigenvalues --  -15.54408 -11.29150 -11.29090 -11.28963 -11.26206
 Alpha  occ. eigenvalues --  -11.25978 -11.25714 -11.25669 -11.25594 -11.25582
 Alpha  occ. eigenvalues --  -11.25539 -11.25508 -11.25461 -11.25446 -11.25247
 Alpha  occ. eigenvalues --  -11.25190  -1.25678  -1.25304  -1.24934  -1.18728
 Alpha  occ. eigenvalues --   -1.18187  -1.17870  -1.16933  -1.06897  -1.06290
 Alpha  occ. eigenvalues --   -0.99484  -0.98673  -0.98290  -0.89707  -0.88744
 Alpha  occ. eigenvalues --   -0.87029  -0.83918  -0.82328  -0.80057  -0.75952
 Alpha  occ. eigenvalues --   -0.74297  -0.70966  -0.69407  -0.67849  -0.67753
 Alpha  occ. eigenvalues --   -0.66972  -0.66282  -0.65966  -0.64543  -0.63578
 Alpha  occ. eigenvalues --   -0.63034  -0.61367  -0.60976  -0.60221  -0.59305
 Alpha  occ. eigenvalues --   -0.57882  -0.56352  -0.55451  -0.54574  -0.54155
 Alpha  occ. eigenvalues --   -0.53896  -0.53151  -0.52887  -0.51579  -0.50552
 Alpha  occ. eigenvalues --   -0.49772  -0.49538  -0.45627  -0.45077  -0.41575
 Alpha  occ. eigenvalues --   -0.41481  -0.41086  -0.39793  -0.39309  -0.38706
 Alpha  occ. eigenvalues --   -0.38056  -0.33565  -0.32833
 Alpha virt. eigenvalues --    0.03427   0.03789   0.03880   0.04344   0.04659
 Alpha virt. eigenvalues --    0.04795   0.05078   0.05461   0.05575   0.06003
 Alpha virt. eigenvalues --    0.06081   0.06397   0.06629   0.07064   0.07415

 Mulliken charges:
               1
     1  C    1.007007
     2  C    0.269841
     3  C    0.083453
     4  C    0.505775
     5  H   -0.788075
     6  C    0.122797
     7  C    0.574891
     8  H   -0.754535
     9  C   -0.020237
    10  C    0.926688
    11  H   -0.732193
    12  C    0.892762
    13  C    0.776645
    14  C    0.858804
    15  N   -0.483315
    16  N   -0.585713
    17  H   -0.302144
    18  C    0.554122
    19  C    0.936471
    20  N   -0.671230
    21  N   -0.419456
    22  C    0.683558
    23  C    0.927907
    24  N   -0.600940
    25  H   -0.103220
    26  N   -0.441317
    27  H    0.027787
    28  H   -0.014136
    29  H    0.027801
    30  H    0.053309
    31  H   -0.029610
    32  H    0.035938
    33  H   -0.419145
    34  H   -0.627817
    35  H   -0.629190
    36  H   -0.088799
    37  H   -0.281374
    38  H   -0.124601
    39  H   -0.204348
    40  H   -0.152022
    41  H   -0.162389
    42  H   -0.213536
    43  H   -0.098530
    44  H   -0.106604
    45  H   -0.211081
 Sum of Mulliken charges =   0.00000

 Dipole moment (field-independent basis, Debye):
    X=              4.6213    Y=              1.5154    Z=             -0.4950  Tot=              4.8886
 Quadrupole moment (field-independent basis, Debye-Ang):
   XX=           -146.5845   YY=           -122.9627   ZZ=           -125.9393
   XY=              4.0582   XZ=              4.0620   YZ=             -2.9513

 Normal termination of Gaussian 16 at Thu Nov 11 15:41:14 2021.
