 Gaussian 16, Revision C.01,
 Gaussian 16:  ES64L-G16RevC.01  3-Jul-2019

 ----------------------------------------------------------------------
 #P PBE1PBE/Def2TZVP SP SCF=(YQC,MaxCycle=900) int=(Grid=Superfinegrid)
  EmpiricalDispersion=GD3 SCRF=(PCM,Solvent=Chloroform)
 ----------------------------------------------------------------------

 -------------------------
 _1_alde1_3_ami4_1_opt_cfm
 -------------------------
 Symbolic Z-matrix:
 Charge =  0 Multiplicity = 1

                         Standard orientation:
 ---------------------------------------------------------------------
 Center     Atomic      Atomic             Coordinates (Angstroms)
 Number     Number       Type             X           Y           Z
 ---------------------------------------------------------------------
      1          6           0       -1.594822   -0.666401   -0.154053
      2          6           0       -3.043692   -1.073667   -0.179864
      3          6           0       -1.256224    0.676472   -0.242331
      4          6           0        0.070592    1.071553   -0.182798
      5          1           0       -2.040788    1.407002   -0.369615
      6          6           0        1.061342    0.113358   -0.028862
      7          6           0        0.734491   -1.230986    0.062958
      8          1           0        2.095928    0.416372    0.018781
      9          6           0       -0.596234   -1.616083   -0.000548
     10          6           0        1.832054   -2.251551    0.196350
     11          1           0       -0.857447   -2.662015    0.069543
     12          6           0        0.450328    2.526324   -0.246165
     13          6           0       -5.081845   -0.866171    0.837227
     14          6           0       -5.190363   -0.144772   -0.525878
     15          7           0       -3.659087   -0.933480    1.129201
     16          7           0       -3.835267   -0.207271   -1.065487
     17          6           0        2.369770    3.886847   -0.491841
     18          6           0        1.571358    4.231755    0.786313
     19          7           0        1.674916    2.724672   -1.037749
     20          7           0        0.764960    3.055614    1.069742
     21          6           0        4.145268   -2.387413    0.663474
     22          6           0        3.783624   -3.057748   -0.682238
     23          7           0        2.891895   -1.780137    1.100788
     24          7           0        2.502972   -2.488660   -1.070173
     25          1           0        2.674172   -1.966289    2.070533
     26          1           0        1.407092   -3.218217    0.526304
     27          1           0        2.646804   -1.591681   -1.526559
     28          1           0       -3.801670   -0.516604   -2.027535
     29          1           0       -3.126077   -2.139645   -0.464941
     30          1           0       -3.347081   -0.055694    1.536390
     31          1           0        1.477753    2.805090   -2.026161
     32          1           0        1.322663    2.365292    1.565724
     33          1           0       -0.396670    3.117408   -0.641887
     34          1           0       -5.468133    0.907391   -0.395133
     35          1           0       -5.935498   -0.619517   -1.171916
     36          1           0       -5.454081   -1.891956    0.750598
     37          1           0       -5.624753   -0.362234    1.634392
     38          1           0        3.398915    3.598377   -0.248644
     39          1           0        2.404515    4.734554   -1.183391
     40          1           0        0.889767    5.065588    0.590546
     41          1           0        2.205466    4.488867    1.632602
     42          1           0        4.889752   -1.595389    0.524226
     43          1           0        4.546292   -3.114907    1.376663
     44          1           0        3.642224   -4.133893   -0.540482
     45          1           0        4.534251   -2.902165   -1.454763
 ---------------------------------------------------------------------

 SCF Done:  E(RPBE1PBE) =  -913.814212491     a.u. after    6 cycles
 SCF Done:  E(RPBE1PBE) =  -913.814224840     A.U. after    8 cycles

 The electronic state is 1-A.
 Alpha  occ. eigenvalues --  -14.37139 -14.37120 -14.37117 -14.36295 -14.36268
 Alpha  occ. eigenvalues --  -14.36249 -10.27388 -10.27347 -10.27309 -10.24096
 Alpha  occ. eigenvalues --  -10.24091 -10.24082 -10.23770 -10.23747 -10.23743
 Alpha  occ. eigenvalues --  -10.22726 -10.22703 -10.22642 -10.22030 -10.21701
 Alpha  occ. eigenvalues --  -10.21495  -0.98961  -0.98842  -0.98795  -0.88755
 Alpha  occ. eigenvalues --   -0.87323  -0.87290  -0.87282  -0.80404  -0.80385
 Alpha  occ. eigenvalues --   -0.75697  -0.73708  -0.73220  -0.66057  -0.64927
 Alpha  occ. eigenvalues --   -0.63810  -0.62325  -0.62255  -0.62109  -0.59882
 Alpha  occ. eigenvalues --   -0.58674  -0.55184  -0.53460  -0.52406  -0.51999
 Alpha  occ. eigenvalues --   -0.50676  -0.50270  -0.49790  -0.47947  -0.45031
 Alpha  occ. eigenvalues --   -0.44997  -0.43945  -0.43860  -0.43664  -0.43255
 Alpha  occ. eigenvalues --   -0.41168  -0.40920  -0.40751  -0.40477  -0.40426
 Alpha  occ. eigenvalues --   -0.39405  -0.38649  -0.38567  -0.38398  -0.36709
 Alpha  occ. eigenvalues --   -0.36031  -0.35975  -0.35647  -0.34219  -0.33891
 Alpha  occ. eigenvalues --   -0.26793  -0.26551  -0.25822  -0.25579  -0.25466
 Alpha  occ. eigenvalues --   -0.23572  -0.23423  -0.23096
 Alpha virt. eigenvalues --   -0.00923  -0.00614   0.03945   0.04666   0.05023
 Alpha virt. eigenvalues --    0.06446   0.06520   0.06628   0.07968   0.08510
 Alpha virt. eigenvalues --    0.08731   0.09222   0.09501   0.09581   0.09741

 Mulliken charges:
               1
     1  C    0.324863
     2  C   -0.122466
     3  C   -0.368841
     4  C    0.335516
     5  H    0.109858
     6  C   -0.328535
     7  C    0.321319
     8  H    0.118973
     9  C   -0.420680
    10  C   -0.131146
    11  H    0.110925
    12  C   -0.140404
    13  C   -0.150569
    14  C   -0.111260
    15  N   -0.298589
    16  N   -0.312141
    17  C   -0.112234
    18  C   -0.148180
    19  N   -0.315462
    20  N   -0.293575
    21  C   -0.110393
    22  C   -0.150591
    23  N   -0.315919
    24  N   -0.293490
    25  H    0.209827
    26  H    0.087774
    27  H    0.212481
    28  H    0.210321
    29  H    0.088615
    30  H    0.212811
    31  H    0.209667
    32  H    0.212655
    33  H    0.089376
    34  H    0.087501
    35  H    0.104661
    36  H    0.095440
    37  H    0.135682
    38  H    0.087136
    39  H    0.105010
    40  H    0.095171
    41  H    0.135465
    42  H    0.087717
    43  H    0.104321
    44  H    0.095912
    45  H    0.135479
 Sum of Mulliken charges =   0.00000

 Dipole moment (field-independent basis, Debye):
    X=              0.5148    Y=              0.5591    Z=             -0.7549  Tot=              1.0712
 Quadrupole moment (field-independent basis, Debye-Ang):
   XX=           -106.9097   YY=           -117.9263   ZZ=           -124.8178
   XY=              0.8890   XZ=              6.2904   YZ=             -5.5793

 1\1\GINC-CX3-6-2\SP\RPBE1PBE\def2TZVP\C15H24N6\ATARZIA\18-Oct-2021\0\\
 #P PBE1PBE/Def2TZVP SP SCF=(YQC,MaxCycle=900) int=(Grid=Superfinegrid)
  EmpiricalDispersion=GD3 SCRF=(PCM,Solvent=Chloroform)\\_1_alde1_3_ami
 4_1_opt_cfm\\0,1\C,0,-1.1953,1.024,0.2467\C,0,-1.2729,0.4659,1.6425\C,
 0,-2.349,1.1283,-0.5174\C,0,-2.3014,1.674,-1.7902\H,0,-3.2813,0.7675,-
 0.1099\C,0,-1.0899,2.1215,-2.2956\C,0,0.0687,2.0246,-1.5401\H,0,-1.048
 1,2.5479,-3.286\C,0,0.0107,1.4743,-0.2685\C,0,1.3748,2.4877,-2.1263\H,
 0,0.91,1.3952,0.3249\C,0,-3.5494,1.8217,-2.618\C,0,-2.1945,0.7031,3.72

 Normal termination of Gaussian 16 at Mon Oct 18 05:50:07 2021.
