 Gaussian 16, Revision C.01,
 Gaussian 16:  ES64L-G16RevC.01  3-Jul-2019

 ----------------------------------------------------------------------
 #P PBE1PBE/Def2TZVP SP SCF=(YQC,MaxCycle=900) int=(Grid=Superfinegrid)
  EmpiricalDispersion=GD3
 ----------------------------------------------------------------------

 -------------------------
 _1_alde1_3_ami4_1_opt_gas
 -------------------------
 Symbolic Z-matrix:
 Charge =  0 Multiplicity = 1

                         Standard orientation:
 ---------------------------------------------------------------------
 Center     Atomic      Atomic             Coordinates (Angstroms)
 Number     Number       Type             X           Y           Z
 ---------------------------------------------------------------------
      1          6           0       -1.594822   -0.666401   -0.154053
      2          6           0       -3.043692   -1.073667   -0.179864
      3          6           0       -1.256224    0.676472   -0.242331
      4          6           0        0.070592    1.071553   -0.182798
      5          1           0       -2.040788    1.407002   -0.369615
      6          6           0        1.061342    0.113358   -0.028862
      7          6           0        0.734491   -1.230986    0.062958
      8          1           0        2.095928    0.416372    0.018781
      9          6           0       -0.596234   -1.616083   -0.000548
     10          6           0        1.832054   -2.251551    0.196350
     11          1           0       -0.857447   -2.662015    0.069543
     12          6           0        0.450328    2.526324   -0.246165
     13          6           0       -5.081845   -0.866171    0.837227
     14          6           0       -5.190363   -0.144772   -0.525878
     15          7           0       -3.659087   -0.933480    1.129201
     16          7           0       -3.835267   -0.207271   -1.065487
     17          6           0        2.369770    3.886847   -0.491841
     18          6           0        1.571358    4.231755    0.786313
     19          7           0        1.674916    2.724672   -1.037749
     20          7           0        0.764960    3.055614    1.069742
     21          6           0        4.145268   -2.387413    0.663474
     22          6           0        3.783624   -3.057748   -0.682238
     23          7           0        2.891895   -1.780137    1.100788
     24          7           0        2.502972   -2.488660   -1.070173
     25          1           0        2.674172   -1.966289    2.070533
     26          1           0        1.407092   -3.218217    0.526304
     27          1           0        2.646804   -1.591681   -1.526559
     28          1           0       -3.801670   -0.516604   -2.027535
     29          1           0       -3.126077   -2.139645   -0.464941
     30          1           0       -3.347081   -0.055694    1.536390
     31          1           0        1.477753    2.805090   -2.026161
     32          1           0        1.322663    2.365292    1.565724
     33          1           0       -0.396670    3.117408   -0.641887
     34          1           0       -5.468133    0.907391   -0.395133
     35          1           0       -5.935498   -0.619517   -1.171916
     36          1           0       -5.454081   -1.891956    0.750598
     37          1           0       -5.624753   -0.362234    1.634392
     38          1           0        3.398915    3.598377   -0.248644
     39          1           0        2.404515    4.734554   -1.183391
     40          1           0        0.889767    5.065588    0.590546
     41          1           0        2.205466    4.488867    1.632602
     42          1           0        4.889752   -1.595389    0.524226
     43          1           0        4.546292   -3.114907    1.376663
     44          1           0        3.642224   -4.133893   -0.540482
     45          1           0        4.534251   -2.902165   -1.454763
 ---------------------------------------------------------------------

 SCF Done:  E(RPBE1PBE) =  -913.803739078     a.u. after    6 cycles
 SCF Done:  E(RPBE1PBE) =  -913.803750289     A.U. after    8 cycles

 The electronic state is 1-A.
 Alpha  occ. eigenvalues --  -14.36712 -14.36658 -14.36648 -14.36171 -14.36097
 Alpha  occ. eigenvalues --  -14.36082 -10.27098 -10.27025 -10.26977 -10.24079
 Alpha  occ. eigenvalues --  -10.24041 -10.24038 -10.23825 -10.23766 -10.23764
 Alpha  occ. eigenvalues --  -10.22124 -10.22091 -10.22025 -10.21461 -10.21101
 Alpha  occ. eigenvalues --  -10.20871  -0.98692  -0.98583  -0.98519  -0.88146
 Alpha  occ. eigenvalues --   -0.87118  -0.87042  -0.87039  -0.79989  -0.79971
 Alpha  occ. eigenvalues --   -0.75544  -0.73401  -0.72907  -0.65671  -0.64562
 Alpha  occ. eigenvalues --   -0.63534  -0.62196  -0.62150  -0.62005  -0.59506
 Alpha  occ. eigenvalues --   -0.58314  -0.54865  -0.53218  -0.52258  -0.51816
 Alpha  occ. eigenvalues --   -0.50410  -0.49990  -0.49351  -0.47686  -0.44912
 Alpha  occ. eigenvalues --   -0.44884  -0.43736  -0.43590  -0.43400  -0.43021
 Alpha  occ. eigenvalues --   -0.40873  -0.40578  -0.40419  -0.40284  -0.40235
 Alpha  occ. eigenvalues --   -0.39178  -0.38432  -0.38298  -0.38212  -0.36315
 Alpha  occ. eigenvalues --   -0.36011  -0.35936  -0.35481  -0.33777  -0.33443
 Alpha  occ. eigenvalues --   -0.26207  -0.25916  -0.25242  -0.25015  -0.24888
 Alpha  occ. eigenvalues --   -0.23353  -0.23144  -0.22794
 Alpha virt. eigenvalues --   -0.00284   0.00013   0.03806   0.04400   0.04711
 Alpha virt. eigenvalues --    0.06337   0.06376   0.06420   0.07843   0.08305
 Alpha virt. eigenvalues --    0.08568   0.09135   0.09441   0.09666   0.09708

 Mulliken charges:
               1
     1  C    0.322817
     2  C   -0.147724
     3  C   -0.355810
     4  C    0.353785
     5  H    0.106475
     6  C   -0.311499
     7  C    0.328671
     8  H    0.123745
     9  C   -0.395528
    10  C   -0.155821
    11  H    0.094281
    12  C   -0.166046
    13  C   -0.149734
    14  C   -0.104572
    15  N   -0.260862
    16  N   -0.283848
    17  C   -0.105141
    18  C   -0.147087
    19  N   -0.284895
    20  N   -0.257268
    21  C   -0.103164
    22  C   -0.149823
    23  N   -0.285429
    24  N   -0.256969
    25  H    0.193659
    26  H    0.074307
    27  H    0.200740
    28  H    0.194384
    29  H    0.075449
    30  H    0.201166
    31  H    0.193238
    32  H    0.200802
    33  H    0.077381
    34  H    0.084536
    35  H    0.095070
    36  H    0.088481
    37  H    0.126147
    38  H    0.083940
    39  H    0.095130
    40  H    0.088008
    41  H    0.125586
    42  H    0.084375
    43  H    0.094626
    44  H    0.088900
    45  H    0.125520
 Sum of Mulliken charges =   0.00000

 Dipole moment (field-independent basis, Debye):
    X=              0.4181    Y=              0.4669    Z=             -0.6111  Tot=              0.8754
 Quadrupole moment (field-independent basis, Debye-Ang):
   XX=           -110.9790   YY=           -120.0278   ZZ=           -125.0319
   XY=              0.7575   XZ=              5.2156   YZ=             -4.6487

 Normal termination of Gaussian 16 at Mon Oct 18 00:55:28 2021.
