 Gaussian 16, Revision C.01,
 Gaussian 16:  ES64L-G16RevC.01  3-Jul-2019

 ----------------------------------------------------------------------
 #P MP2/aug-cc-pVDZ SP SCF=(YQC,MaxCycle=900) int=(Grid=Superfinegrid)
 SCRF=(PCM,Solvent=Dichloromethane)
 ----------------------------------------------------------------------

 -----------------------------
 _1_alde1_3_ami3_2_opt_dcm_mp2
 -----------------------------
 Symbolic Z-matrix:
 Charge =  0 Multiplicity = 1

                         Standard orientation:
 ---------------------------------------------------------------------
 Center     Atomic      Atomic             Coordinates (Angstroms)
 Number     Number       Type             X           Y           Z
 ---------------------------------------------------------------------
      1          6           0        0.262562    1.683372   -1.143704
      2          6           0        0.307044    3.114013   -1.504123
      3          6           0       -0.933736    0.971667   -1.068329
      4          6           0       -0.930947   -0.376816   -0.716723
      5          1           0       -1.867743    1.462717   -1.307458
      6          6           0        0.276042   -1.014699   -0.439659
      7          6           0        1.476920   -0.319755   -0.527463
      8          1           0        0.254868   -2.058802   -0.166783
      9          6           0        1.461349    1.027653   -0.888618
     10          6           0        2.736476   -0.995927   -0.250488
     11          1           0        2.402823    1.551738   -0.951844
     12          6           0       -2.190800   -1.102827   -0.642739
     13          6           0       -2.771942    4.274432   -0.735984
     14          6           0       -1.408639    3.954674   -0.094213
     15          7           0       -3.058646    3.288952   -1.773568
     16          1           0       -2.712488    5.299012   -1.143885
     17          6           0       -3.862280    4.225228    0.332160
     18          7           0       -0.383403    4.082419   -1.090066
     19          1           0       -1.456993    2.948871    0.349441
     20          6           0       -1.119119    4.975427    1.012106
     21          6           0       -3.573155    5.219056    1.451805
     22          6           0       -2.210189    4.938180    2.075384
     23          6           0       -3.492309   -3.003905   -0.247417
     24          6           0       -3.694263   -3.503089    1.194726
     25          7           0       -2.237849   -2.320628   -0.316951
     26          1           0       -4.337442   -2.339324   -0.502201
     27          6           0       -3.449307   -4.190766   -1.215234
     28          7           0       -3.845083   -2.345910    2.066863
     29          1           0       -2.815521   -4.120622    1.455650
     30          6           0       -4.956850   -4.359102    1.284935
     31          6           0       -4.717473   -5.028250   -1.112543
     32          6           0       -4.903485   -5.532628    0.314131
     33          6           0        5.062571   -1.083709   -0.032979
     34          6           0        5.746242   -0.389031    1.158388
     35          7           0        3.842579   -0.393781   -0.317146
     36          1           0        4.884608   -2.139225    0.240689
     37          6           0        5.959148   -1.008711   -1.273084
     38          7           0        4.918968   -0.581855    2.341853
     39          1           0        5.867030    0.677058    0.892803
     40          6           0        7.121749   -1.005208    1.410350
     41          6           0        7.322592   -1.631569   -1.002119
     42          6           0        8.001378   -0.928790    0.168187
     43          1           0        3.993355   -0.197708    2.181677
     44          1           0        5.324511   -0.096465    3.134962
     45          1           0       -2.402922    3.406132   -2.540426
     46          1           0       -3.992418    3.438325   -2.142723
     47          1           0       -3.022653   -1.755145    2.000147
     48          1           0       -3.936048   -2.645119    3.031964
     49          1           0        1.087238    3.375893   -2.217308
     50          1           0        2.658868   -2.059718    0.022487
     51          1           0       -5.823576   -6.115701    0.389150
     52          1           0       -4.068916   -6.186197    0.578730
     53          1           0       -4.656847   -5.871241   -1.804024
     54          1           0       -5.579166   -4.420252   -1.397542
     55          1           0       -3.322397   -3.813036   -2.232079
     56          1           0       -2.576453   -4.799609   -0.972638
     57          1           0       -5.069286   -4.722880    2.308925
     58          1           0       -5.816054   -3.724783    1.060121
     59          1           0       -3.092891   -0.520170   -0.884905
     60          1           0        7.943935   -1.556370   -1.896884
     61          1           0        7.198363   -2.690980   -0.766400
     62          1           0        5.462561   -1.521418   -2.099693
     63          1           0        6.074026    0.040782   -1.550181
     64          1           0        8.969476   -1.390156    0.372677
     65          1           0        8.175813    0.118340   -0.090206
     66          1           0        7.599833   -0.483318    2.242550
     67          1           0        6.980378   -2.046130    1.706590
     68          1           0       -1.994674    5.677213    2.849680
     69          1           0       -2.223280    3.952394    2.546201
     70          1           0       -4.353483    5.154438    2.212654
     71          1           0       -3.582941    6.233481    1.046000
     72          1           0       -3.911629    3.211077    0.733511
     73          1           0       -4.827993    4.451323   -0.126887
     74          1           0       -1.059463    5.968519    0.563735
     75          1           0       -0.147836    4.749151    1.456299
 ---------------------------------------------------------------------

 SCF Done:  E(RHF) =  -1373.76071429     a.u. after    7 cycles
 SCF Done:  E(RHF) =  -1373.76075464     A.U. after   11 cycles
 E2 =    -0.4903653023D+01 EUMP2 =    -0.13786644076609D+04

 The electronic state is 1-A.
 Alpha  occ. eigenvalues --  -15.56517 -15.56257 -15.56185 -15.54684 -15.54429
 Alpha  occ. eigenvalues --  -15.54426 -11.28759 -11.28739 -11.28675 -11.25517
 Alpha  occ. eigenvalues --  -11.25447 -11.25341 -11.25284 -11.25280 -11.25257
 Alpha  occ. eigenvalues --  -11.25168 -11.25161 -11.25148 -11.25144 -11.25035
 Alpha  occ. eigenvalues --  -11.24911 -11.21885 -11.21821 -11.21819 -11.21813
 Alpha  occ. eigenvalues --  -11.21772 -11.21758 -11.21755 -11.21716 -11.21705
 Alpha  occ. eigenvalues --  -11.21701 -11.21620 -11.21617  -1.25769  -1.25472
 Alpha  occ. eigenvalues --   -1.25281  -1.19085  -1.18590  -1.18435  -1.16695
 Alpha  occ. eigenvalues --   -1.10141  -1.10095  -1.09757  -1.05952  -1.05687
 Alpha  occ. eigenvalues --   -1.00716  -1.00062  -0.99728  -0.97895  -0.97621
 Alpha  occ. eigenvalues --   -0.97422  -0.89203  -0.89025  -0.87314  -0.83924
 Alpha  occ. eigenvalues --   -0.83027  -0.82309  -0.81837  -0.81456  -0.79991
 Alpha  occ. eigenvalues --   -0.76695  -0.76192  -0.76000  -0.75000  -0.74019
 Alpha  occ. eigenvalues --   -0.70084  -0.69089  -0.67150  -0.66497  -0.66109
 Alpha  occ. eigenvalues --   -0.65435  -0.65304  -0.64886  -0.64419  -0.64289
 Alpha  occ. eigenvalues --   -0.64011  -0.62271  -0.61880  -0.61623  -0.61447
 Alpha  occ. eigenvalues --   -0.61230  -0.60743  -0.59644  -0.59263  -0.59091
 Alpha  occ. eigenvalues --   -0.55767  -0.55582  -0.55482  -0.54627  -0.53407
 Alpha  occ. eigenvalues --   -0.53118  -0.53022  -0.52970  -0.52753  -0.52746
 Alpha  occ. eigenvalues --   -0.52135  -0.51410  -0.50523  -0.50150  -0.49914
 Alpha  occ. eigenvalues --   -0.49021  -0.48829  -0.48684  -0.47159  -0.46488
 Alpha  occ. eigenvalues --   -0.46436  -0.46249  -0.46221  -0.45353  -0.43846
 Alpha  occ. eigenvalues --   -0.43684  -0.43530  -0.42638  -0.42219  -0.41180
 Alpha  occ. eigenvalues --   -0.40639  -0.40444  -0.39525  -0.38940  -0.38733
 Alpha  occ. eigenvalues --   -0.38458  -0.33149  -0.32263
 Alpha virt. eigenvalues --    0.03270   0.03620   0.03710   0.03778   0.04152
 Alpha virt. eigenvalues --    0.04269   0.04460   0.04546   0.04687   0.05183
 Alpha virt. eigenvalues --    0.05504   0.05611   0.05744   0.05973   0.06007

 Mulliken charges:
               1
     1  C    0.350638
     2  C    0.290464
     3  C    1.152377
     4  C    0.109427
     5  H   -0.635259
     6  C    0.725415
     7  C    0.852522
     8  H   -0.856502
     9  C   -0.366412
    10  C    0.081141
    11  H   -0.839403
    12  C    0.578042
    13  C    0.233076
    14  C   -0.180667
    15  N   -0.446533
    16  H   -0.223142
    17  C    0.568669
    18  N   -0.401138
    19  H   -0.328857
    20  C    0.657752
    21  C    0.367207
    22  C    0.516300
    23  C   -0.586861
    24  C    0.594953
    25  N   -0.299180
    26  H   -0.326422
    27  C    0.848223
    28  N   -0.399296
    29  H   -0.192518
    30  C    0.637810
    31  C    0.585842
    32  C    0.485430
    33  C   -0.547883
    34  C    0.577494
    35  N   -0.250905
    36  H   -0.310922
    37  C    0.797591
    38  N   -0.415499
    39  H   -0.197812
    40  C    0.633323
    41  C    0.589180
    42  C    0.482579
    43  H   -0.008667
    44  H   -0.015971
    45  H    0.082641
    46  H   -0.019727
    47  H   -0.025220
    48  H   -0.015607
    49  H   -0.413188
    50  H   -0.677214
    51  H   -0.153188
    52  H   -0.107179
    53  H   -0.124857
    54  H   -0.102572
    55  H   -0.216478
    56  H   -0.136014
    57  H   -0.147102
    58  H   -0.033540
    59  H   -0.827983
    60  H   -0.122575
    61  H   -0.109550
    62  H   -0.226504
    63  H   -0.135574
    64  H   -0.154956
    65  H   -0.103245
    66  H   -0.148282
    67  H   -0.025283
    68  H   -0.149824
    69  H   -0.084761
    70  H   -0.147006
    71  H   -0.100500
    72  H   -0.044804
    73  H   -0.185237
    74  H   -0.077760
    75  H   -0.152520
 Sum of Mulliken charges =   0.00000

 Dipole moment (field-independent basis, Debye):
    X=             -0.9500    Y=             -0.2516    Z=             -0.0490  Tot=              0.9839
 Quadrupole moment (field-independent basis, Debye-Ang):
   XX=           -192.9337   YY=           -202.5750   ZZ=           -200.7486
   XY=             -3.0756   XZ=              4.2118   YZ=              1.5348

 Normal termination of Gaussian 16 at Sat Nov  6 14:37:57 2021.
