 Gaussian 16, Revision C.01,
 Gaussian 16:  ES64L-G16RevC.01  3-Jul-2019

 ----------------------------------------------------------------------
 #P MP2/aug-cc-pVDZ SP SCF=(YQC,MaxCycle=900) int=(Grid=Superfinegrid)
 SCRF=(PCM,Solvent=Dichloromethane)
 ----------------------------------------------------------------------

 -----------------------------
 _2_alde1_4_ami4_1_opt_dcm_mp2
 -----------------------------
 Symbolic Z-matrix:
 Charge =  0 Multiplicity = 1

                         Standard orientation:
 ---------------------------------------------------------------------
 Center     Atomic      Atomic             Coordinates (Angstroms)
 Number     Number       Type             X           Y           Z
 ---------------------------------------------------------------------
      1          6           0       -1.925425   -0.830059    0.491052
      2          6           0       -1.078629   -1.977950    0.793569
      3          6           0       -3.223104   -1.022914    0.010897
      4          6           0       -4.037959    0.059680   -0.270754
      5          1           0       -3.588960   -2.027961   -0.122761
      6          6           0       -3.553429    1.347885   -0.095273
      7          6           0       -2.255682    1.560032    0.365402
      8          1           0       -4.199109    2.184269   -0.318853
      9          6           0       -1.448029    0.463683    0.667373
     10          6           0       -1.742587    2.918240    0.483918
     11          1           0       -0.445637    0.646195    1.024748
     12          6           0       -5.446086   -0.155002   -0.786873
     13          1           0       -2.463295    3.726143    0.273586
     14          1           0       -0.144189   -1.757285    1.331691
     15          6           0        1.843630   -1.191982   -1.189749
     16          6           0        0.993055   -2.370133   -1.281904
     17          6           0        1.283351    0.059253   -1.419477
     18          6           0        2.017588    1.214825   -1.172638
     19          1           0        0.249687    0.135125   -1.729142
     20          6           0        3.346169    1.110973   -0.765222
     21          6           0        3.929173   -0.135659   -0.584684
     22          1           0        3.910533    2.012246   -0.588836
     23          6           0        3.172092   -1.283232   -0.777683
     24          6           0        5.365195   -0.245069   -0.157889
     25          1           0        3.602155   -2.257597   -0.610029
     26          6           0        1.326565    2.491454   -1.229219
     27          1           0        0.362438    2.476123   -1.762732
     28          6           0        0.310784   -4.479024   -0.589118
     29          6           0       -0.536139   -4.245849    0.687542
     30          7           0        1.273388   -3.430822   -0.656391
     31          7           0       -1.415319   -3.148346    0.456234
     32          6           0       -6.455716   -1.020464    1.085168
     33          6           0       -6.670195    0.525099    1.034457
     34          7           0       -5.989420   -1.396423   -0.243759
     35          7           0       -6.312376    0.928509   -0.320821
     36          6           0        0.011813    4.452677    0.771299
     37          6           0        0.853998    4.630904   -0.517154
     38          7           0       -0.536679    3.137099    0.777609
     39          7           0        1.743774    3.517755   -0.624872
     40          6           0        6.915102   -1.139863    1.288219
     41          6           0        7.040724    0.418009    1.272391
     42          7           0        5.645982   -1.439591    0.641015
     43          7           0        5.835031    0.903946    0.616964
     44          1           0        0.070033   -2.254090   -1.870648
     45          1           0        4.911048   -1.549837    1.335605
     46          1           0        6.009710   -0.306680   -1.050342
     47          1           0        5.128453    1.146213    1.307387
     48          1           0       -7.142816    0.974446   -0.904031
     49          1           0       -6.766793   -1.711086   -0.816354
     50          1           0       -5.420142   -0.186982   -1.881798
     51          1           0        7.904267    0.718945    0.673467
     52          1           0        7.145741    0.841467    2.270723
     53          1           0        6.952818   -1.554509    2.295130
     54          1           0        7.718081   -1.587472    0.696682
     55          1           0       -5.991339    1.020952    1.732293
     56          1           0       -7.692410    0.816343    1.274002
     57          1           0       -5.674048   -1.267485    1.807128
     58          1           0       -7.362804   -1.561757    1.351788
     59          1           0        0.154090   -4.077299    1.527884
     60          1           0       -1.145854   -5.132832    0.872642
     61          1           0       -0.368559   -4.503679   -1.454194
     62          1           0        0.839305   -5.429580   -0.495172
     63          1           0        1.437011    5.550797   -0.441318
     64          1           0        0.160343    4.697475   -1.372023
     65          1           0       -0.751733    5.247253    0.803198
     66          1           0        0.673761    4.534160    1.636535
 ---------------------------------------------------------------------

 SCF Done:  E(RHF) =  -1438.89093028     a.u. after    7 cycles
 SCF Done:  E(RHF) =  -1438.89096674     A.U. after   14 cycles
 E2 =    -0.4992155240D+01 EUMP2 =    -0.14438831219844D+04

 The electronic state is 1-A.
 Alpha  occ. eigenvalues --  -15.56202 -15.56049 -15.55889 -15.55722 -15.55269
 Alpha  occ. eigenvalues --  -15.55205 -15.55198 -15.55160 -11.29231 -11.29081
 Alpha  occ. eigenvalues --  -11.28718 -11.28694 -11.28632 -11.28362 -11.25777
 Alpha  occ. eigenvalues --  -11.25689 -11.25677 -11.25628 -11.25078 -11.25044
 Alpha  occ. eigenvalues --  -11.25003 -11.24984 -11.24931 -11.24928 -11.24922
 Alpha  occ. eigenvalues --  -11.24829 -11.24691 -11.24641 -11.24491 -11.24434
 Alpha  occ. eigenvalues --  -11.24420 -11.24415 -11.24180 -11.23850  -1.28125
 Alpha  occ. eigenvalues --   -1.27943  -1.26461  -1.26181  -1.23487  -1.23046
 Alpha  occ. eigenvalues --   -1.17239  -1.16373  -1.14480  -1.14436  -1.07293
 Alpha  occ. eigenvalues --   -1.06742  -1.05514  -1.04868  -1.01064  -0.98886
 Alpha  occ. eigenvalues --   -0.98387  -0.97904  -0.91391  -0.91272  -0.88101
 Alpha  occ. eigenvalues --   -0.87522  -0.87091  -0.83771  -0.83198  -0.81656
 Alpha  occ. eigenvalues --   -0.81518  -0.80269  -0.78982  -0.76264  -0.74378
 Alpha  occ. eigenvalues --   -0.74052  -0.71552  -0.71458  -0.70345  -0.68615
 Alpha  occ. eigenvalues --   -0.67997  -0.67599  -0.66295  -0.66054  -0.64973
 Alpha  occ. eigenvalues --   -0.64462  -0.64075  -0.63685  -0.63253  -0.62824
 Alpha  occ. eigenvalues --   -0.61876  -0.61223  -0.60731  -0.60341  -0.60205
 Alpha  occ. eigenvalues --   -0.59666  -0.59253  -0.58267  -0.55622  -0.55336
 Alpha  occ. eigenvalues --   -0.54328  -0.54081  -0.53992  -0.53652  -0.53426
 Alpha  occ. eigenvalues --   -0.53335  -0.52409  -0.52228  -0.51031  -0.50505
 Alpha  occ. eigenvalues --   -0.49867  -0.49742  -0.48856  -0.48572  -0.48486
 Alpha  occ. eigenvalues --   -0.48012  -0.46350  -0.44649  -0.42978  -0.41426
 Alpha  occ. eigenvalues --   -0.40651  -0.40579  -0.40315  -0.40041  -0.39718
 Alpha  occ. eigenvalues --   -0.39111  -0.37781  -0.37683  -0.33620  -0.32863
 Alpha  occ. eigenvalues --   -0.32295  -0.31628
 Alpha virt. eigenvalues --    0.03310   0.03636   0.03849   0.04168   0.04439
 Alpha virt. eigenvalues --    0.04638   0.04664   0.05147   0.05216   0.05504
 Alpha virt. eigenvalues --    0.05518   0.05718   0.06032   0.06471   0.06656

 Mulliken charges:
               1
     1  C    1.129476
     2  C    0.680252
     3  C   -0.069835
     4  C    0.749081
     5  H   -1.009203
     6  C    0.809311
     7  C    0.476575
     8  H   -0.873669
     9  C    0.079517
    10  C    0.546371
    11  H   -0.991628
    12  C    0.415500
    13  H   -0.650318
    14  H   -0.670456
    15  C    0.723584
    16  C    0.580834
    17  C    0.803116
    18  C    0.531632
    19  H   -0.949381
    20  C    0.666353
    21  C    0.225736
    22  H   -0.875540
    23  C    0.497891
    24  C    1.398576
    25  H   -0.889577
    26  C    0.681902
    27  H   -0.583691
    28  C    0.665639
    29  C    0.649637
    30  N   -0.778536
    31  N   -0.716020
    32  C    0.826597
    33  C    0.797310
    34  N   -0.400926
    35  N   -0.395400
    36  C    0.758281
    37  C    0.664733
    38  N   -0.404060
    39  N   -0.795628
    40  C    0.615904
    41  C    0.629349
    42  N   -0.538026
    43  N   -0.541503
    44  H   -0.559195
    45  H    0.037761
    46  H   -0.183634
    47  H    0.034725
    48  H    0.003248
    49  H   -0.007391
    50  H   -0.052493
    51  H   -0.253970
    52  H   -0.258035
    53  H   -0.262054
    54  H   -0.253160
    55  H   -0.231379
    56  H   -0.223854
    57  H   -0.228352
    58  H   -0.226330
    59  H   -0.141729
    60  H   -0.323285
    61  H   -0.146448
    62  H   -0.317426
    63  H   -0.325976
    64  H   -0.101817
    65  H   -0.118172
    66  H   -0.330798
 Sum of Mulliken charges =   0.00000

 Dipole moment (field-independent basis, Debye):
    X=             -6.4790    Y=              1.4084    Z=              0.4835  Tot=              6.6480
 Quadrupole moment (field-independent basis, Debye-Ang):
   XX=           -165.8329   YY=           -204.4530   ZZ=           -196.2222
   XY=             -7.4424   XZ=             19.3963   YZ=             -2.1178

 Normal termination of Gaussian 16 at Mon Nov  8 15:35:12 2021.
