 Gaussian 16, Revision C.01,
 Gaussian 16:  ES64L-G16RevC.01  3-Jul-2019

 ----------------------------------------------------------------------
 #P MP2/aug-cc-pVDZ SP SCF=(YQC,MaxCycle=900) int=(Grid=Superfinegrid)
 SCRF=(PCM,Solvent=Chloroform)
 ----------------------------------------------------------------------

 -----------------------------
 _2_alde1_3_ami4_1_opt_cfm_mp2
 -----------------------------
 Symbolic Z-matrix:
 Charge =  0 Multiplicity = 1

                         Standard orientation:
 ---------------------------------------------------------------------
 Center     Atomic      Atomic             Coordinates (Angstroms)
 Number     Number       Type             X           Y           Z
 ---------------------------------------------------------------------
      1          6           0       -2.430978   -0.720857    0.951586
      2          6           0       -2.021387   -2.110651    1.105871
      3          6           0       -3.707231   -0.392501    0.503963
      4          6           0       -4.053035    0.937912    0.273376
      5          1           0       -4.429678   -1.174936    0.329484
      6          6           0       -3.107225    1.941983    0.460929
      7          6           0       -1.826364    1.626495    0.907580
      8          1           0       -3.343003    2.975812    0.258569
      9          6           0       -1.504164    0.296650    1.172007
     10          6           0       -0.798248    2.652218    1.016758
     11          1           0       -0.509945    0.046892    1.517496
     12          6           0       -5.408567    1.274168   -0.190315
     13          1           0        0.137659    2.341434    1.503944
     14          1           0       -1.048003   -2.271754    1.592775
     15          6           0        0.489745   -1.500032   -1.138346
     16          6           0       -0.535748   -2.524910   -1.260294
     17          6           0        0.174091   -0.175644   -1.425916
     18          6           0        1.100764    0.836802   -1.190846
     19          1           0       -0.810073    0.072558   -1.800080
     20          6           0        2.365962    0.506260   -0.709080
     21          6           0        2.701493   -0.815018   -0.450673
     22          1           0        3.085075    1.293933   -0.548731
     23          6           0        1.759405   -1.810941   -0.650058
     24          6           0        4.067750   -1.136947    0.093247
     25          1           0        1.982453   -2.842460   -0.425815
     26          6           0        0.701188    2.225937   -1.354841
     27          1           0       -0.260670    2.390288   -1.864653
     28          6           0       -1.493657   -4.569483   -0.737746
     29          6           0       -2.186346   -4.374913    0.640629
     30          7           0       -0.378541   -3.686275   -0.783508
     31          1           0       -2.235447   -4.371300   -1.525297
     32          7           0       -2.728372   -3.060074    0.662099
     33          1           0       -1.437430   -4.546956    1.427551
     34          8           0       -6.289659    0.482368   -0.400320
     35          6           0        0.142842    4.701732    0.483220
     36          6           0        0.844476    4.491828   -0.887772
     37          7           0       -0.966095    3.810985    0.538851
     38          1           0       -0.227027    5.727012    0.534696
     39          7           0        1.393121    3.178476   -0.891853
     40          1           0        1.657751    5.214042   -0.976807
     41          6           0        5.635005   -0.663473    1.686534
     42          6           0        6.207296   -0.167828    0.338413
     43          7           0        4.196302   -0.753488    1.488767
     44          1           0        5.876763   -0.009909    2.522313
     45          7           0        5.108920   -0.369136   -0.602476
     46          1           0        7.115928   -0.713904    0.066087
     47          1           0       -1.467143   -2.212552   -1.756770
     48          1           0        4.243762   -2.227421    0.036998
     49          1           0        5.396962   -0.807017   -1.466994
     50          1           0       -5.567019    2.361190   -0.339742
     51          1           0       -1.132525   -5.597057   -0.804465
     52          1           0       -3.003112   -5.093286    0.726135
     53          1           0        0.881800    4.519740    1.277082
     54          1           0        0.101083    4.652535   -1.682922
     55          1           0        6.005336   -1.669217    1.907112
     56          1           0        6.445251    0.900875    0.376124
     57          1           0        3.778775    0.166364    1.605953
 ---------------------------------------------------------------------

 SCF Done:  E(RHF) =  -1325.62170566     a.u. after    6 cycles
 SCF Done:  E(RHF) =  -1325.62182978     A.U. after   13 cycles
 E2 =    -0.4529694265D+01 EUMP2 =    -0.13301515240439D+04

 The electronic state is 1-A.
 Alpha  occ. eigenvalues --  -20.57436 -15.56606 -15.56454 -15.56285 -15.56174
 Alpha  occ. eigenvalues --  -15.55860 -15.54807 -11.34911 -11.29389 -11.29302
 Alpha  occ. eigenvalues --  -11.29186 -11.29024 -11.28938 -11.27124 -11.26952
 Alpha  occ. eigenvalues --  -11.26519 -11.26084 -11.26016 -11.26001 -11.25951
 Alpha  occ. eigenvalues --  -11.25935 -11.25920 -11.25858 -11.25559 -11.25463
 Alpha  occ. eigenvalues --  -11.25129 -11.25114 -11.25097 -11.24890 -11.24768
 Alpha  occ. eigenvalues --  -11.24625  -1.41172  -1.28175  -1.27160  -1.26945
 Alpha  occ. eigenvalues --   -1.23814  -1.23321  -1.18629  -1.17117  -1.14410
 Alpha  occ. eigenvalues --   -1.08235  -1.07692  -1.06567  -1.05604  -1.01601
 Alpha  occ. eigenvalues --   -0.99204  -0.98517  -0.92193  -0.91735  -0.90574
 Alpha  occ. eigenvalues --   -0.89133  -0.86791  -0.84281  -0.83569  -0.82395
 Alpha  occ. eigenvalues --   -0.79653  -0.78766  -0.78381  -0.75625  -0.74664
 Alpha  occ. eigenvalues --   -0.71963  -0.71191  -0.69843  -0.69653  -0.68390
 Alpha  occ. eigenvalues --   -0.67931  -0.67482  -0.66744  -0.65770  -0.64962
 Alpha  occ. eigenvalues --   -0.64170  -0.63018  -0.62691  -0.62451  -0.61253
 Alpha  occ. eigenvalues --   -0.60992  -0.60796  -0.59967  -0.59301  -0.58335
 Alpha  occ. eigenvalues --   -0.57008  -0.55944  -0.55160  -0.55040  -0.54536
 Alpha  occ. eigenvalues --   -0.54185  -0.53883  -0.53264  -0.52832  -0.52444
 Alpha  occ. eigenvalues --   -0.51532  -0.51076  -0.50122  -0.49291  -0.48818
 Alpha  occ. eigenvalues --   -0.46130  -0.45785  -0.43689  -0.43108  -0.41844
 Alpha  occ. eigenvalues --   -0.41375  -0.41118  -0.40470  -0.40146  -0.39615
 Alpha  occ. eigenvalues --   -0.37261  -0.35619  -0.33212  -0.33065  -0.32062
 Alpha virt. eigenvalues --    0.03364   0.03692   0.03810   0.04266   0.04541
 Alpha virt. eigenvalues --    0.04674   0.04862   0.05160   0.05322   0.05419
 Alpha virt. eigenvalues --    0.05735   0.05922   0.06129   0.06474   0.06715

 Mulliken charges:
               1
     1  C    0.149159
     2  C    1.183992
     3  C    0.343737
     4  C    0.091900
     5  H   -0.810969
     6  C    0.756642
     7  C    0.166517
     8  H   -0.774212
     9  C    1.096206
    10  C    1.178478
    11  H   -0.972486
    12  C    1.280065
    13  H   -0.607156
    14  H   -0.624558
    15  C    1.068429
    16  C    0.659124
    17  C    0.851095
    18  C    1.148059
    19  H   -0.972932
    20  C   -0.062394
    21  C    0.755943
    22  H   -0.960211
    23  C    0.297180
    24  C    0.971230
    25  H   -0.819082
    26  C    0.510925
    27  H   -0.621284
    28  C    0.622809
    29  C    0.667540
    30  N   -0.767104
    31  H   -0.138028
    32  N   -0.828928
    33  H   -0.131986
    34  O   -0.855894
    35  C    0.617574
    36  C    0.639695
    37  N   -0.875364
    38  H   -0.316352
    39  N   -0.675725
    40  H   -0.319803
    41  C    0.680618
    42  C    0.680282
    43  N   -0.585785
    44  H   -0.228943
    45  N   -0.535951
    46  H   -0.190048
    47  H   -0.632939
    48  H   -0.365617
    49  H   -0.039541
    50  H   -0.295332
    51  H   -0.322895
    52  H   -0.320317
    53  H   -0.145836
    54  H   -0.138859
    55  H   -0.267008
    56  H   -0.269272
    57  H    0.055613
 Sum of Mulliken charges =   0.00000

 Dipole moment (field-independent basis, Debye):
    X=              5.8248    Y=              1.4714    Z=              0.4306  Tot=              6.0232
 Quadrupole moment (field-independent basis, Debye-Ang):
   XX=           -206.1997   YY=           -174.0581   ZZ=           -183.3757
   XY=             -8.1251   XZ=              2.1382   YZ=              2.1123

 Normal termination of Gaussian 16 at Mon Nov 15 14:52:51 2021.
