 Gaussian 16, Revision C.01,
 Gaussian 16:  ES64L-G16RevC.01  3-Jul-2019

 ----------------------------------------------------------------------
 #P MP2/aug-cc-pVDZ SP SCF=(YQC,MaxCycle=900) int=(Grid=Superfinegrid)
 SCRF=(PCM,Solvent=Dichloromethane)
 ----------------------------------------------------------------------

 -----------------------------
 _2_alde1_4_ami2_2_opt_dcm_mp2
 -----------------------------
 Symbolic Z-matrix:
 Charge =  0 Multiplicity = 1

                         Standard orientation:
 ---------------------------------------------------------------------
 Center     Atomic      Atomic             Coordinates (Angstroms)
 Number     Number       Type             X           Y           Z
 ---------------------------------------------------------------------
      1          6           0       -2.436857   -1.447134   -1.149762
      2          6           0       -1.973667   -1.793561   -2.486512
      3          6           0       -3.241430   -0.333160   -0.943384
      4          6           0       -3.608179    0.049707    0.347892
      5          1           0       -3.602408    0.252354   -1.775207
      6          6           0       -3.119935   -0.664627    1.436931
      7          6           0       -2.311421   -1.783813    1.244715
      8          1           0       -3.352684   -0.365675    2.447687
      9          6           0       -2.002881   -2.184914   -0.049654
     10          6           0       -1.710595   -2.488837    2.365688
     11          1           0       -1.391223   -3.054571   -0.229024
     12          6           0       -4.476987    1.197937    0.561527
     13          1           0       -1.182431   -3.418833    2.107648
     14          1           0       -2.104582   -1.012519   -3.251661
     15          6           0        1.685618   -1.695475   -0.818341
     16          6           0        1.224038   -2.758695   -1.701743
     17          6           0        1.425004   -1.779670    0.544353
     18          6           0        1.746549   -0.727495    1.400553
     19          1           0        0.942903   -2.647378    0.965797
     20          6           0        2.384232    0.394040    0.884865
     21          6           0        2.694538    0.474600   -0.473636
     22          1           0        2.652021    1.224870    1.520265
     23          6           0        2.324209   -0.563219   -1.321635
     24          6           0        3.388590    1.639025   -1.003459
     25          1           0        2.518768   -0.514110   -2.382329
     26          6           0        1.351099   -0.767523    2.805106
     27          1           0        3.557918    1.639114   -2.093157
     28          1           0        1.436253    0.193452    3.326495
     29          6           0        0.632425   -3.602517   -3.828991
     30          6           0       -0.841135   -3.136927   -4.019446
     31          7           0        1.243019   -2.630762   -2.956392
     32          7           0       -1.418977   -2.897408   -2.738713
     33          6           0       -5.787223    2.990785   -0.159228
     34          6           0       -5.144582    4.268688   -0.776025
     35          7           0       -4.953459    1.862418   -0.399377
     36          7           0       -4.817845    4.089847   -2.179849
     37          6           0       -0.934285   -2.700291    4.527972
     38          6           0        0.406091   -1.918967    4.673160
     39          7           0       -1.733896   -2.041421    3.546004
     40          7           0        0.918597   -1.826397    3.331935
     41          6           0        6.000433    3.570989   -0.344758
     42          6           0        4.509665    3.670921   -0.795642
     43          7           0        6.636368    2.357194   -0.824692
     44          7           0        3.767323    2.585209   -0.258227
     45          1           0       -4.189962    3.299228   -2.279103
     46          1           0       -5.656417    3.882761   -2.712107
     47          1           0        6.171827    1.539685   -0.443912
     48          1           0        6.593460    2.303584   -1.836781
     49          1           0       -5.988400    3.154986    0.912713
     50          1           0       -6.737542    2.806195   -0.672809
     51          1           0       -1.391913   -3.947506   -4.505160
     52          1           0       -0.868176   -2.244827   -4.665212
     53          1           0        4.475863    3.701921   -1.899779
     54          1           0        4.088073    4.596065   -0.395963
     55          6           0        6.074141    3.572351    1.181598
     56          1           0        5.713781    4.516679    1.579456
     57          1           0        7.103959    3.422115    1.493500
     58          1           0        5.461216    2.768994    1.581180
     59          6           0        6.767772    4.763051   -0.917800
     60          1           0        7.813245    4.685530   -0.633012
     61          1           0        6.364085    5.697862   -0.538768
     62          1           0        6.707295    4.773014   -2.004268
     63          6           0       -3.850923    4.599927   -0.029442
     64          1           0       -3.380679    5.464142   -0.489621
     65          1           0       -3.160015    3.761043   -0.081319
     66          1           0       -4.056357    4.820421    1.015000
     67          6           0       -6.133119    5.429001   -0.654548
     68          1           0       -7.059344    5.200187   -1.177505
     69          1           0       -5.697923    6.319230   -1.099723
     70          1           0       -6.363746    5.630445    0.388267
     71          6           0        0.141254   -0.589628    5.385795
     72          1           0       -0.562577    0.005635    4.808937
     73          1           0        1.064430   -0.030101    5.523535
     74          1           0       -0.286771   -0.783949    6.365491
     75          1           0       -1.462958   -2.687646    5.482886
     76          1           0       -0.698486   -3.736910    4.243002
     77          6           0        1.393097   -2.767347    5.483227
     78          1           0        2.315893   -2.212484    5.637891
     79          1           0        1.627883   -3.682460    4.945647
     80          1           0        0.966127   -3.020793    6.450120
     81          6           0        0.633501   -5.045316   -3.308955
     82          1           0        1.623023   -5.312592   -2.942422
     83          1           0        0.367338   -5.721463   -4.117481
     84          1           0       -0.092714   -5.165127   -2.509693
     85          6           0        1.366489   -3.521269   -5.169568
     86          1           0        1.447089   -2.483785   -5.482175
     87          1           0        0.836232   -4.084933   -5.933157
     88          1           0        2.369621   -3.927012   -5.063224
     89          1           0       -4.701338    1.439351    1.612248
     90          1           0        0.829280   -3.638764   -1.183137
 ---------------------------------------------------------------------

 SCF Done:  E(RHF) =  -1751.21162652     a.u. after    7 cycles
 SCF Done:  E(RHF) =  -1751.21169693     A.U. after   12 cycles
 E2 =    -0.6206666849D+01 EUMP2 =    -0.17574183637815D+04

 The electronic state is 1-A.
 Alpha  occ. eigenvalues --  -15.56364 -15.56340 -15.56184 -15.55960 -15.55884
 Alpha  occ. eigenvalues --  -15.55498 -15.54347 -15.54076 -11.28861 -11.28826
 Alpha  occ. eigenvalues --  -11.28812 -11.28571 -11.28536 -11.28411 -11.26886
 Alpha  occ. eigenvalues --  -11.26635 -11.26250 -11.26195 -11.25588 -11.25537
 Alpha  occ. eigenvalues --  -11.25497 -11.25474 -11.25313 -11.25277 -11.25264
 Alpha  occ. eigenvalues --  -11.25247 -11.25246 -11.25180 -11.25170 -11.25098
 Alpha  occ. eigenvalues --  -11.25057 -11.25036 -11.24985 -11.24963 -11.21792
 Alpha  occ. eigenvalues --  -11.21474 -11.21457 -11.21369 -11.21363 -11.21336
 Alpha  occ. eigenvalues --  -11.21060 -11.20850  -1.26690  -1.26476  -1.25453
 Alpha  occ. eigenvalues --   -1.25410  -1.23555  -1.23089  -1.19335  -1.19260
 Alpha  occ. eigenvalues --   -1.17515  -1.16758  -1.09414  -1.08177  -1.06271
 Alpha  occ. eigenvalues --   -1.05790  -1.04803  -1.02836  -1.02489  -1.02437
 Alpha  occ. eigenvalues --   -0.95389  -0.94801  -0.94687  -0.94477  -0.94048
 Alpha  occ. eigenvalues --   -0.93924  -0.93585  -0.93544  -0.89758  -0.88957
 Alpha  occ. eigenvalues --   -0.86876  -0.86808  -0.85258  -0.82757  -0.80259
 Alpha  occ. eigenvalues --   -0.77854  -0.76060  -0.75580  -0.75066  -0.74446
 Alpha  occ. eigenvalues --   -0.73291  -0.71994  -0.71125  -0.70875  -0.69316
 Alpha  occ. eigenvalues --   -0.67672  -0.66890  -0.66710  -0.66574  -0.66106
 Alpha  occ. eigenvalues --   -0.65729  -0.64871  -0.64523  -0.64298  -0.63493
 Alpha  occ. eigenvalues --   -0.63263  -0.62615  -0.62253  -0.62165  -0.61904
 Alpha  occ. eigenvalues --   -0.61521  -0.60954  -0.60454  -0.60089  -0.59914
 Alpha  occ. eigenvalues --   -0.59401  -0.57292  -0.56680  -0.56017  -0.55638
 Alpha  occ. eigenvalues --   -0.55401  -0.54925  -0.54536  -0.54334  -0.53820
 Alpha  occ. eigenvalues --   -0.53571  -0.53425  -0.53151  -0.52991  -0.52833
 Alpha  occ. eigenvalues --   -0.52743  -0.52708  -0.52272  -0.51729  -0.51391
 Alpha  occ. eigenvalues --   -0.51062  -0.50839  -0.50432  -0.49850  -0.49341
 Alpha  occ. eigenvalues --   -0.49168  -0.48523  -0.48202  -0.47695  -0.46969
 Alpha  occ. eigenvalues --   -0.46791  -0.45527  -0.45451  -0.45062  -0.44224
 Alpha  occ. eigenvalues --   -0.41255  -0.40842  -0.40620  -0.40447  -0.40375
 Alpha  occ. eigenvalues --   -0.40211  -0.39462  -0.39267  -0.38252  -0.38068
 Alpha  occ. eigenvalues --   -0.32919  -0.32663  -0.32364  -0.31845
 Alpha virt. eigenvalues --    0.03229   0.03608   0.03631   0.03865   0.04336
 Alpha virt. eigenvalues --    0.04412   0.04425   0.04465   0.04603   0.05033
 Alpha virt. eigenvalues --    0.05451   0.05506   0.05590   0.05610   0.05655

 Mulliken charges:
               1
     1  C    0.937209
     2  C    0.552416
     3  C    0.110312
     4  C    0.676287
     5  H   -0.849586
     6  C    0.684157
     7  C    0.890623
     8  H   -0.936882
     9  C    0.416400
    10  C    0.753554
    11  H   -0.984755
    12  C    0.627583
    13  H   -0.634149
    14  H   -0.715077
    15  C    1.377160
    16  C    0.424061
    17  C    0.209216
    18  C    0.710370
    19  H   -1.115511
    20  C    0.087581
    21  C    0.934225
    22  H   -0.887868
    23  C    0.388188
    24  C    0.807887
    25  H   -0.922848
    26  C    0.415531
    27  H   -0.700081
    28  H   -0.911127
    29  C   -3.518698
    30  C    1.389498
    31  N   -0.405311
    32  N   -0.491793
    33  C    1.653251
    34  C   -3.672105
    35  N   -0.477351
    36  N   -0.055714
    37  C    1.245965
    38  C   -3.204068
    39  N   -0.723703
    40  N    0.068525
    41  C   -3.642492
    42  C    1.619773
    43  N   -0.090587
    44  N   -0.491787
    45  H    0.026007
    46  H   -0.003300
    47  H    0.029254
    48  H   -0.003533
    49  H   -0.142561
    50  H   -0.257425
    51  H   -0.198704
    52  H   -0.153871
    53  H   -0.175133
    54  H   -0.222203
    55  C    1.427196
    56  H   -0.005294
    57  H    0.013745
    58  H   -0.041232
    59  C    1.455307
    60  H    0.048452
    61  H    0.020738
    62  H   -0.051795
    63  C    1.466555
    64  H   -0.045521
    65  H   -0.026513
    66  H    0.002437
    67  C    1.449265
    68  H   -0.045078
    69  H    0.041694
    70  H    0.011607
    71  C    1.540640
    72  H    0.065551
    73  H    0.044206
    74  H   -0.174424
    75  H   -0.279017
    76  H   -0.123030
    77  C    1.455189
    78  H   -0.067280
    79  H   -0.069426
    80  H    0.014365
    81  C    1.478976
    82  H    0.029010
    83  H   -0.137534
    84  H    0.058373
    85  C    1.509890
    86  H   -0.037770
    87  H    0.000003
    88  H   -0.026057
    89  H   -0.676884
    90  H   -0.773154
 Sum of Mulliken charges =   0.00000

 Dipole moment (field-independent basis, Debye):
    X=             -2.0611    Y=             -1.0783    Z=              0.3144  Tot=              2.3473
 Quadrupole moment (field-independent basis, Debye-Ang):
   XX=           -274.6167   YY=           -258.2033   ZZ=           -240.2913
   XY=             -2.6622   XZ=             -7.4814   YZ=              6.3136

 Normal termination of Gaussian 16 at Tue Oct 26 04:29:26 2021.
