 Gaussian 16, Revision C.01,
 Gaussian 16:  ES64L-G16RevC.01  3-Jul-2019

 ----------------------------------------------------------------------
 #P PBE1PBE/Def2TZVP SP SCF=(YQC,MaxCycle=900) int=(Grid=Superfinegrid)
  EmpiricalDispersion=GD3
 ----------------------------------------------------------------------

 -------------------------
 _2_alde1_3_ami4_1_opt_gas
 -------------------------
 Symbolic Z-matrix:
 Charge =  0 Multiplicity = 1

                         Standard orientation:
 ---------------------------------------------------------------------
 Center     Atomic      Atomic             Coordinates (Angstroms)
 Number     Number       Type             X           Y           Z
 ---------------------------------------------------------------------
      1          6           0       -2.430978   -0.720857    0.951586
      2          6           0       -2.021387   -2.110651    1.105871
      3          6           0       -3.707231   -0.392501    0.503963
      4          6           0       -4.053035    0.937912    0.273376
      5          1           0       -4.429678   -1.174936    0.329484
      6          6           0       -3.107225    1.941983    0.460929
      7          6           0       -1.826364    1.626495    0.907580
      8          1           0       -3.343003    2.975812    0.258569
      9          6           0       -1.504164    0.296650    1.172007
     10          6           0       -0.798248    2.652218    1.016758
     11          1           0       -0.509945    0.046892    1.517496
     12          6           0       -5.408567    1.274168   -0.190315
     13          1           0        0.137659    2.341434    1.503944
     14          1           0       -1.048003   -2.271754    1.592775
     15          6           0        0.489745   -1.500032   -1.138346
     16          6           0       -0.535748   -2.524910   -1.260294
     17          6           0        0.174091   -0.175644   -1.425916
     18          6           0        1.100764    0.836802   -1.190846
     19          1           0       -0.810073    0.072558   -1.800080
     20          6           0        2.365962    0.506260   -0.709080
     21          6           0        2.701493   -0.815018   -0.450673
     22          1           0        3.085075    1.293933   -0.548731
     23          6           0        1.759405   -1.810941   -0.650058
     24          6           0        4.067750   -1.136947    0.093247
     25          1           0        1.982453   -2.842460   -0.425815
     26          6           0        0.701188    2.225937   -1.354841
     27          1           0       -0.260670    2.390288   -1.864653
     28          6           0       -1.493657   -4.569483   -0.737746
     29          6           0       -2.186346   -4.374913    0.640629
     30          7           0       -0.378541   -3.686275   -0.783508
     31          1           0       -2.235447   -4.371300   -1.525297
     32          7           0       -2.728372   -3.060074    0.662099
     33          1           0       -1.437430   -4.546956    1.427551
     34          8           0       -6.289659    0.482368   -0.400320
     35          6           0        0.142842    4.701732    0.483220
     36          6           0        0.844476    4.491828   -0.887772
     37          7           0       -0.966095    3.810985    0.538851
     38          1           0       -0.227027    5.727012    0.534696
     39          7           0        1.393121    3.178476   -0.891853
     40          1           0        1.657751    5.214042   -0.976807
     41          6           0        5.635005   -0.663473    1.686534
     42          6           0        6.207296   -0.167828    0.338413
     43          7           0        4.196302   -0.753488    1.488767
     44          1           0        5.876763   -0.009909    2.522313
     45          7           0        5.108920   -0.369136   -0.602476
     46          1           0        7.115928   -0.713904    0.066087
     47          1           0       -1.467143   -2.212552   -1.756770
     48          1           0        4.243762   -2.227421    0.036998
     49          1           0        5.396962   -0.807017   -1.466994
     50          1           0       -5.567019    2.361190   -0.339742
     51          1           0       -1.132525   -5.597057   -0.804465
     52          1           0       -3.003112   -5.093286    0.726135
     53          1           0        0.881800    4.519740    1.277082
     54          1           0        0.101083    4.652535   -1.682922
     55          1           0        6.005336   -1.669217    1.907112
     56          1           0        6.445251    0.900875    0.376124
     57          1           0        3.778775    0.166364    1.605953
 ---------------------------------------------------------------------

 SCF Done:  E(RPBE1PBE) =  -1332.82730713     a.u. after    7 cycles
 SCF Done:  E(RPBE1PBE) =  -1332.82731364     A.U. after    9 cycles

 The electronic state is 1-A.
 Alpha  occ. eigenvalues --  -19.20478 -14.38372 -14.38086 -14.37981 -14.37847
 Alpha  occ. eigenvalues --  -14.37820 -14.37114 -10.31072 -10.28288 -10.27479
 Alpha  occ. eigenvalues --  -10.27178 -10.27087 -10.26936 -10.25698 -10.25608
 Alpha  occ. eigenvalues --  -10.25454 -10.25398 -10.25367 -10.25301 -10.25169
 Alpha  occ. eigenvalues --  -10.25086 -10.24961 -10.24889 -10.24613 -10.24561
 Alpha  occ. eigenvalues --  -10.24387 -10.24366 -10.24269 -10.24152 -10.23551
 Alpha  occ. eigenvalues --  -10.23378  -1.08172  -0.99755  -0.98448  -0.98202
 Alpha  occ. eigenvalues --   -0.95385  -0.94966  -0.91129  -0.89939  -0.88093
 Alpha  occ. eigenvalues --   -0.83015  -0.82278  -0.81439  -0.80573  -0.78001
 Alpha  occ. eigenvalues --   -0.75680  -0.75305  -0.70247  -0.70125  -0.68647
 Alpha  occ. eigenvalues --   -0.67831  -0.66112  -0.64181  -0.63648  -0.63051
 Alpha  occ. eigenvalues --   -0.60499  -0.59596  -0.58937  -0.57043  -0.56222
 Alpha  occ. eigenvalues --   -0.54770  -0.53949  -0.53515  -0.53094  -0.51952
 Alpha  occ. eigenvalues --   -0.51498  -0.50943  -0.50495  -0.49460  -0.48191
 Alpha  occ. eigenvalues --   -0.47953  -0.47378  -0.47314  -0.46926  -0.46541
 Alpha  occ. eigenvalues --   -0.46154  -0.45488  -0.44744  -0.44356  -0.44154
 Alpha  occ. eigenvalues --   -0.43735  -0.42386  -0.41404  -0.41061  -0.40601
 Alpha  occ. eigenvalues --   -0.40524  -0.40266  -0.40145  -0.39824  -0.39272
 Alpha  occ. eigenvalues --   -0.38266  -0.37440  -0.36983  -0.36550  -0.35883
 Alpha  occ. eigenvalues --   -0.35750  -0.35355  -0.32939  -0.32293  -0.28471
 Alpha  occ. eigenvalues --   -0.28130  -0.27738  -0.27575  -0.27314  -0.27160
 Alpha  occ. eigenvalues --   -0.26712  -0.26471  -0.26200  -0.25440  -0.24129
 Alpha virt. eigenvalues --   -0.07465  -0.06966  -0.06436  -0.03841  -0.02699
 Alpha virt. eigenvalues --    0.00181   0.03173   0.04170   0.04468   0.05088
 Alpha virt. eigenvalues --    0.05615   0.05737   0.06043   0.06920   0.07221

 Mulliken charges:
               1
     1  C    0.338475
     2  C   -0.144859
     3  C   -0.383505
     4  C    0.319444
     5  H    0.149392
     6  C   -0.345504
     7  C    0.288928
     8  H    0.131915
     9  C   -0.272216
    10  C   -0.136061
    11  H    0.135704
    12  C    0.050634
    13  H    0.087262
    14  H    0.094265
    15  C    0.299490
    16  C   -0.151424
    17  C   -0.287452
    18  C    0.309046
    19  H    0.124120
    20  C   -0.365103
    21  C    0.417338
    22  H    0.132046
    23  C   -0.399808
    24  C   -0.162461
    25  H    0.120364
    26  C   -0.151981
    27  H    0.084944
    28  C   -0.087834
    29  C   -0.083659
    30  N   -0.189917
    31  H    0.087427
    32  N   -0.183922
    33  H    0.085682
    34  O   -0.271734
    35  C   -0.083578
    36  C   -0.086662
    37  N   -0.192088
    38  H    0.121721
    39  N   -0.190488
    40  H    0.121671
    41  C   -0.153997
    42  C   -0.105615
    43  N   -0.254965
    44  H    0.129122
    45  N   -0.278061
    46  H    0.098545
    47  H    0.089643
    48  H    0.080634
    49  H    0.195808
    50  H    0.075930
    51  H    0.120939
    52  H    0.123080
    53  H    0.084103
    54  H    0.084537
    55  H    0.093518
    56  H    0.089359
    57  H    0.197809
 Sum of Mulliken charges =   0.00000

 Dipole moment (field-independent basis, Debye):
    X=              4.7610    Y=              0.7326    Z=              0.3154  Tot=              4.8273
 Quadrupole moment (field-independent basis, Debye-Ang):
   XX=           -197.3375   YY=           -168.4764   ZZ=           -180.6169
   XY=             -3.4949   XZ=              1.1850   YZ=              2.0465

 Normal termination of Gaussian 16 at Mon Oct 18 14:48:30 2021.
