 Gaussian 16, Revision C.01,
 Gaussian 16:  ES64L-G16RevC.01  3-Jul-2019

 ----------------------------------------------------------------------
 #P PBE1PBE/Def2TZVP SP SCF=(YQC,MaxCycle=900) int=(Grid=Superfinegrid)
  EmpiricalDispersion=GD3 SCRF=(PCM,Solvent=Chloroform)
 ----------------------------------------------------------------------

 -------------------------
 _2_alde1_3_ami4_1_opt_cfm
 -------------------------
 Symbolic Z-matrix:
 Charge =  0 Multiplicity = 1

                         Standard orientation:
 ---------------------------------------------------------------------
 Center     Atomic      Atomic             Coordinates (Angstroms)
 Number     Number       Type             X           Y           Z
 ---------------------------------------------------------------------
      1          6           0       -2.430978   -0.720857    0.951586
      2          6           0       -2.021387   -2.110651    1.105871
      3          6           0       -3.707231   -0.392501    0.503963
      4          6           0       -4.053035    0.937912    0.273376
      5          1           0       -4.429678   -1.174936    0.329484
      6          6           0       -3.107225    1.941983    0.460929
      7          6           0       -1.826364    1.626495    0.907580
      8          1           0       -3.343003    2.975812    0.258569
      9          6           0       -1.504164    0.296650    1.172007
     10          6           0       -0.798248    2.652218    1.016758
     11          1           0       -0.509945    0.046892    1.517496
     12          6           0       -5.408567    1.274168   -0.190315
     13          1           0        0.137659    2.341434    1.503944
     14          1           0       -1.048003   -2.271754    1.592775
     15          6           0        0.489745   -1.500032   -1.138346
     16          6           0       -0.535748   -2.524910   -1.260294
     17          6           0        0.174091   -0.175644   -1.425916
     18          6           0        1.100764    0.836802   -1.190846
     19          1           0       -0.810073    0.072558   -1.800080
     20          6           0        2.365962    0.506260   -0.709080
     21          6           0        2.701493   -0.815018   -0.450673
     22          1           0        3.085075    1.293933   -0.548731
     23          6           0        1.759405   -1.810941   -0.650058
     24          6           0        4.067750   -1.136947    0.093247
     25          1           0        1.982453   -2.842460   -0.425815
     26          6           0        0.701188    2.225937   -1.354841
     27          1           0       -0.260670    2.390288   -1.864653
     28          6           0       -1.493657   -4.569483   -0.737746
     29          6           0       -2.186346   -4.374913    0.640629
     30          7           0       -0.378541   -3.686275   -0.783508
     31          1           0       -2.235447   -4.371300   -1.525297
     32          7           0       -2.728372   -3.060074    0.662099
     33          1           0       -1.437430   -4.546956    1.427551
     34          8           0       -6.289659    0.482368   -0.400320
     35          6           0        0.142842    4.701732    0.483220
     36          6           0        0.844476    4.491828   -0.887772
     37          7           0       -0.966095    3.810985    0.538851
     38          1           0       -0.227027    5.727012    0.534696
     39          7           0        1.393121    3.178476   -0.891853
     40          1           0        1.657751    5.214042   -0.976807
     41          6           0        5.635005   -0.663473    1.686534
     42          6           0        6.207296   -0.167828    0.338413
     43          7           0        4.196302   -0.753488    1.488767
     44          1           0        5.876763   -0.009909    2.522313
     45          7           0        5.108920   -0.369136   -0.602476
     46          1           0        7.115928   -0.713904    0.066087
     47          1           0       -1.467143   -2.212552   -1.756770
     48          1           0        4.243762   -2.227421    0.036998
     49          1           0        5.396962   -0.807017   -1.466994
     50          1           0       -5.567019    2.361190   -0.339742
     51          1           0       -1.132525   -5.597057   -0.804465
     52          1           0       -3.003112   -5.093286    0.726135
     53          1           0        0.881800    4.519740    1.277082
     54          1           0        0.101083    4.652535   -1.682922
     55          1           0        6.005336   -1.669217    1.907112
     56          1           0        6.445251    0.900875    0.376124
     57          1           0        3.778775    0.166364    1.605953
 ---------------------------------------------------------------------

 SCF Done:  E(RPBE1PBE) =  -1332.83924055     a.u. after    6 cycles
 SCF Done:  E(RPBE1PBE) =  -1332.83925239     A.U. after   10 cycles

 The electronic state is 1-A.
 Alpha  occ. eigenvalues --  -19.21248 -14.38371 -14.38236 -14.38007 -14.37922
 Alpha  occ. eigenvalues --  -14.37689 -14.36734 -10.31712 -10.28015 -10.27397
 Alpha  occ. eigenvalues --  -10.27250 -10.27035 -10.26966 -10.25489 -10.25406
 Alpha  occ. eigenvalues --  -10.25354 -10.25339 -10.25290 -10.25271 -10.25231
 Alpha  occ. eigenvalues --  -10.25221 -10.25114 -10.24834 -10.24448 -10.24387
 Alpha  occ. eigenvalues --  -10.24377 -10.24211 -10.24147 -10.24063 -10.23576
 Alpha  occ. eigenvalues --  -10.23425  -1.09030  -0.99450  -0.98420  -0.98263
 Alpha  occ. eigenvalues --   -0.95411  -0.95031  -0.91236  -0.89961  -0.87757
 Alpha  occ. eigenvalues --   -0.83029  -0.82330  -0.81413  -0.80629  -0.77907
 Alpha  occ. eigenvalues --   -0.75643  -0.75012  -0.70245  -0.70164  -0.68842
 Alpha  occ. eigenvalues --   -0.67860  -0.65899  -0.64134  -0.63597  -0.62626
 Alpha  occ. eigenvalues --   -0.60354  -0.59529  -0.59096  -0.57011  -0.56207
 Alpha  occ. eigenvalues --   -0.54714  -0.53993  -0.53402  -0.52953  -0.51835
 Alpha  occ. eigenvalues --   -0.51283  -0.50936  -0.50505  -0.49535  -0.48223
 Alpha  occ. eigenvalues --   -0.48089  -0.47340  -0.47269  -0.47064  -0.46451
 Alpha  occ. eigenvalues --   -0.46344  -0.45536  -0.44676  -0.44453  -0.44153
 Alpha  occ. eigenvalues --   -0.43916  -0.42273  -0.41331  -0.40998  -0.40660
 Alpha  occ. eigenvalues --   -0.40393  -0.40308  -0.40033  -0.39687  -0.38966
 Alpha  occ. eigenvalues --   -0.38277  -0.37470  -0.36863  -0.36215  -0.35785
 Alpha  occ. eigenvalues --   -0.35661  -0.35381  -0.33110  -0.32310  -0.28628
 Alpha  occ. eigenvalues --   -0.28527  -0.27954  -0.27861  -0.27451  -0.27278
 Alpha  occ. eigenvalues --   -0.26788  -0.26468  -0.26305  -0.25476  -0.23851
 Alpha virt. eigenvalues --   -0.07705  -0.07163  -0.06508  -0.03863  -0.02778
 Alpha virt. eigenvalues --    0.00208   0.03797   0.04031   0.05142   0.05317
 Alpha virt. eigenvalues --    0.05728   0.06062   0.06451   0.07270   0.07577

 Mulliken charges:
               1
     1  C    0.339332
     2  C   -0.144104
     3  C   -0.383750
     4  C    0.304959
     5  H    0.135434
     6  C   -0.345360
     7  C    0.298813
     8  H    0.133817
     9  C   -0.275500
    10  C   -0.138692
    11  H    0.145917
    12  C    0.070261
    13  H    0.101338
    14  H    0.104840
    15  C    0.309999
    16  C   -0.151325
    17  C   -0.296719
    18  C    0.310154
    19  H    0.136481
    20  C   -0.373779
    21  C    0.398085
    22  H    0.123210
    23  C   -0.406397
    24  C   -0.137615
    25  H    0.119265
    26  C   -0.152839
    27  H    0.096986
    28  C   -0.091933
    29  C   -0.089074
    30  N   -0.205384
    31  H    0.094112
    32  N   -0.200723
    33  H    0.094114
    34  O   -0.314112
    35  C   -0.089612
    36  C   -0.091941
    37  N   -0.206568
    38  H    0.129513
    39  N   -0.206520
    40  H    0.129438
    41  C   -0.153312
    42  C   -0.110734
    43  N   -0.290026
    44  H    0.137802
    45  N   -0.310899
    46  H    0.106727
    47  H    0.099602
    48  H    0.092896
    49  H    0.211572
    50  H    0.094782
    51  H    0.128931
    52  H    0.129968
    53  H    0.093719
    54  H    0.092711
    55  H    0.099249
    56  H    0.090890
    57  H    0.212000
 Sum of Mulliken charges =   0.00000

 Dipole moment (field-independent basis, Debye):
    X=              5.5394    Y=              1.0994    Z=              0.4145  Tot=              5.6626
 Quadrupole moment (field-independent basis, Debye-Ang):
   XX=           -199.9644   YY=           -166.5559   ZZ=           -179.9506
   XY=             -4.7553   XZ=              1.4321   YZ=              2.2995

 Normal termination of Gaussian 16 at Mon Oct 18 20:21:39 2021.
