 Gaussian 16, Revision C.01,
 Gaussian 16:  ES64L-G16RevC.01  3-Jul-2019

 ----------------------------------------------------------------------
 #P PBE1PBE/Def2TZVP SP SCF=(YQC,MaxCycle=900) int=(Grid=Superfinegrid)
  EmpiricalDispersion=GD3 SCRF=(PCM,Solvent=Dichloromethane)
 ----------------------------------------------------------------------

 -------------------------
 _2_alde1_4_ami3_2_opt_dcm
 -------------------------
 Symbolic Z-matrix:
 Charge =  0 Multiplicity = 1

                         Standard orientation:
 ---------------------------------------------------------------------
 Center     Atomic      Atomic             Coordinates (Angstroms)
 Number     Number       Type             X           Y           Z
 ---------------------------------------------------------------------
      1          6           0        2.284012   -0.154844    1.711568
      2          6           0        1.801929   -1.037295    2.765853
      3          6           0        3.080855   -0.641537    0.682370
      4          6           0        3.463035    0.187897   -0.373296
      5          1           0        3.427048   -1.663959    0.680311
      6          6           0        2.995392    1.496891   -0.418378
      7          6           0        2.194541    1.997730    0.606903
      8          1           0        3.238003    2.146494   -1.245578
      9          6           0        1.872363    1.176514    1.681196
     10          6           0        1.620556    3.332347    0.540692
     11          1           0        1.265240    1.539540    2.495157
     12          6           0        4.329946   -0.314347   -1.430683
     13          1           0        1.120780    3.673869    1.459720
     14          1           0        1.858785   -2.114873    2.544484
     15          1           0        4.569714    0.400495   -2.232701
     16          6           0       -1.973166    0.433572    1.944117
     17          6           0       -1.430993    0.269539    3.283586
     18          6           0       -1.658628    1.580059    1.223826
     19          6           0       -2.035732    1.709988   -0.111701
     20          1           0       -1.082717    2.375579    1.669386
     21          6           0       -2.792267    0.705709   -0.702942
     22          6           0       -3.169909   -0.423289    0.025443
     23          1           0       -3.104210    0.779780   -1.733659
     24          6           0       -2.733975   -0.565047    1.338504
     25          6           0       -4.000364   -1.458119   -0.580503
     26          1           0       -2.971796   -1.448143    1.912013
     27          6           0       -1.558924    2.844496   -0.891679
     28          1           0       -4.199885   -2.322952    0.063259
     29          1           0       -1.577937    2.709479   -1.984761
     30          6           0       -0.696366   -0.929112    5.117753
     31          6           0        0.706348   -1.488837    4.776763
     32          7           0       -1.429610   -0.836566    3.891774
     33          7           0        1.304251   -0.594142    3.836008
     34          6           0        5.639584   -1.951121   -2.465568
     35          6           0        4.967679   -3.151015   -3.156955
     36          7           0        4.780496   -1.492275   -1.418262
     37          7           0        3.769981   -2.678786   -3.838125
     38          6           0        0.867182    5.241785   -0.521304
     39          6           0       -0.510972    4.914168   -1.146411
     40          7           0        1.629988    4.030861   -0.510517
     41          7           0       -1.106543    3.888361   -0.348863
     42          6           0       -6.630297   -1.517378   -2.721970
     43          6           0       -5.298962   -2.262744   -2.411979
     44          7           0       -6.445333   -0.248824   -3.395635
     45          7           0       -4.438808   -1.328689   -1.756190
     46          1           0       -0.964289    1.168449    3.713568
     47          1           0        3.140430   -2.244680   -3.170899
     48          1           0        3.281024   -3.457196   -4.267217
     49          1           0       -5.829928    0.337634   -2.841696
     50          1           0       -5.993658   -0.397620   -4.292960
     51          6           0       -7.535950   -2.416080   -3.562660
     52          6           0        5.914036   -3.763371   -4.188796
     53          6           0       -1.370514    6.179862   -1.145172
     54          6           0       -1.388824   -1.858297    6.109641
     55          1           0        4.746025   -3.900057   -2.375021
     56          6           0        7.235452   -4.180268   -3.554375
     57          1           0        6.090670   -3.023217   -4.971092
     58          1           0        5.429138   -4.627081   -4.649733
     59          6           0        7.900105   -2.982030   -2.885954
     60          1           0        7.895336   -4.598276   -4.317211
     61          1           0        7.051908   -4.956020   -2.807074
     62          6           0        6.971280   -2.379241   -1.840010
     63          1           0        8.134648   -2.229047   -3.641688
     64          1           0        8.835666   -3.286980   -2.412689
     65          1           0        7.436943   -1.509644   -1.371201
     66          1           0        6.762780   -3.110425   -1.056749
     67          1           0        5.814154   -1.169969   -3.226885
     68          1           0       -7.119995   -1.300204   -1.764198
     69          6           0       -7.807866   -3.742553   -2.862858
     70          1           0       -7.054197   -2.601722   -4.526169
     71          1           0       -8.468949   -1.884231   -3.752957
     72          6           0       -6.497530   -4.461540   -2.558403
     73          1           0       -8.439761   -4.370423   -3.493946
     74          1           0       -8.344852   -3.557092   -1.929814
     75          6           0       -5.596584   -3.583484   -1.696363
     76          1           0       -5.986338   -4.699572   -3.494550
     77          1           0       -6.699113   -5.401496   -2.040038
     78          1           0       -4.813983   -2.476072   -3.376431
     79          1           0       -4.659098   -4.104604   -1.483962
     80          1           0       -6.098630   -3.376926   -0.747634
     81          1           0       -0.356162    4.579381   -2.187897
     82          6           0       -0.686282    7.282182   -1.947038
     83          1           0       -1.524906    6.500118   -0.113358
     84          1           0       -2.347276    5.947004   -1.575354
     85          6           0        0.699110    7.585269   -1.382754
     86          1           0       -1.301419    8.184081   -1.927592
     87          1           0       -0.590892    6.963816   -2.987875
     88          6           0        1.556509    6.324269   -1.345841
     89          1           0        0.678038    5.606696    0.503704
     90          1           0        1.719685    5.945171   -2.355986
     91          1           0        2.532172    6.541056   -0.906808
     92          1           0        0.597464    7.981604   -0.369711
     93          1           0        1.189292    8.346914   -1.992432
     94          1           0       -0.544945    0.066422    5.571061
     95          6           0       -0.561998   -1.977393    7.385978
     96          1           0       -1.513989   -2.837526    5.644580
     97          1           0       -2.381513   -1.464396    6.335659
     98          6           0        0.845844   -2.478180    7.074927
     99          1           0       -1.053411   -2.660567    8.081455
    100          1           0       -0.498906   -0.998244    7.866787
    101          6           0        1.534127   -1.570149    6.060979
    102          1           0        0.787825   -3.491222    6.669813
    103          1           0        1.437587   -2.517395    7.991712
    104          1           0        2.528103   -1.953761    5.819805
    105          1           0        1.651312   -0.564653    6.468866
    106          1           0        0.589338   -2.502959    4.353846
 ---------------------------------------------------------------------

 SCF Done:  E(RPBE1PBE) =  -2070.56054027     a.u. after    7 cycles
 SCF Done:  E(RPBE1PBE) =  -2070.56054944     A.U. after    9 cycles

 The electronic state is 1-A.
 Alpha  occ. eigenvalues --  -14.37969 -14.37960 -14.37944 -14.37669 -14.37663
 Alpha  occ. eigenvalues --  -14.37654 -14.35813 -14.35396 -10.26854 -10.26828
 Alpha  occ. eigenvalues --  -10.26750 -10.26609 -10.26527 -10.26514 -10.25283
 Alpha  occ. eigenvalues --  -10.25264 -10.24973 -10.24966 -10.24702 -10.24671
 Alpha  occ. eigenvalues --  -10.24618 -10.24542 -10.24518 -10.24511 -10.24454
 Alpha  occ. eigenvalues --  -10.24448 -10.24398 -10.24392 -10.24026 -10.23998
 Alpha  occ. eigenvalues --  -10.23975 -10.23931 -10.23925 -10.23874 -10.21713
 Alpha  occ. eigenvalues --  -10.21693 -10.21434 -10.21411 -10.21383 -10.21353
 Alpha  occ. eigenvalues --  -10.21335 -10.21332 -10.21326 -10.21315 -10.21305
 Alpha  occ. eigenvalues --  -10.21168 -10.21162 -10.21104 -10.21068 -10.21027
 Alpha  occ. eigenvalues --   -0.98004  -0.97865  -0.96944  -0.96517  -0.95327
 Alpha  occ. eigenvalues --   -0.94988  -0.91389  -0.91262  -0.90216  -0.89622
 Alpha  occ. eigenvalues --   -0.85938  -0.85379  -0.84271  -0.84159  -0.81052
 Alpha  occ. eigenvalues --   -0.81034  -0.80904  -0.80869  -0.76857  -0.76631
 Alpha  occ. eigenvalues --   -0.76313  -0.75915  -0.75703  -0.75350  -0.74162
 Alpha  occ. eigenvalues --   -0.74078  -0.68762  -0.68347  -0.68034  -0.67439
 Alpha  occ. eigenvalues --   -0.67253  -0.66009  -0.63303  -0.62997  -0.62817
 Alpha  occ. eigenvalues --   -0.62385  -0.61885  -0.61648  -0.61114  -0.60472
 Alpha  occ. eigenvalues --   -0.58668  -0.58391  -0.58168  -0.57561  -0.56405
 Alpha  occ. eigenvalues --   -0.56210  -0.55943  -0.55262  -0.54045  -0.53440
 Alpha  occ. eigenvalues --   -0.52793  -0.52536  -0.51254  -0.51157  -0.50484
 Alpha  occ. eigenvalues --   -0.49803  -0.49691  -0.49572  -0.49299  -0.49152
 Alpha  occ. eigenvalues --   -0.48884  -0.48124  -0.47537  -0.47494  -0.47219
 Alpha  occ. eigenvalues --   -0.46723  -0.46467  -0.46218  -0.45914  -0.45539
 Alpha  occ. eigenvalues --   -0.45243  -0.45035  -0.44524  -0.44233  -0.44112
 Alpha  occ. eigenvalues --   -0.43784  -0.43707  -0.43245  -0.42442  -0.42214
 Alpha  occ. eigenvalues --   -0.42107  -0.42027  -0.41445  -0.41326  -0.41206
 Alpha  occ. eigenvalues --   -0.40154  -0.39965  -0.39815  -0.39520  -0.39393
 Alpha  occ. eigenvalues --   -0.38645  -0.38453  -0.37997  -0.37907  -0.37129
 Alpha  occ. eigenvalues --   -0.36793  -0.36667  -0.36291  -0.36078  -0.36053
 Alpha  occ. eigenvalues --   -0.35904  -0.35735  -0.35706  -0.35664  -0.35449
 Alpha  occ. eigenvalues --   -0.35183  -0.34030  -0.33860  -0.33821  -0.33732
 Alpha  occ. eigenvalues --   -0.33521  -0.33406  -0.33135  -0.32407  -0.32244
 Alpha  occ. eigenvalues --   -0.32168  -0.31749  -0.31367  -0.30188  -0.29458
 Alpha  occ. eigenvalues --   -0.27855  -0.27638  -0.27408  -0.27089  -0.27010
 Alpha  occ. eigenvalues --   -0.26400  -0.26091  -0.25919  -0.25798  -0.25582
 Alpha  occ. eigenvalues --   -0.25241  -0.24500
 Alpha virt. eigenvalues --   -0.06472  -0.06161  -0.05948  -0.05406  -0.02614
 Alpha virt. eigenvalues --   -0.01397   0.04474   0.04777   0.04840   0.04962
 Alpha virt. eigenvalues --    0.05022   0.05118   0.05172   0.05179   0.05314

 Mulliken charges:
               1
     1  C    0.323725
     2  C   -0.165463
     3  C   -0.365435
     4  C    0.370700
     5  H    0.124826
     6  C   -0.381797
     7  C    0.368181
     8  H    0.121969
     9  C   -0.299941
    10  C   -0.176030
    11  H    0.132894
    12  C   -0.173808
    13  H    0.103950
    14  H    0.089161
    15  H    0.096895
    16  C    0.356179
    17  C   -0.181850
    18  C   -0.288326
    19  C    0.324357
    20  H    0.132285
    21  C   -0.363530
    22  C    0.351472
    23  H    0.130314
    24  C   -0.377312
    25  C   -0.156726
    26  H    0.121690
    27  C   -0.174513
    28  H    0.104335
    29  H    0.089170
    30  C    0.050390
    31  C    0.009766
    32  N   -0.207244
    33  N   -0.195172
    34  C    0.056289
    35  C    0.039514
    36  N   -0.216580
    37  N   -0.561496
    38  C    0.050065
    39  C    0.009702
    40  N   -0.206404
    41  N   -0.195183
    42  C    0.005714
    43  C   -0.042000
    44  N   -0.530446
    45  N   -0.176775
    46  H    0.103750
    47  H    0.234074
    48  H    0.230051
    49  H    0.234584
    50  H    0.222730
    51  C   -0.185537
    52  C   -0.210827
    53  C   -0.198913
    54  C   -0.170231
    55  H    0.080092
    56  C   -0.196240
    57  H    0.096887
    58  H    0.108792
    59  C   -0.179967
    60  H    0.111417
    61  H    0.093324
    62  C   -0.198294
    63  H    0.094106
    64  H    0.112086
    65  H    0.111685
    66  H    0.100116
    67  H    0.044414
    68  H    0.087444
    69  C   -0.193860
    70  H    0.098322
    71  H    0.108315
    72  C   -0.162421
    73  H    0.111681
    74  H    0.096515
    75  C   -0.256600
    76  H    0.096459
    77  H    0.111731
    78  H    0.091597
    79  H    0.119766
    80  H    0.111154
    81  H    0.058691
    82  C   -0.178678
    83  H    0.105186
    84  H    0.113933
    85  C   -0.195501
    86  H    0.113863
    87  H    0.094841
    88  C   -0.171005
    89  H    0.062795
    90  H    0.100160
    91  H    0.109006
    92  H    0.095174
    93  H    0.113310
    94  H    0.062827
    95  C   -0.195848
    96  H    0.099551
    97  H    0.109069
    98  C   -0.178332
    99  H    0.113316
   100  H    0.095290
   101  C   -0.199688
   102  H    0.094661
   103  H    0.113896
   104  H    0.114027
   105  H    0.105400
   106  H    0.058344
 Sum of Mulliken charges =   0.00000

 Dipole moment (field-independent basis, Debye):
    X=              0.7969    Y=             -2.3758    Z=              0.6388  Tot=              2.5860
 Quadrupole moment (field-independent basis, Debye-Ang):
   XX=           -312.6145   YY=           -271.5456   ZZ=           -288.0757
   XY=              6.5481   XZ=             -3.5316   YZ=              0.7508

 Normal termination of Gaussian 16 at Mon Oct 18 01:42:13 2021.
