 Gaussian 16, Revision C.01,
 Gaussian 16:  ES64L-G16RevC.01  3-Jul-2019

 ----------------------------------------------------------------------
 #P PBE1PBE/Def2TZVP SP SCF=(YQC,MaxCycle=900) int=(Grid=Superfinegrid)
  EmpiricalDispersion=GD3 SCRF=(PCM,Solvent=Chloroform)
 ----------------------------------------------------------------------

 -------------------------
 _2_alde1_4_ami1_2_opt_cfm
 -------------------------
 Symbolic Z-matrix:
 Charge =  0 Multiplicity = 1

                         Standard orientation:
 ---------------------------------------------------------------------
 Center     Atomic      Atomic             Coordinates (Angstroms)
 Number     Number       Type             X           Y           Z
 ---------------------------------------------------------------------
      1          6           0       -0.947134    0.013390    2.163696
      2          6           0       -0.198206   -1.035491    2.842922
      3          6           0       -0.386781    1.269235    1.964489
      4          6           0       -1.075999    2.250207    1.249783
      5          1           0        0.586609    1.511334    2.363502
      6          6           0       -2.313602    1.946624    0.693002
      7          6           0       -2.886519    0.689906    0.880864
      8          1           0       -2.850944    2.674288    0.103870
      9          6           0       -2.209656   -0.258513    1.638896
     10          6           0       -4.130190    0.317117    0.225939
     11          1           0       -2.633831   -1.235134    1.811635
     12          6           0       -0.513752    3.583430    1.086003
     13          1           0       -4.510649   -0.683308    0.481514
     14          1           0        0.873346   -0.833162    2.994684
     15          1           0       -1.118866    4.286511    0.490415
     16          6           0       -0.674180   -2.617257   -0.487966
     17          6           0       -0.806620   -3.447989    0.699035
     18          6           0       -1.813449   -2.098722   -1.095560
     19          6           0       -1.708892   -1.155894   -2.115851
     20          1           0       -2.799712   -2.384535   -0.764181
     21          6           0       -0.446675   -0.771126   -2.559322
     22          6           0        0.702815   -1.313943   -1.989860
     23          1           0       -0.357625   -0.034546   -3.346594
     24          6           0        0.580459   -2.224919   -0.945169
     25          6           0        2.019795   -0.886435   -2.443673
     26          1           0        1.467256   -2.614617   -0.473032
     27          6           0       -2.895879   -0.489505   -2.629473
     28          1           0        2.034615   -0.154521   -3.267361
     29          1           0       -2.705105    0.399480   -3.252541
     30          6           0       -0.030093   -4.358629    2.688642
     31          6           0        0.064180   -3.186351    3.713212
     32          7           0        0.189437   -3.770499    1.401783
     33          1           0       -1.049339   -4.774445    2.761894
     34          6           0        0.992192   -5.481866    2.930245
     35          7           0       -0.735825   -2.121693    3.187342
     36          1           0        1.122697   -2.883411    3.780951
     37          6           0       -0.434381   -3.565713    5.121468
     38          1           0        0.875488   -5.841940    3.957820
     39          6           0        2.428058   -5.007361    2.722404
     40          6           0        0.682609   -6.636579    1.977162
     41          1           0        0.086253   -4.477305    5.431643
     42          6           0       -1.940204   -3.812355    5.155168
     43          6           0       -0.068260   -2.448354    6.098505
     44          1           0        1.369438   -7.462927    2.144481
     45          1           0        0.783765   -6.302033    0.947067
     46          1           0       -0.332845   -6.999188    2.124810
     47          1           0        3.107129   -5.856789    2.745768
     48          1           0        2.732185   -4.312103    3.500220
     49          1           0        2.511989   -4.513198    1.758941
     50          1           0       -0.566982   -1.523858    5.814733
     51          1           0        1.005999   -2.274613    6.103560
     52          1           0       -0.377121   -2.711925    7.107447
     53          1           0       -2.266982   -3.972525    6.180304
     54          1           0       -2.210233   -4.690270    4.574422
     55          1           0       -2.462373   -2.950621    4.748598
     56          6           0        1.074639    5.253587    1.479006
     57          6           0        2.536685    5.196609    0.935273
     58          7           0        0.581949    3.916003    1.612147
     59          1           0        0.444723    5.826578    0.776682
     60          6           0        0.934209    5.946954    2.856726
     61          7           0        3.210222    3.947125    1.248261
     62          1           0        3.122486    5.996761    1.399606
     63          6           0        2.576190    5.413997   -0.591685
     64          1           0       -0.114488    5.809810    3.152651
     65          6           0        1.200605    7.446148    2.753936
     66          6           0        1.807503    5.310925    3.934043
     67          1           0        1.895830    4.688297   -1.054060
     68          6           0        3.989138    5.165507   -1.118457
     69          6           0        2.149791    6.827222   -0.986532
     70          1           0        1.570674    5.744006    4.903978
     71          1           0        2.862294    5.485932    3.735409
     72          1           0        1.621840    4.240732    3.981104
     73          1           0        0.559489    7.903281    2.003514
     74          1           0        2.235466    7.644562    2.487004
     75          1           0        1.000515    7.921881    3.711504
     76          1           0        1.118044    7.040092   -0.719485
     77          1           0        2.247872    6.953836   -2.062558
     78          1           0        2.786542    7.561198   -0.497112
     79          1           0        4.671921    5.908043   -0.712542
     80          1           0        4.004356    5.237659   -2.203749
     81          1           0        4.337802    4.183149   -0.820722
     82          6           0       -5.792583    0.494298   -1.376390
     83          6           0       -5.181328   -0.044739   -2.705866
     84          7           0       -4.700090    1.048176   -0.630110
     85          1           0       -6.223543   -0.371760   -0.846844
     86          6           0       -6.884024    1.559257   -1.571514
     87          7           0       -4.063701   -0.856124   -2.328968
     88          1           0       -4.850258    0.824398   -3.300457
     89          6           0       -6.170899   -0.872083   -3.548283
     90          1           0       -7.680116    1.129592   -2.188190
     91          6           0       -6.346320    2.817836   -2.246847
     92          6           0       -7.472086    1.910449   -0.204521
     93          1           0       -7.056545   -0.256099   -3.733576
     94          6           0       -6.590905   -2.161081   -2.847501
     95          6           0       -5.524807   -1.197591   -4.895304
     96          1           0       -7.872089    1.023955    0.283538
     97          1           0       -8.275390    2.635920   -0.310794
     98          1           0       -6.699347    2.335348    0.432171
     99          1           0       -5.453753    3.154847   -1.727763
    100          1           0       -7.094090    3.607117   -2.213517
    101          1           0       -6.098630    2.632375   -3.288758
    102          1           0       -5.227040   -0.287243   -5.412292
    103          1           0       -6.223926   -1.738048   -5.529347
    104          1           0       -4.641924   -1.815907   -4.747758
    105          1           0       -7.174298   -2.779236   -3.526351
    106          1           0       -7.200693   -1.954431   -1.972036
    107          1           0       -5.708103   -2.713850   -2.538272
    108          6           0        5.142016   -2.105282   -2.809902
    109          6           0        4.358557   -0.862505   -2.328745
    110          7           0        4.479790   -2.573053   -4.024843
    111          1           0        5.085438   -2.853177   -1.999562
    112          6           0        6.628886   -1.834495   -3.108330
    113          7           0        3.071777   -1.324648   -1.906731
    114          1           0        4.273089   -0.168785   -3.183847
    115          6           0        4.997507   -0.105798   -1.143250
    116          1           0        7.088801   -1.445789   -2.194984
    117          6           0        6.802742   -0.817445   -4.232828
    118          6           0        7.353618   -3.134705   -3.463454
    119          1           0        5.987226    0.238841   -1.456729
    120          6           0        5.135729   -0.990093    0.092615
    121          6           0        4.155604    1.126750   -0.812351
    122          1           0        7.154257   -3.905349   -2.720872
    123          1           0        8.427481   -2.964027   -3.496434
    124          1           0        7.042455   -3.497891   -4.439716
    125          1           0        6.214903   -1.124777   -5.093206
    126          1           0        7.849235   -0.752742   -4.522146
    127          1           0        6.473120    0.170055   -3.921643
    128          1           0        4.636324    1.716865   -0.035858
    129          1           0        3.170483    0.828156   -0.458853
    130          1           0        4.029531    1.754398   -1.692415
    131          1           0        4.170051   -1.417389    0.348077
    132          1           0        5.492545   -0.398056    0.932770
    133          1           0        5.840585   -1.799236   -0.078357
    134          1           0       -1.837007   -3.705538    0.988442
    135          1           0        2.677695    3.177988    0.852522
    136          1           0        3.220248    3.807774    2.251546
    137          1           0        3.490410   -2.703466   -3.841496
    138          1           0        4.857831   -3.472068   -4.301370
 ---------------------------------------------------------------------

 SCF Done:  E(RPBE1PBE) =  -2389.56282025     a.u. after    6 cycles
 SCF Done:  E(RPBE1PBE) =  -2389.56286084     A.U. after    9 cycles

 The electronic state is 1-A.
 Alpha  occ. eigenvalues --  -14.37624 -14.37623 -14.37616 -14.37589 -14.37357
 Alpha  occ. eigenvalues --  -14.37209 -14.35516 -14.34831 -10.26712 -10.26705
 Alpha  occ. eigenvalues --  -10.26652 -10.26592 -10.26403 -10.26305 -10.25179
 Alpha  occ. eigenvalues --  -10.25090 -10.24984 -10.24906 -10.24461 -10.24451
 Alpha  occ. eigenvalues --  -10.24414 -10.24395 -10.24347 -10.24343 -10.24296
 Alpha  occ. eigenvalues --  -10.24295 -10.24284 -10.24268 -10.24213 -10.23929
 Alpha  occ. eigenvalues --  -10.23909 -10.23888 -10.23856 -10.23386 -10.22638
 Alpha  occ. eigenvalues --  -10.22592 -10.22576 -10.22409 -10.22304 -10.22235
 Alpha  occ. eigenvalues --  -10.21968 -10.21924 -10.20509 -10.20323 -10.20303
 Alpha  occ. eigenvalues --  -10.20300 -10.20268 -10.20247 -10.20178 -10.20108
 Alpha  occ. eigenvalues --  -10.20021 -10.19951 -10.19929 -10.19845 -10.19703
 Alpha  occ. eigenvalues --  -10.19686 -10.19513 -10.19220  -0.98123  -0.97958
 Alpha  occ. eigenvalues --   -0.96928  -0.96816  -0.95001  -0.94639  -0.91233
 Alpha  occ. eigenvalues --   -0.91035  -0.90118  -0.89501  -0.84902  -0.84217
 Alpha  occ. eigenvalues --   -0.83168  -0.82869  -0.82382  -0.81783  -0.80999
 Alpha  occ. eigenvalues --   -0.80756  -0.80149  -0.79980  -0.79682  -0.79373
 Alpha  occ. eigenvalues --   -0.74683  -0.73996  -0.73223  -0.72942  -0.70601
 Alpha  occ. eigenvalues --   -0.70450  -0.70352  -0.70123  -0.70097  -0.69993
 Alpha  occ. eigenvalues --   -0.69868  -0.69603  -0.69263  -0.69052  -0.67666
 Alpha  occ. eigenvalues --   -0.67217  -0.66635  -0.65273  -0.64187  -0.63826
 Alpha  occ. eigenvalues --   -0.62980  -0.62045  -0.59940  -0.59523  -0.58660
 Alpha  occ. eigenvalues --   -0.58313  -0.57984  -0.57736  -0.57154  -0.56585
 Alpha  occ. eigenvalues --   -0.55684  -0.55227  -0.54861  -0.54470  -0.53819
 Alpha  occ. eigenvalues --   -0.53400  -0.52107  -0.51929  -0.51635  -0.51042
 Alpha  occ. eigenvalues --   -0.50687  -0.50220  -0.50194  -0.49821  -0.49546
 Alpha  occ. eigenvalues --   -0.49082  -0.48709  -0.48369  -0.48195  -0.48050
 Alpha  occ. eigenvalues --   -0.47302  -0.46689  -0.46608  -0.46305  -0.45989
 Alpha  occ. eigenvalues --   -0.45682  -0.45133  -0.45064  -0.45017  -0.44888
 Alpha  occ. eigenvalues --   -0.44276  -0.44064  -0.43854  -0.43378  -0.43355
 Alpha  occ. eigenvalues --   -0.43306  -0.43198  -0.43122  -0.43043  -0.42618
 Alpha  occ. eigenvalues --   -0.42292  -0.42185  -0.42086  -0.41848  -0.41665
 Alpha  occ. eigenvalues --   -0.40562  -0.40335  -0.40251  -0.40194  -0.40067
 Alpha  occ. eigenvalues --   -0.39721  -0.39502  -0.39413  -0.39310  -0.39116
 Alpha  occ. eigenvalues --   -0.39092  -0.39000  -0.38860  -0.38723  -0.38657
 Alpha  occ. eigenvalues --   -0.38327  -0.38126  -0.38023  -0.37826  -0.37621
 Alpha  occ. eigenvalues --   -0.37053  -0.36866  -0.36621  -0.36446  -0.36066
 Alpha  occ. eigenvalues --   -0.35480  -0.35344  -0.35042  -0.34959  -0.34751
 Alpha  occ. eigenvalues --   -0.34739  -0.34631  -0.34520  -0.34489  -0.34370
 Alpha  occ. eigenvalues --   -0.34182  -0.33967  -0.33876  -0.33728  -0.33697
 Alpha  occ. eigenvalues --   -0.33666  -0.33122  -0.33058  -0.32843  -0.32710
 Alpha  occ. eigenvalues --   -0.32374  -0.32091  -0.31834  -0.31668  -0.30036
 Alpha  occ. eigenvalues --   -0.29434  -0.27296  -0.27050  -0.26875  -0.26805
 Alpha  occ. eigenvalues --   -0.26754  -0.26566  -0.26301  -0.25721  -0.25383
 Alpha  occ. eigenvalues --   -0.25251  -0.24790  -0.24112
 Alpha virt. eigenvalues --   -0.07153  -0.06249  -0.05429  -0.05217  -0.02574
 Alpha virt. eigenvalues --   -0.01426   0.03128   0.04140   0.04251   0.04360
 Alpha virt. eigenvalues --    0.04460   0.04645   0.04909   0.05078   0.05569

 Mulliken charges:
               1
     1  C    0.331112
     2  C   -0.159975
     3  C   -0.375497
     4  C    0.374692
     5  H    0.139033
     6  C   -0.383808
     7  C    0.345231
     8  H    0.142119
     9  C   -0.277989
    10  C   -0.150833
    11  H    0.142291
    12  C   -0.196975
    13  H    0.089327
    14  H    0.086805
    15  H    0.084786
    16  C    0.395944
    17  C   -0.171522
    18  C   -0.306092
    19  C    0.310454
    20  H    0.143612
    21  C   -0.386659
    22  C    0.426163
    23  H    0.127632
    24  C   -0.390635
    25  C   -0.235440
    26  H    0.157045
    27  C   -0.156488
    28  H    0.088307
    29  H    0.081213
    30  C    0.106971
    31  C    0.100538
    32  N   -0.259376
    33  H    0.074376
    34  C    0.000702
    35  N   -0.264886
    36  H    0.078022
    37  C   -0.014701
    38  H    0.077537
    39  C   -0.419701
    40  C   -0.399526
    41  H    0.078957
    42  C   -0.412196
    43  C   -0.394603
    44  H    0.126733
    45  H    0.127116
    46  H    0.118682
    47  H    0.120991
    48  H    0.121163
    49  H    0.138058
    50  H    0.125800
    51  H    0.120513
    52  H    0.128034
    53  H    0.123258
    54  H    0.121174
    55  H    0.132364
    56  C    0.122952
    57  C   -0.020455
    58  N   -0.238336
    59  H    0.054120
    60  C   -0.008724
    61  N   -0.506180
    62  H    0.084898
    63  C   -0.062088
    64  H    0.075572
    65  C   -0.372296
    66  C   -0.457949
    67  H    0.074023
    68  C   -0.358741
    69  C   -0.382581
    70  H    0.132322
    71  H    0.131852
    72  H    0.145326
    73  H    0.123840
    74  H    0.118489
    75  H    0.131346
    76  H    0.119277
    77  H    0.129517
    78  H    0.116866
    79  H    0.104454
    80  H    0.116001
    81  H    0.144458
    82  C    0.094229
    83  C    0.106365
    84  N   -0.267569
    85  H    0.084630
    86  C    0.003180
    87  N   -0.262582
    88  H    0.083931
    89  C   -0.021032
    90  H    0.082646
    91  C   -0.423818
    92  C   -0.401190
    93  H    0.083816
    94  C   -0.417267
    95  C   -0.394362
    96  H    0.119231
    97  H    0.127273
    98  H    0.126964
    99  H    0.133107
   100  H    0.123125
   101  H    0.124047
   102  H    0.118949
   103  H    0.128847
   104  H    0.126200
   105  H    0.124035
   106  H    0.124160
   107  H    0.132809
   108  C    0.075212
   109  C    0.089873
   110  N   -0.575961
   111  H    0.113494
   112  C   -0.054938
   113  N   -0.252932
   114  H    0.082118
   115  C    0.021989
   116  H    0.088757
   117  C   -0.396589
   118  C   -0.423206
   119  H    0.090561
   120  C   -0.421857
   121  C   -0.470624
   122  H    0.127723
   123  H    0.130489
   124  H    0.123452
   125  H    0.123574
   126  H    0.122154
   127  H    0.125282
   128  H    0.145152
   129  H    0.131097
   130  H    0.121802
   131  H    0.136932
   132  H    0.122603
   133  H    0.124372
   134  H    0.089779
   135  H    0.232097
   136  H    0.217671
   137  H    0.225971
   138  H    0.226410
 Sum of Mulliken charges =  -0.00000

 Dipole moment (field-independent basis, Debye):
    X=             -2.4589    Y=              0.6301    Z=              0.3289  Tot=              2.5596
 Quadrupole moment (field-independent basis, Debye-Ang):
   XX=           -361.1637   YY=           -351.4087   ZZ=           -356.8756
   XY=             -5.5505   XZ=             11.6334   YZ=             -5.1707

 Normal termination of Gaussian 16 at Mon Oct 18 08:44:11 2021.
