 Gaussian 16, Revision C.01,
 Gaussian 16:  ES64L-G16RevC.01  3-Jul-2019

 ----------------------------------------------------------------------
 #P MP2/aug-cc-pVDZ SP SCF=(YQC,MaxCycle=900) int=(Grid=Superfinegrid)
 SCRF=(PCM,Solvent=Chloroform)
 ----------------------------------------------------------------------

 -----------------------------
 _2_alde1_4_ami3_2_opt_cfm_mp2
 -----------------------------
 Symbolic Z-matrix:
 Charge =  0 Multiplicity = 1

                         Standard orientation:
 ---------------------------------------------------------------------
 Center     Atomic      Atomic             Coordinates (Angstroms)
 Number     Number       Type             X           Y           Z
 ---------------------------------------------------------------------
      1          6           0        2.284012   -0.154844    1.711568
      2          6           0        1.801929   -1.037295    2.765853
      3          6           0        3.080855   -0.641537    0.682370
      4          6           0        3.463035    0.187897   -0.373296
      5          1           0        3.427048   -1.663959    0.680311
      6          6           0        2.995392    1.496891   -0.418378
      7          6           0        2.194541    1.997730    0.606903
      8          1           0        3.238003    2.146494   -1.245578
      9          6           0        1.872363    1.176514    1.681196
     10          6           0        1.620556    3.332347    0.540692
     11          1           0        1.265240    1.539540    2.495157
     12          6           0        4.329946   -0.314347   -1.430683
     13          1           0        1.120780    3.673869    1.459720
     14          1           0        1.858785   -2.114873    2.544484
     15          1           0        4.569714    0.400495   -2.232701
     16          6           0       -1.973166    0.433572    1.944117
     17          6           0       -1.430993    0.269539    3.283586
     18          6           0       -1.658628    1.580059    1.223826
     19          6           0       -2.035732    1.709988   -0.111701
     20          1           0       -1.082717    2.375579    1.669386
     21          6           0       -2.792267    0.705709   -0.702942
     22          6           0       -3.169909   -0.423289    0.025443
     23          1           0       -3.104210    0.779780   -1.733659
     24          6           0       -2.733975   -0.565047    1.338504
     25          6           0       -4.000364   -1.458119   -0.580503
     26          1           0       -2.971796   -1.448143    1.912013
     27          6           0       -1.558924    2.844496   -0.891679
     28          1           0       -4.199885   -2.322952    0.063259
     29          1           0       -1.577937    2.709479   -1.984761
     30          6           0       -0.696366   -0.929112    5.117753
     31          6           0        0.706348   -1.488837    4.776763
     32          7           0       -1.429610   -0.836566    3.891774
     33          7           0        1.304251   -0.594142    3.836008
     34          6           0        5.639584   -1.951121   -2.465568
     35          6           0        4.967679   -3.151015   -3.156955
     36          7           0        4.780496   -1.492275   -1.418262
     37          7           0        3.769981   -2.678786   -3.838125
     38          6           0        0.867182    5.241785   -0.521304
     39          6           0       -0.510972    4.914168   -1.146411
     40          7           0        1.629988    4.030861   -0.510517
     41          7           0       -1.106543    3.888361   -0.348863
     42          6           0       -6.630297   -1.517378   -2.721970
     43          6           0       -5.298962   -2.262744   -2.411979
     44          7           0       -6.445333   -0.248824   -3.395635
     45          7           0       -4.438808   -1.328689   -1.756190
     46          1           0       -0.964289    1.168449    3.713568
     47          1           0        3.140430   -2.244680   -3.170899
     48          1           0        3.281024   -3.457196   -4.267217
     49          1           0       -5.829928    0.337634   -2.841696
     50          1           0       -5.993658   -0.397620   -4.292960
     51          6           0       -7.535950   -2.416080   -3.562660
     52          6           0        5.914036   -3.763371   -4.188796
     53          6           0       -1.370514    6.179862   -1.145172
     54          6           0       -1.388824   -1.858297    6.109641
     55          1           0        4.746025   -3.900057   -2.375021
     56          6           0        7.235452   -4.180268   -3.554375
     57          1           0        6.090670   -3.023217   -4.971092
     58          1           0        5.429138   -4.627081   -4.649733
     59          6           0        7.900105   -2.982030   -2.885954
     60          1           0        7.895336   -4.598276   -4.317211
     61          1           0        7.051908   -4.956020   -2.807074
     62          6           0        6.971280   -2.379241   -1.840010
     63          1           0        8.134648   -2.229047   -3.641688
     64          1           0        8.835666   -3.286980   -2.412689
     65          1           0        7.436943   -1.509644   -1.371201
     66          1           0        6.762780   -3.110425   -1.056749
     67          1           0        5.814154   -1.169969   -3.226885
     68          1           0       -7.119995   -1.300204   -1.764198
     69          6           0       -7.807866   -3.742553   -2.862858
     70          1           0       -7.054197   -2.601722   -4.526169
     71          1           0       -8.468949   -1.884231   -3.752957
     72          6           0       -6.497530   -4.461540   -2.558403
     73          1           0       -8.439761   -4.370423   -3.493946
     74          1           0       -8.344852   -3.557092   -1.929814
     75          6           0       -5.596584   -3.583484   -1.696363
     76          1           0       -5.986338   -4.699572   -3.494550
     77          1           0       -6.699113   -5.401496   -2.040038
     78          1           0       -4.813983   -2.476072   -3.376431
     79          1           0       -4.659098   -4.104604   -1.483962
     80          1           0       -6.098630   -3.376926   -0.747634
     81          1           0       -0.356162    4.579381   -2.187897
     82          6           0       -0.686282    7.282182   -1.947038
     83          1           0       -1.524906    6.500118   -0.113358
     84          1           0       -2.347276    5.947004   -1.575354
     85          6           0        0.699110    7.585269   -1.382754
     86          1           0       -1.301419    8.184081   -1.927592
     87          1           0       -0.590892    6.963816   -2.987875
     88          6           0        1.556509    6.324269   -1.345841
     89          1           0        0.678038    5.606696    0.503704
     90          1           0        1.719685    5.945171   -2.355986
     91          1           0        2.532172    6.541056   -0.906808
     92          1           0        0.597464    7.981604   -0.369711
     93          1           0        1.189292    8.346914   -1.992432
     94          1           0       -0.544945    0.066422    5.571061
     95          6           0       -0.561998   -1.977393    7.385978
     96          1           0       -1.513989   -2.837526    5.644580
     97          1           0       -2.381513   -1.464396    6.335659
     98          6           0        0.845844   -2.478180    7.074927
     99          1           0       -1.053411   -2.660567    8.081455
    100          1           0       -0.498906   -0.998244    7.866787
    101          6           0        1.534127   -1.570149    6.060979
    102          1           0        0.787825   -3.491222    6.669813
    103          1           0        1.437587   -2.517395    7.991712
    104          1           0        2.528103   -1.953761    5.819805
    105          1           0        1.651312   -0.564653    6.468866
    106          1           0        0.589338   -2.502959    4.353846
 ---------------------------------------------------------------------

 SCF Done:  E(RHF) =  -2058.89459733     a.u. after    7 cycles
 SCF Done:  E(RHF) =  -2058.89466505     A.U. after   14 cycles
 E2 =    -0.7307103311D+01 EUMP2 =    -0.20662017683581D+04

 The electronic state is 1-A.
 Alpha  occ. eigenvalues --  -15.56175 -15.56104 -15.56084 -15.55982 -15.55802
 Alpha  occ. eigenvalues --  -15.55790 -15.54333 -15.53899 -11.28686 -11.28681
 Alpha  occ. eigenvalues --  -11.28660 -11.28603 -11.28444 -11.28435 -11.25668
 Alpha  occ. eigenvalues --  -11.25635 -11.25415 -11.25397 -11.25391 -11.25354
 Alpha  occ. eigenvalues --  -11.25319 -11.25287 -11.25283 -11.25250 -11.25239
 Alpha  occ. eigenvalues --  -11.25215 -11.25188 -11.25136 -11.25114 -11.25084
 Alpha  occ. eigenvalues --  -11.25060 -11.25031 -11.25025 -11.24988 -11.22115
 Alpha  occ. eigenvalues --  -11.22115 -11.22079 -11.22049 -11.22009 -11.21968
 Alpha  occ. eigenvalues --  -11.21933 -11.21893 -11.21840 -11.21814 -11.21805
 Alpha  occ. eigenvalues --  -11.21772 -11.21764 -11.21713 -11.21631 -11.21615
 Alpha  occ. eigenvalues --   -1.26697  -1.26499  -1.25538  -1.25159  -1.23657
 Alpha  occ. eigenvalues --   -1.23222  -1.18753  -1.18607  -1.17337  -1.16640
 Alpha  occ. eigenvalues --   -1.11784  -1.11137  -1.09930  -1.09871  -1.06033
 Alpha  occ. eigenvalues --   -1.05993  -1.05861  -1.05851  -1.00717  -1.00407
 Alpha  occ. eigenvalues --   -1.00159  -0.99798  -0.99476  -0.98929  -0.97525
 Alpha  occ. eigenvalues --   -0.97474  -0.90330  -0.89789  -0.89446  -0.88638
 Alpha  occ. eigenvalues --   -0.88396  -0.86750  -0.83545  -0.83159  -0.82982
 Alpha  occ. eigenvalues --   -0.82352  -0.81794  -0.81604  -0.80656  -0.79923
 Alpha  occ. eigenvalues --   -0.77489  -0.76954  -0.76728  -0.76121  -0.75131
 Alpha  occ. eigenvalues --   -0.74795  -0.74322  -0.73465  -0.70854  -0.70363
 Alpha  occ. eigenvalues --   -0.69471  -0.69010  -0.67165  -0.67098  -0.66468
 Alpha  occ. eigenvalues --   -0.65834  -0.65704  -0.65357  -0.65143  -0.65017
 Alpha  occ. eigenvalues --   -0.64212  -0.63428  -0.62910  -0.62749  -0.62461
 Alpha  occ. eigenvalues --   -0.62197  -0.61716  -0.61255  -0.60868  -0.60545
 Alpha  occ. eigenvalues --   -0.60058  -0.60012  -0.59353  -0.59175  -0.59085
 Alpha  occ. eigenvalues --   -0.57719  -0.57640  -0.57487  -0.56535  -0.56171
 Alpha  occ. eigenvalues --   -0.56000  -0.55457  -0.55391  -0.54668  -0.54114
 Alpha  occ. eigenvalues --   -0.53894  -0.53643  -0.53031  -0.52690  -0.52607
 Alpha  occ. eigenvalues --   -0.52291  -0.52184  -0.51729  -0.51606  -0.50211
 Alpha  occ. eigenvalues --   -0.49882  -0.49421  -0.49058  -0.48878  -0.48681
 Alpha  occ. eigenvalues --   -0.48610  -0.48277  -0.47318  -0.47201  -0.47020
 Alpha  occ. eigenvalues --   -0.46743  -0.46566  -0.46444  -0.46301  -0.46272
 Alpha  occ. eigenvalues --   -0.45874  -0.45425  -0.44873  -0.44338  -0.43728
 Alpha  occ. eigenvalues --   -0.43524  -0.42839  -0.42504  -0.41110  -0.40820
 Alpha  occ. eigenvalues --   -0.40709  -0.40608  -0.40134  -0.39535  -0.39286
 Alpha  occ. eigenvalues --   -0.38850  -0.38459  -0.37453  -0.32691  -0.32413
 Alpha  occ. eigenvalues --   -0.32367  -0.31813
 Alpha virt. eigenvalues --    0.03120   0.03443   0.03554   0.03658   0.03955
 Alpha virt. eigenvalues --    0.04062   0.04126   0.04156   0.04180   0.04512
 Alpha virt. eigenvalues --    0.04868   0.04979   0.05018   0.05393   0.05421

 Mulliken charges:
               1
     1  C    0.805825
     2  C    0.292452
     3  C    0.187997
     4  C    0.446231
     5  H   -0.853014
     6  C    0.746258
     7  C    0.884219
     8  H   -0.858780
     9  C    0.515737
    10  C    0.853013
    11  H   -1.113260
    12  C    0.285189
    13  H   -0.692191
    14  H   -0.795876
    15  H   -0.794982
    16  C    1.024892
    17  C    0.688142
    18  C    0.457297
    19  C    0.870062
    20  H   -1.117829
    21  C    0.189543
    22  C    0.339423
    23  H   -0.808845
    24  C    0.779665
    25  C    0.547862
    26  H   -0.873668
    27  C    0.236543
    28  H   -0.746320
    29  H   -0.794816
    30  C   -0.095532
    31  C   -0.265027
    32  N   -0.546656
    33  N   -0.372090
    34  C   -0.453764
    35  C    0.639507
    36  N   -0.241644
    37  N   -0.410632
    38  C   -0.167600
    39  C   -0.244250
    40  N   -0.596687
    41  N   -0.368062
    42  C    0.204735
    43  C    0.341130
    44  N   -0.422225
    45  N   -0.535835
    46  H   -0.692484
    47  H   -0.017108
    48  H   -0.018538
    49  H    0.001411
    50  H    0.039358
    51  C    0.751546
    52  C    0.642289
    53  C    0.835251
    54  C    0.812377
    55  H   -0.204067
    56  C    0.493136
    57  H   -0.026067
    58  H   -0.150317
    59  C    0.619892
    60  H   -0.155031
    61  H   -0.106504
    62  C    0.843420
    63  H   -0.110926
    64  H   -0.122715
    65  H   -0.222935
    66  H   -0.137429
    67  H   -0.307814
    68  H   -0.289185
    69  C    0.445564
    70  H   -0.093880
    71  H   -0.122360
    72  C    0.465607
    73  H   -0.161066
    74  H   -0.096552
    75  C    0.662486
    76  H   -0.074283
    77  H   -0.111575
    78  H   -0.357098
    79  H   -0.203384
    80  H   -0.152044
    81  H   -0.319595
    82  C    0.536327
    83  H   -0.110385
    84  H   -0.238029
    85  C    0.527479
    86  H   -0.143750
    87  H   -0.079144
    88  C    0.848773
    89  H   -0.420159
    90  H   -0.108235
    91  H   -0.186063
    92  H   -0.076403
    93  H   -0.148250
    94  H   -0.404321
    95  C    0.520381
    96  H   -0.109435
    97  H   -0.189217
    98  C    0.538675
    99  H   -0.148043
   100  H   -0.074650
   101  C    0.828609
   102  H   -0.077810
   103  H   -0.144073
   104  H   -0.233392
   105  H   -0.112186
   106  H   -0.322220
 Sum of Mulliken charges =   0.00000

 Dipole moment (field-independent basis, Debye):
    X=              0.9718    Y=             -2.4124    Z=              0.7891  Tot=              2.7179
 Quadrupole moment (field-independent basis, Debye-Ang):
   XX=           -322.2391   YY=           -280.9712   ZZ=           -298.0695
   XY=              7.9833   XZ=             -5.2153   YZ=              1.7379

 Normal termination of Gaussian 16 at Sat Oct 30 13:52:04 2021.
