 Gaussian 16, Revision C.01,
 Gaussian 16:  ES64L-G16RevC.01  3-Jul-2019

 ----------------------------------------------------------------------
 #P MP2/aug-cc-pVDZ SP SCF=(YQC,MaxCycle=900) int=(Grid=Superfinegrid)
 SCRF=(PCM,Solvent=Chloroform)
 ----------------------------------------------------------------------

 -----------------------------
 _2_alde1_4_ami1_2_opt_cfm_mp2
 -----------------------------
 Symbolic Z-matrix:
 Charge =  0 Multiplicity = 1

                         Standard orientation:
 ---------------------------------------------------------------------
 Center     Atomic      Atomic             Coordinates (Angstroms)
 Number     Number       Type             X           Y           Z
 ---------------------------------------------------------------------
      1          6           0       -0.947134    0.013390    2.163696
      2          6           0       -0.198206   -1.035491    2.842922
      3          6           0       -0.386781    1.269235    1.964489
      4          6           0       -1.075999    2.250207    1.249783
      5          1           0        0.586609    1.511334    2.363502
      6          6           0       -2.313602    1.946624    0.693002
      7          6           0       -2.886519    0.689906    0.880864
      8          1           0       -2.850944    2.674288    0.103870
      9          6           0       -2.209656   -0.258513    1.638896
     10          6           0       -4.130190    0.317117    0.225939
     11          1           0       -2.633831   -1.235134    1.811635
     12          6           0       -0.513752    3.583430    1.086003
     13          1           0       -4.510649   -0.683308    0.481514
     14          1           0        0.873346   -0.833162    2.994684
     15          1           0       -1.118866    4.286511    0.490415
     16          6           0       -0.674180   -2.617257   -0.487966
     17          6           0       -0.806620   -3.447989    0.699035
     18          6           0       -1.813449   -2.098722   -1.095560
     19          6           0       -1.708892   -1.155894   -2.115851
     20          1           0       -2.799712   -2.384535   -0.764181
     21          6           0       -0.446675   -0.771126   -2.559322
     22          6           0        0.702815   -1.313943   -1.989860
     23          1           0       -0.357625   -0.034546   -3.346594
     24          6           0        0.580459   -2.224919   -0.945169
     25          6           0        2.019795   -0.886435   -2.443673
     26          1           0        1.467256   -2.614617   -0.473032
     27          6           0       -2.895879   -0.489505   -2.629473
     28          1           0        2.034615   -0.154521   -3.267361
     29          1           0       -2.705105    0.399480   -3.252541
     30          6           0       -0.030093   -4.358629    2.688642
     31          6           0        0.064180   -3.186351    3.713212
     32          7           0        0.189437   -3.770499    1.401783
     33          1           0       -1.049339   -4.774445    2.761894
     34          6           0        0.992192   -5.481866    2.930245
     35          7           0       -0.735825   -2.121693    3.187342
     36          1           0        1.122697   -2.883411    3.780951
     37          6           0       -0.434381   -3.565713    5.121468
     38          1           0        0.875488   -5.841940    3.957820
     39          6           0        2.428058   -5.007361    2.722404
     40          6           0        0.682609   -6.636579    1.977162
     41          1           0        0.086253   -4.477305    5.431643
     42          6           0       -1.940204   -3.812355    5.155168
     43          6           0       -0.068260   -2.448354    6.098505
     44          1           0        1.369438   -7.462927    2.144481
     45          1           0        0.783765   -6.302033    0.947067
     46          1           0       -0.332845   -6.999188    2.124810
     47          1           0        3.107129   -5.856789    2.745768
     48          1           0        2.732185   -4.312103    3.500220
     49          1           0        2.511989   -4.513198    1.758941
     50          1           0       -0.566982   -1.523858    5.814733
     51          1           0        1.005999   -2.274613    6.103560
     52          1           0       -0.377121   -2.711925    7.107447
     53          1           0       -2.266982   -3.972525    6.180304
     54          1           0       -2.210233   -4.690270    4.574422
     55          1           0       -2.462373   -2.950621    4.748598
     56          6           0        1.074639    5.253587    1.479006
     57          6           0        2.536685    5.196609    0.935273
     58          7           0        0.581949    3.916003    1.612147
     59          1           0        0.444723    5.826578    0.776682
     60          6           0        0.934209    5.946954    2.856726
     61          7           0        3.210222    3.947125    1.248261
     62          1           0        3.122486    5.996761    1.399606
     63          6           0        2.576190    5.413997   -0.591685
     64          1           0       -0.114488    5.809810    3.152651
     65          6           0        1.200605    7.446148    2.753936
     66          6           0        1.807503    5.310925    3.934043
     67          1           0        1.895830    4.688297   -1.054060
     68          6           0        3.989138    5.165507   -1.118457
     69          6           0        2.149791    6.827222   -0.986532
     70          1           0        1.570674    5.744006    4.903978
     71          1           0        2.862294    5.485932    3.735409
     72          1           0        1.621840    4.240732    3.981104
     73          1           0        0.559489    7.903281    2.003514
     74          1           0        2.235466    7.644562    2.487004
     75          1           0        1.000515    7.921881    3.711504
     76          1           0        1.118044    7.040092   -0.719485
     77          1           0        2.247872    6.953836   -2.062558
     78          1           0        2.786542    7.561198   -0.497112
     79          1           0        4.671921    5.908043   -0.712542
     80          1           0        4.004356    5.237659   -2.203749
     81          1           0        4.337802    4.183149   -0.820722
     82          6           0       -5.792583    0.494298   -1.376390
     83          6           0       -5.181328   -0.044739   -2.705866
     84          7           0       -4.700090    1.048176   -0.630110
     85          1           0       -6.223543   -0.371760   -0.846844
     86          6           0       -6.884024    1.559257   -1.571514
     87          7           0       -4.063701   -0.856124   -2.328968
     88          1           0       -4.850258    0.824398   -3.300457
     89          6           0       -6.170899   -0.872083   -3.548283
     90          1           0       -7.680116    1.129592   -2.188190
     91          6           0       -6.346320    2.817836   -2.246847
     92          6           0       -7.472086    1.910449   -0.204521
     93          1           0       -7.056545   -0.256099   -3.733576
     94          6           0       -6.590905   -2.161081   -2.847501
     95          6           0       -5.524807   -1.197591   -4.895304
     96          1           0       -7.872089    1.023955    0.283538
     97          1           0       -8.275390    2.635920   -0.310794
     98          1           0       -6.699347    2.335348    0.432171
     99          1           0       -5.453753    3.154847   -1.727763
    100          1           0       -7.094090    3.607117   -2.213517
    101          1           0       -6.098630    2.632375   -3.288758
    102          1           0       -5.227040   -0.287243   -5.412292
    103          1           0       -6.223926   -1.738048   -5.529347
    104          1           0       -4.641924   -1.815907   -4.747758
    105          1           0       -7.174298   -2.779236   -3.526351
    106          1           0       -7.200693   -1.954431   -1.972036
    107          1           0       -5.708103   -2.713850   -2.538272
    108          6           0        5.142016   -2.105282   -2.809902
    109          6           0        4.358557   -0.862505   -2.328745
    110          7           0        4.479790   -2.573053   -4.024843
    111          1           0        5.085438   -2.853177   -1.999562
    112          6           0        6.628886   -1.834495   -3.108330
    113          7           0        3.071777   -1.324648   -1.906731
    114          1           0        4.273089   -0.168785   -3.183847
    115          6           0        4.997507   -0.105798   -1.143250
    116          1           0        7.088801   -1.445789   -2.194984
    117          6           0        6.802742   -0.817445   -4.232828
    118          6           0        7.353618   -3.134705   -3.463454
    119          1           0        5.987226    0.238841   -1.456729
    120          6           0        5.135729   -0.990093    0.092615
    121          6           0        4.155604    1.126750   -0.812351
    122          1           0        7.154257   -3.905349   -2.720872
    123          1           0        8.427481   -2.964027   -3.496434
    124          1           0        7.042455   -3.497891   -4.439716
    125          1           0        6.214903   -1.124777   -5.093206
    126          1           0        7.849235   -0.752742   -4.522146
    127          1           0        6.473120    0.170055   -3.921643
    128          1           0        4.636324    1.716865   -0.035858
    129          1           0        3.170483    0.828156   -0.458853
    130          1           0        4.029531    1.754398   -1.692415
    131          1           0        4.170051   -1.417389    0.348077
    132          1           0        5.492545   -0.398056    0.932770
    133          1           0        5.840585   -1.799236   -0.078357
    134          1           0       -1.837007   -3.705538    0.988442
    135          1           0        2.677695    3.177988    0.852522
    136          1           0        3.220248    3.807774    2.251546
    137          1           0        3.490410   -2.703466   -3.841496
    138          1           0        4.857831   -3.472068   -4.301370
 ---------------------------------------------------------------------

 SCF Done:  E(RHF) =  -2375.77560049     a.u. after    7 cycles
 SCF Done:  E(RHF) =  -2375.77564847     A.U. after   19 cycles
 E2 =    -0.8676268482D+01 EUMP2 =    -0.23844519169537D+04

 The electronic state is 1-A.
 Alpha  occ. eigenvalues --  -15.55777 -15.55720 -15.55595 -15.55553 -15.55309
 Alpha  occ. eigenvalues --  -15.55148 -15.53860 -15.53070 -11.28580 -11.28499
 Alpha  occ. eigenvalues --  -11.28479 -11.28305 -11.28251 -11.28105 -11.25676
 Alpha  occ. eigenvalues --  -11.25501 -11.25390 -11.25322 -11.25272 -11.25232
 Alpha  occ. eigenvalues --  -11.25229 -11.25204 -11.25167 -11.25035 -11.25033
 Alpha  occ. eigenvalues --  -11.24988 -11.24973 -11.24951 -11.24951 -11.24886
 Alpha  occ. eigenvalues --  -11.24846 -11.24838 -11.24799 -11.24612 -11.22792
 Alpha  occ. eigenvalues --  -11.22764 -11.22686 -11.22587 -11.22462 -11.22365
 Alpha  occ. eigenvalues --  -11.22286 -11.22195 -11.21369 -11.21193 -11.21180
 Alpha  occ. eigenvalues --  -11.21130 -11.21129 -11.21061 -11.20994 -11.20907
 Alpha  occ. eigenvalues --  -11.20855 -11.20787 -11.20772 -11.20590 -11.20529
 Alpha  occ. eigenvalues --  -11.20519 -11.20414 -11.20087  -1.26806  -1.26583
 Alpha  occ. eigenvalues --   -1.25518  -1.25414  -1.23274  -1.22807  -1.18562
 Alpha  occ. eigenvalues --   -1.18334  -1.17230  -1.16498  -1.10547  -1.09754
 Alpha  occ. eigenvalues --   -1.08567  -1.08197  -1.07560  -1.06855  -1.06085
 Alpha  occ. eigenvalues --   -1.05762  -1.04984  -1.04803  -1.04483  -1.04113
 Alpha  occ. eigenvalues --   -0.97799  -0.97083  -0.96196  -0.95896  -0.93127
 Alpha  occ. eigenvalues --   -0.92939  -0.92821  -0.92635  -0.92604  -0.92452
 Alpha  occ. eigenvalues --   -0.92368  -0.92115  -0.90996  -0.90605  -0.88987
 Alpha  occ. eigenvalues --   -0.88462  -0.87652  -0.85860  -0.84784  -0.84277
 Alpha  occ. eigenvalues --   -0.83137  -0.82015  -0.79104  -0.78696  -0.77724
 Alpha  occ. eigenvalues --   -0.77288  -0.76861  -0.76311  -0.75742  -0.74842
 Alpha  occ. eigenvalues --   -0.73964  -0.73484  -0.72996  -0.72571  -0.70832
 Alpha  occ. eigenvalues --   -0.70422  -0.68473  -0.68324  -0.67558  -0.67236
 Alpha  occ. eigenvalues --   -0.66860  -0.66157  -0.65989  -0.65758  -0.65229
 Alpha  occ. eigenvalues --   -0.64602  -0.64303  -0.63754  -0.63572  -0.63330
 Alpha  occ. eigenvalues --   -0.62627  -0.62115  -0.61677  -0.61344  -0.60981
 Alpha  occ. eigenvalues --   -0.60309  -0.60081  -0.59878  -0.59775  -0.59581
 Alpha  occ. eigenvalues --   -0.59275  -0.58583  -0.58377  -0.58118  -0.57776
 Alpha  occ. eigenvalues --   -0.57651  -0.57628  -0.57358  -0.56934  -0.56706
 Alpha  occ. eigenvalues --   -0.56354  -0.56223  -0.55982  -0.55818  -0.54566
 Alpha  occ. eigenvalues --   -0.54188  -0.54115  -0.53994  -0.53922  -0.53632
 Alpha  occ. eigenvalues --   -0.53394  -0.53278  -0.53226  -0.53024  -0.52728
 Alpha  occ. eigenvalues --   -0.52678  -0.52555  -0.52374  -0.52257  -0.52121
 Alpha  occ. eigenvalues --   -0.51965  -0.51720  -0.51676  -0.51449  -0.51241
 Alpha  occ. eigenvalues --   -0.50265  -0.49739  -0.49672  -0.48396  -0.48303
 Alpha  occ. eigenvalues --   -0.47995  -0.47880  -0.47773  -0.47363  -0.47162
 Alpha  occ. eigenvalues --   -0.47144  -0.47015  -0.46992  -0.46753  -0.46722
 Alpha  occ. eigenvalues --   -0.46582  -0.46272  -0.45998  -0.45773  -0.45660
 Alpha  occ. eigenvalues --   -0.45500  -0.45398  -0.45316  -0.45115  -0.44344
 Alpha  occ. eigenvalues --   -0.43896  -0.43216  -0.42893  -0.42572  -0.40391
 Alpha  occ. eigenvalues --   -0.40324  -0.40040  -0.39934  -0.39845  -0.39466
 Alpha  occ. eigenvalues --   -0.39106  -0.38821  -0.37969  -0.37020  -0.33104
 Alpha  occ. eigenvalues --   -0.32552  -0.31696  -0.31258
 Alpha virt. eigenvalues --    0.02986   0.03202   0.03344   0.03514   0.03815
 Alpha virt. eigenvalues --    0.03898   0.04049   0.04173   0.04298   0.04654
 Alpha virt. eigenvalues --    0.04785   0.04817   0.05061   0.05166   0.05207

 Mulliken charges:
               1
     1  C    1.660319
     2  C    0.521346
     3  C    0.109855
     4  C    1.098757
     5  H   -0.741620
     6  C    0.424031
     7  C    1.481493
     8  H   -0.991921
     9  C    0.245091
    10  C    0.519583
    11  H   -1.222025
    12  C    0.001173
    13  H   -0.870715
    14  H   -1.101220
    15  H   -0.811974
    16  C    1.868619
    17  C    0.249553
    18  C    0.291885
    19  C    0.802379
    20  H   -1.075787
    21  C    0.311828
    22  C    1.466293
    23  H   -0.868747
    24  C    0.055774
    25  C    0.479844
    26  H   -1.302538
    27  C    0.856581
    28  H   -0.816662
    29  H   -1.000074
    30  C    0.239530
    31  C   -0.107237
    32  N   -0.321080
    33  H   -0.396878
    34  C   -0.923373
    35  N   -0.150043
    36  H   -0.292286
    37  C   -0.867344
    38  H   -0.339126
    39  C    1.070494
    40  C    1.061935
    41  H   -0.303150
    42  C    1.145977
    43  C    1.150639
    44  H   -0.152170
    45  H   -0.005642
    46  H   -0.088514
    47  H   -0.154177
    48  H   -0.150754
    49  H   -0.044657
    50  H    0.041327
    51  H   -0.089002
    52  H   -0.181176
    53  H   -0.183671
    54  H   -0.137491
    55  H   -0.042077
    56  C   -0.416995
    57  C    0.882813
    58  N    0.347713
    59  H   -0.628725
    60  C   -0.762657
    61  N   -0.503725
    62  H   -0.594576
    63  C   -1.459731
    64  H   -0.218192
    65  C    1.204237
    66  C    1.115237
    67  H   -0.315528
    68  C    1.318805
    69  C    1.431797
    70  H   -0.195324
    71  H    0.001883
    72  H   -0.080015
    73  H    0.007919
    74  H    0.019374
    75  H   -0.112894
    76  H   -0.075397
    77  H   -0.142810
    78  H    0.018418
    79  H    0.031763
    80  H   -0.086778
    81  H   -0.424699
    82  C    0.171691
    83  C   -0.140466
    84  N   -0.688360
    85  H   -0.384583
    86  C   -0.948026
    87  N   -0.173916
    88  H   -0.291484
    89  C   -0.970959
    90  H   -0.289718
    91  C    1.149567
    92  C    1.126607
    93  H   -0.300937
    94  C    1.130266
    95  C    1.168433
    96  H   -0.084961
    97  H   -0.152986
    98  H    0.002699
    99  H   -0.082856
   100  H   -0.158277
   101  H   -0.110987
   102  H   -0.080843
   103  H   -0.175925
   104  H    0.064705
   105  H   -0.177334
   106  H   -0.132245
   107  H   -0.050745
   108  C    0.461052
   109  C   -0.486258
   110  N   -0.209439
   111  H   -0.332737
   112  C   -1.375761
   113  N    0.050772
   114  H   -0.441541
   115  C   -0.254450
   116  H   -0.278942
   117  C    1.277103
   118  C    1.261406
   119  H   -0.419915
   120  C    1.372006
   121  C    0.663565
   122  H   -0.044478
   123  H   -0.088633
   124  H   -0.059530
   125  H    0.072589
   126  H   -0.175504
   127  H   -0.118988
   128  H   -0.300885
   129  H   -0.323024
   130  H   -0.084954
   131  H   -0.124569
   132  H   -0.138186
   133  H   -0.154644
   134  H   -0.924665
   135  H    0.028642
   136  H   -0.028520
   137  H    0.009112
   138  H   -0.032072
 Sum of Mulliken charges =   0.00000

 Dipole moment (field-independent basis, Debye):
    X=             -2.6896    Y=              0.9756    Z=              0.0331  Tot=              2.8613
 Quadrupole moment (field-independent basis, Debye-Ang):
   XX=           -370.9686   YY=           -359.9791   ZZ=           -365.5092
   XY=             -4.5797   XZ=             11.3106   YZ=             -7.0914

 Normal termination of Gaussian 16 at Sun Nov  7 10:45:49 2021.
