 Gaussian 16, Revision C.01,
 Gaussian 16:  ES64L-G16RevC.01  3-Jul-2019

 ----------------------------------------------------------------------
 #P MP2/aug-cc-pVDZ SP SCF=(YQC,MaxCycle=900) int=(Grid=Superfinegrid)
 SCRF=(PCM,Solvent=Dichloromethane)
 ----------------------------------------------------------------------

 -----------------------------
 _2_alde1_4_ami2_1_opt_dcm_mp2
 -----------------------------
 Symbolic Z-matrix:
 Charge =  0 Multiplicity = 1

                         Standard orientation:
 ---------------------------------------------------------------------
 Center     Atomic      Atomic             Coordinates (Angstroms)
 Number     Number       Type             X           Y           Z
 ---------------------------------------------------------------------
      1          6           0        2.903466    1.092003   -0.023019
      2          6           0        2.388342    2.271494   -0.711196
      3          6           0        3.965252    0.353330   -0.540934
      4          6           0        4.442294   -0.760699    0.134748
      5          1           0        4.452955    0.655988   -1.456165
      6          6           0        3.828650   -1.166256    1.311012
      7          6           0        2.741892   -0.458616    1.820383
      8          1           0        4.188134   -2.048605    1.822118
      9          6           0        2.297392    0.680709    1.156470
     10          6           0        2.042749   -0.907728    3.017792
     11          1           0        1.463076    1.235170    1.552228
     12          6           0        5.585515   -1.555433   -0.439591
     13          1           0        2.506706   -1.734781    3.581961
     14          1           0        2.499530    2.285471   -1.809050
     15          6           0       -2.460239    1.783061   -0.383872
     16          6           0       -1.839593    3.088019   -0.593594
     17          6           0       -2.031541    0.950100    0.646272
     18          6           0       -2.598124   -0.307579    0.812196
     19          1           0       -1.244755    1.275448    1.306353
     20          6           0       -3.604408   -0.727673   -0.056160
     21          6           0       -4.056400    0.104341   -1.068574
     22          1           0       -4.050598   -1.705985    0.049725
     23          6           0       -3.482397    1.356298   -1.229753
     24          6           0       -5.193388   -0.329171   -1.956729
     25          1           0       -3.830214    2.000777   -2.025216
     26          6           0       -2.116769   -1.205012    1.860443
     27          1           0       -2.239878   -2.274324    1.634368
     28          6           0       -0.102085    4.651347   -0.057976
     29          6           0        1.260960    4.321619   -0.720596
     30          7           0       -0.809968    3.409369    0.051890
     31          7           0        1.844201    3.202255   -0.063832
     32          6           0        6.286056   -2.884623   -2.162595
     33          6           0        7.095644   -1.562870   -2.274286
     34          7           0        5.113355   -2.579655   -1.358832
     35          7           0        6.481970   -0.723457   -1.242423
     36          6           0        0.195227   -0.798821    4.468002
     37          6           0       -1.062811   -1.565253    3.968152
     38          7           0        0.956981   -0.364718    3.350705
     39          7           0       -1.608321   -0.751315    2.916495
     40          6           0       -7.435232   -0.771703   -2.052899
     41          6           0       -6.715846   -2.137072   -2.229623
     42          7           0       -6.471773    0.116416   -1.424103
     43          7           0       -5.306124   -1.786308   -2.038120
     44          1           0       -2.335092    3.722276   -1.343237
     45          1           0       -6.468755   -0.032607   -0.418547
     46          1           0       -5.080510    0.134984   -2.956042
     47          1           0       -4.698772   -2.184913   -2.741541
     48          1           0        7.158288   -0.222482   -0.681916
     49          1           0        4.389512   -2.172071   -1.944958
     50          1           0        6.120644   -2.077940    0.377449
     51          1           0       -8.346181   -0.844939   -1.461962
     52          1           0       -7.684836   -0.352817   -3.033248
     53          1           0        6.002855   -3.291413   -3.131556
     54          1           0        6.872665   -3.636083   -1.624328
     55          1           0        1.919666    5.185997   -0.583792
     56          1           0        1.124438    4.154828   -1.803766
     57          1           0        0.759530   -1.443118    5.163901
     58          1           0       -0.141341    0.101461    4.987265
     59          6           0       -7.124575   -3.122712   -1.129498
     60          1           0       -6.963654   -2.677125   -0.150756
     61          1           0       -6.521207   -4.024783   -1.196781
     62          1           0       -8.173228   -3.392369   -1.228597
     63          6           0       -6.990177   -2.741600   -3.606787
     64          1           0       -8.057088   -2.905467   -3.740230
     65          1           0       -6.478204   -3.696682   -3.708913
     66          1           0       -6.642176   -2.073090   -4.392891
     67          6           0        8.587244   -1.798463   -2.032197
     68          1           0        8.982496   -2.498054   -2.765224
     69          1           0        8.751193   -2.210175   -1.037516
     70          1           0        9.135972   -0.862195   -2.116882
     71          6           0        6.881657   -0.894457   -3.636495
     72          1           0        7.309872   -1.500981   -4.430732
     73          1           0        7.354012    0.084872   -3.647517
     74          1           0        5.818937   -0.762170   -3.824426
     75          6           0        0.150478    5.105961    1.384358
     76          1           0       -0.796471    5.259944    1.895993
     77          1           0        0.718006    6.032983    1.398944
     78          1           0        0.709593    4.330532    1.897821
     79          6           0       -0.796039    5.761952   -0.857038
     80          1           0       -0.928271    5.475118   -1.898754
     81          1           0       -0.191740    6.665070   -0.826767
     82          1           0       -1.770302    5.981172   -0.424871
     83          6           0       -2.095192   -1.618849    5.101627
     84          1           0       -1.661983   -2.079755    5.985988
     85          1           0       -2.960243   -2.199532    4.788097
     86          1           0       -2.425425   -0.613306    5.347863
     87          6           0       -0.660187   -2.989249    3.561175
     88          1           0       -0.173876   -3.486354    4.397111
     89          1           0        0.029462   -2.957491    2.719234
     90          1           0       -1.531890   -3.576961    3.282004
 ---------------------------------------------------------------------

 SCF Done:  E(RHF) =  -1751.21152221     a.u. after    7 cycles
 SCF Done:  E(RHF) =  -1751.21156446     A.U. after   18 cycles
 E2 =    -0.6204772225D+01 EUMP2 =    -0.17574163366887D+04

 The electronic state is 1-A.
 Alpha  occ. eigenvalues --  -15.55715 -15.55536 -15.55505 -15.55455 -15.55417
 Alpha  occ. eigenvalues --  -15.55146 -15.54178 -15.54162 -11.29027 -11.29017
 Alpha  occ. eigenvalues --  -11.28107 -11.27959 -11.27916 -11.27776 -11.26644
 Alpha  occ. eigenvalues --  -11.26342 -11.26034 -11.26024 -11.25259 -11.24917
 Alpha  occ. eigenvalues --  -11.24886 -11.24884 -11.24457 -11.24323 -11.24289
 Alpha  occ. eigenvalues --  -11.24269 -11.24204 -11.24200 -11.24176 -11.24090
 Alpha  occ. eigenvalues --  -11.23959 -11.23777 -11.23452 -11.23440 -11.21700
 Alpha  occ. eigenvalues --  -11.21680 -11.21667 -11.21581 -11.21534 -11.21090
 Alpha  occ. eigenvalues --  -11.21059 -11.20606  -1.28149  -1.28106  -1.25940
 Alpha  occ. eigenvalues --   -1.25729  -1.23393  -1.22915  -1.16861  -1.16191
 Alpha  occ. eigenvalues --   -1.14891  -1.14880  -1.08889  -1.08279  -1.07005
 Alpha  occ. eigenvalues --   -1.05558  -1.04948  -1.02472  -1.02187  -1.01407
 Alpha  occ. eigenvalues --   -0.94823  -0.94588  -0.93765  -0.93610  -0.93600
 Alpha  occ. eigenvalues --   -0.93530  -0.92014  -0.91972  -0.88872  -0.88601
 Alpha  occ. eigenvalues --   -0.86987  -0.85659  -0.85010  -0.83485  -0.79714
 Alpha  occ. eigenvalues --   -0.79021  -0.76562  -0.76451  -0.76063  -0.75771
 Alpha  occ. eigenvalues --   -0.73793  -0.72824  -0.70257  -0.69461  -0.68854
 Alpha  occ. eigenvalues --   -0.68372  -0.67160  -0.67108  -0.66575  -0.66355
 Alpha  occ. eigenvalues --   -0.65067  -0.64359  -0.64033  -0.63508  -0.62346
 Alpha  occ. eigenvalues --   -0.61627  -0.61339  -0.60926  -0.60549  -0.60326
 Alpha  occ. eigenvalues --   -0.59905  -0.59817  -0.59557  -0.59449  -0.58209
 Alpha  occ. eigenvalues --   -0.57968  -0.57139  -0.56628  -0.56403  -0.56171
 Alpha  occ. eigenvalues --   -0.55134  -0.54896  -0.54718  -0.54609  -0.54258
 Alpha  occ. eigenvalues --   -0.54228  -0.53973  -0.53268  -0.52881  -0.52511
 Alpha  occ. eigenvalues --   -0.52357  -0.51915  -0.51080  -0.50988  -0.50857
 Alpha  occ. eigenvalues --   -0.50764  -0.50693  -0.50638  -0.49933  -0.49578
 Alpha  occ. eigenvalues --   -0.49078  -0.48474  -0.48318  -0.48047  -0.47189
 Alpha  occ. eigenvalues --   -0.47016  -0.46753  -0.46730  -0.44551  -0.43409
 Alpha  occ. eigenvalues --   -0.41857  -0.40843  -0.40377  -0.40162  -0.38779
 Alpha  occ. eigenvalues --   -0.38726  -0.38190  -0.37822  -0.36633  -0.36582
 Alpha  occ. eigenvalues --   -0.32474  -0.32330  -0.31949  -0.31728
 Alpha virt. eigenvalues --    0.03272   0.03571   0.03674   0.03880   0.04218
 Alpha virt. eigenvalues --    0.04286   0.04494   0.04662   0.04745   0.05021
 Alpha virt. eigenvalues --    0.05082   0.05466   0.05607   0.05812   0.06034

 Mulliken charges:
               1
     1  C    0.439708
     2  C    0.350795
     3  C    0.565279
     4  C    0.788263
     5  H   -0.838669
     6  C    0.178604
     7  C    0.943198
     8  H   -0.796490
     9  C    0.349926
    10  C    0.541602
    11  H   -0.966321
    12  C    0.484250
    13  H   -0.710895
    14  H   -0.551118
    15  C    1.106977
    16  C    0.025558
    17  C    0.319636
    18  C    0.915202
    19  H   -1.087372
    20  C    0.299694
    21  C    0.434775
    22  H   -0.935503
    23  C    0.239482
    24  C    0.633273
    25  H   -0.801971
    26  C    0.088292
    27  H   -0.647443
    28  C   -3.952167
    29  C    1.839646
    30  N    0.664517
    31  N   -0.418640
    32  C    1.383209
    33  C   -2.285549
    34  N   -0.648310
    35  N   -0.350574
    36  C    1.436755
    37  C   -3.589549
    38  N   -0.205543
    39  N    0.071779
    40  C    1.391766
    41  C   -2.322918
    42  N   -0.579071
    43  N   -0.330304
    44  H   -0.760224
    45  H    0.101057
    46  H   -0.279057
    47  H   -0.037747
    48  H   -0.046751
    49  H    0.101055
    50  H   -0.324282
    51  H   -0.211132
    52  H   -0.294452
    53  H   -0.205596
    54  H   -0.293386
    55  H   -0.209982
    56  H   -0.207263
    57  H   -0.141184
    58  H   -0.299774
    59  C    1.096635
    60  H   -0.070526
    61  H   -0.075521
    62  H   -0.021671
    63  C    1.001749
    64  H   -0.031386
    65  H   -0.015439
    66  H   -0.031471
    67  C    1.014807
    68  H   -0.037900
    69  H   -0.035791
    70  H   -0.019629
    71  C    1.133245
    72  H   -0.017843
    73  H   -0.084028
    74  H   -0.073506
    75  C    1.508632
    76  H   -0.110216
    77  H   -0.015170
    78  H   -0.047530
    79  C    1.526694
    80  H    0.018626
    81  H   -0.190045
    82  H    0.082635
    83  C    1.587745
    84  H    0.004345
    85  H   -0.066751
    86  H   -0.050887
    87  C    1.741578
    88  H   -0.155188
    89  H    0.074255
    90  H   -0.005509
 Sum of Mulliken charges =   0.00000

 Dipole moment (field-independent basis, Debye):
    X=              1.2040    Y=             -3.8961    Z=             -4.5955  Tot=              6.1439
 Quadrupole moment (field-independent basis, Debye-Ang):
   XX=           -214.1062   YY=           -245.4419   ZZ=           -238.5052
   XY=              4.7503   XZ=              4.4170   YZ=            -14.1024

 Normal termination of Gaussian 16 at Tue Nov  2 06:14:27 2021.
