 Gaussian 16, Revision C.01,
 Gaussian 16:  ES64L-G16RevC.01  3-Jul-2019

 ----------------------------------------------------------------------
 #P PBE1PBE/Def2TZVP SP SCF=(YQC,MaxCycle=900) int=(Grid=Superfinegrid)
  EmpiricalDispersion=GD3 SCRF=(PCM,Solvent=Chloroform)
 ----------------------------------------------------------------------

 -------------------------
 _2_alde1_4_ami3_1_opt_cfm
 -------------------------
 Symbolic Z-matrix:
 Charge =  0 Multiplicity = 1

                         Standard orientation:
 ---------------------------------------------------------------------
 Center     Atomic      Atomic             Coordinates (Angstroms)
 Number     Number       Type             X           Y           Z
 ---------------------------------------------------------------------
      1          6           0        1.850040    1.154403   -1.930407
      2          6           0        2.751299    2.146725   -1.368995
      3          6           0        0.663136    1.522196   -2.563079
      4          6           0       -0.233611    0.555370   -2.995045
      5          1           0        0.449819    2.571043   -2.699353
      6          6           0        0.035609   -0.784404   -2.757720
      7          6           0        1.218443   -1.169613   -2.128508
      8          1           0       -0.682049   -1.524949   -3.077385
      9          6           0        2.132742   -0.194276   -1.743991
     10          6           0        1.448200   -2.563211   -1.776955
     11          1           0        3.045528   -0.510249   -1.264189
     12          6           0       -1.518658    0.990203   -3.662143
     13          1           0        0.552673   -3.206017   -1.785907
     14          1           0        3.692414    1.744827   -0.963119
     15          6           0        1.218165    1.169815    2.128516
     16          6           0        1.447609    2.563473    1.776882
     17          6           0        2.132655    0.194691    1.743876
     18          6           0        1.850184   -1.154052    1.930306
     19          1           0        3.045388    0.510753    1.264128
     20          6           0        0.663391   -1.522173    2.563040
     21          6           0       -0.233471   -0.555514    2.994959
     22          1           0        0.450233   -2.571030    2.699318
     23          6           0        0.035433    0.784311    2.757775
     24          6           0       -1.518471   -0.990520    3.662203
     25          1           0       -0.682394    1.524741    3.077435
     26          6           0        2.751726   -2.146168    1.368902
     27          1           0        3.692633   -1.744113    0.962971
     28          6           0        2.702833    4.325049    0.912894
     29          6           0        3.322787    4.210093   -0.503218
     30          7           0        2.578429    2.997392    1.426078
     31          7           0        2.458033    3.371046   -1.274739
     32          6           0       -3.436822   -0.159419   -3.066633
     33          6           0       -3.650815    1.339618   -2.794138
     34          7           0       -2.354662   -0.161579   -4.040028
     35          7           0       -2.296201    1.868684   -2.755693
     36          6           0        2.703775   -4.324576   -0.912840
     37          6           0        3.323659   -4.209488    0.503195
     38          7           0        2.579050   -2.996913   -1.425968
     39          7           0        2.458696   -3.370590    1.274740
     40          6           0       -3.650524   -1.340334    2.794076
     41          6           0       -3.436824    0.158812    3.066760
     42          7           0       -2.295870   -1.869135    2.755732
     43          7           0       -2.354698    0.160946    4.040140
     44          1           0        0.551935    3.206086    1.785827
     45          1           0       -1.919490   -1.798167    1.813807
     46          1           0       -1.264889   -1.570151    4.561026
     47          1           0       -2.735229    0.025159    4.971285
     48          1           0       -1.919805    1.797709   -1.813737
     49          1           0       -2.735236   -0.025933   -4.971274
     50          1           0       -1.265154    1.569786   -4.561102
     51          6           0       -4.747827    0.819612    3.439606
     52          6           0       -4.538997    1.528838   -1.581858
     53          6           0        3.620899    5.178329    1.788138
     54          6           0        3.450905   -5.600709    1.115020
     55          1           0        1.717793    4.818654    0.822556
     56          6           0        3.449689    5.601373   -1.114935
     57          1           0        4.322740    3.755801   -0.383258
     58          6           0        4.336453    6.481321   -0.239307
     59          1           0        2.453540    6.036521   -1.208221
     60          1           0        3.873233    5.513739   -2.117354
     61          6           0        3.782982    6.568117    1.180603
     62          1           0        4.405839    7.481468   -0.671741
     63          1           0        5.343790    6.059350   -0.208542
     64          1           0        2.810942    7.066711    1.159338
     65          1           0        4.451860    7.164915    1.804279
     66          1           0        4.589850    4.683210    1.870719
     67          1           0        3.192718    5.249450    2.790519
     68          1           0       -4.140789    1.788277   -3.671693
     69          6           0       -5.878324    0.847485   -1.881872
     70          1           0       -4.692167    2.588745   -1.371848
     71          1           0       -4.068197    1.071333   -0.707325
     72          6           0       -5.712752   -0.626540   -2.264951
     73          1           0       -6.362902    1.378102   -2.704727
     74          1           0       -6.531701    0.920853   -1.010159
     75          6           0       -4.747782   -0.820520   -3.439523
     76          1           0       -6.689435   -1.041662   -2.521236
     77          1           0       -5.332683   -1.181375   -1.404344
     78          1           0       -5.154066   -0.354965   -4.341125
     79          1           0       -4.605588   -1.883724   -3.639532
     80          1           0       -3.040811   -0.627615   -2.152960
     81          1           0       -3.040840    0.627087    2.153088
     82          6           0       -5.712759    0.625646    2.264928
     83          1           0       -4.605803    1.882943    3.639599
     84          1           0       -5.154083    0.353996    4.341035
     85          6           0       -5.878145   -0.848415    1.881844
     86          1           0       -5.332740    1.180508    1.404369
     87          1           0       -6.689509    1.040640    2.521201
     88          6           0       -4.538714   -1.529630    1.581749
     89          1           0       -6.531438   -0.921879    1.010001
     90          1           0       -6.362662   -1.379119    2.704652
     91          1           0       -4.691707   -2.589441    1.371756
     92          1           0       -4.067959   -1.071933    0.707349
     93          1           0       -4.140513   -1.789075    3.671602
     94          1           0        4.323547   -3.755016    0.383256
     95          6           0        3.621971   -5.177582   -1.788134
     96          1           0        1.718755   -4.818318   -0.822523
     97          6           0        3.784352   -6.567369   -1.180640
     98          1           0        4.590843   -4.682231   -1.870659
     99          1           0        3.193852   -5.248764   -2.790492
    100          6           0        4.337735   -6.480500    0.239361
    101          1           0        4.453317   -7.164038   -1.804254
    102          1           0        2.812437   -7.066219   -1.159283
    103          1           0        5.345068   -6.058233    0.208576
    104          1           0        4.407416   -7.480648    0.671823
    105          1           0        2.454777   -6.036193    1.208203
    106          1           0        3.874392   -5.513097    2.117345
 ---------------------------------------------------------------------

 SCF Done:  E(RPBE1PBE) =  -2070.57401506     a.u. after    6 cycles
 SCF Done:  E(RPBE1PBE) =  -2070.57405195     A.U. after    8 cycles

 The electronic state is 1-A.
 Alpha  occ. eigenvalues --  -14.37441 -14.37440 -14.37171 -14.37171 -14.37147
 Alpha  occ. eigenvalues --  -14.37146 -14.36953 -14.36951 -10.27926 -10.27925
 Alpha  occ. eigenvalues --  -10.26366 -10.26366 -10.26054 -10.26053 -10.24955
 Alpha  occ. eigenvalues --  -10.24954 -10.24717 -10.24717 -10.24304 -10.24303
 Alpha  occ. eigenvalues --  -10.24225 -10.24225 -10.23724 -10.23724 -10.23719
 Alpha  occ. eigenvalues --  -10.23719 -10.23647 -10.23646 -10.23048 -10.23047
 Alpha  occ. eigenvalues --  -10.22959 -10.22959 -10.22892 -10.22891 -10.21895
 Alpha  occ. eigenvalues --  -10.21894 -10.21848 -10.21848 -10.21833 -10.21832
 Alpha  occ. eigenvalues --  -10.21802 -10.21802 -10.21449 -10.21449 -10.21301
 Alpha  occ. eigenvalues --  -10.21301 -10.21225 -10.21224 -10.21131 -10.21131
 Alpha  occ. eigenvalues --   -0.99272  -0.99269  -0.97599  -0.97483  -0.94798
 Alpha  occ. eigenvalues --   -0.94467  -0.89960  -0.89260  -0.88203  -0.88199
 Alpha  occ. eigenvalues --   -0.85693  -0.85650  -0.85349  -0.84884  -0.80485
 Alpha  occ. eigenvalues --   -0.80303  -0.80212  -0.80053  -0.76541  -0.76260
 Alpha  occ. eigenvalues --   -0.76255  -0.76125  -0.75943  -0.74915  -0.74331
 Alpha  occ. eigenvalues --   -0.74296  -0.68102  -0.67800  -0.66958  -0.66752
 Alpha  occ. eigenvalues --   -0.66362  -0.65467  -0.62924  -0.62883  -0.62520
 Alpha  occ. eigenvalues --   -0.62250  -0.62233  -0.61888  -0.61617  -0.60966
 Alpha  occ. eigenvalues --   -0.59423  -0.59140  -0.58362  -0.58165  -0.57386
 Alpha  occ. eigenvalues --   -0.57222  -0.55891  -0.55486  -0.53556  -0.53009
 Alpha  occ. eigenvalues --   -0.52474  -0.52420  -0.51477  -0.51125  -0.50879
 Alpha  occ. eigenvalues --   -0.50393  -0.49613  -0.49079  -0.48265  -0.48229
 Alpha  occ. eigenvalues --   -0.48121  -0.48041  -0.47779  -0.47458  -0.47104
 Alpha  occ. eigenvalues --   -0.47048  -0.46562  -0.45890  -0.45744  -0.45268
 Alpha  occ. eigenvalues --   -0.44654  -0.44537  -0.44428  -0.44205  -0.43772
 Alpha  occ. eigenvalues --   -0.43663  -0.43404  -0.43379  -0.41883  -0.41842
 Alpha  occ. eigenvalues --   -0.41521  -0.41404  -0.41265  -0.41077  -0.40687
 Alpha  occ. eigenvalues --   -0.40465  -0.40033  -0.39859  -0.39849  -0.39736
 Alpha  occ. eigenvalues --   -0.38080  -0.37701  -0.37480  -0.37448  -0.37064
 Alpha  occ. eigenvalues --   -0.36949  -0.36437  -0.36286  -0.36159  -0.36064
 Alpha  occ. eigenvalues --   -0.36047  -0.35795  -0.35597  -0.35477  -0.35143
 Alpha  occ. eigenvalues --   -0.35129  -0.34354  -0.33977  -0.33867  -0.33558
 Alpha  occ. eigenvalues --   -0.33425  -0.33413  -0.33249  -0.33186  -0.32575
 Alpha  occ. eigenvalues --   -0.32527  -0.32045  -0.31474  -0.30799  -0.30096
 Alpha  occ. eigenvalues --   -0.27354  -0.27170  -0.26697  -0.26680  -0.26546
 Alpha  occ. eigenvalues --   -0.26184  -0.25147  -0.25023  -0.24972  -0.24701
 Alpha  occ. eigenvalues --   -0.24374  -0.24366
 Alpha virt. eigenvalues --   -0.06051  -0.05416  -0.04022  -0.03482   0.01666
 Alpha virt. eigenvalues --    0.02050   0.02331   0.04026   0.04631   0.04694
 Alpha virt. eigenvalues --    0.04834   0.04925   0.05248   0.05251   0.05659

 Mulliken charges:
               1
     1  C    0.387025
     2  C   -0.180923
     3  C   -0.407505
     4  C    0.122885
     5  H    0.121579
     6  C   -0.324776
     7  C    0.305177
     8  H    0.144654
     9  C   -0.290519
    10  C   -0.174233
    11  H    0.126535
    12  C    0.074254
    13  H    0.079942
    14  H    0.095002
    15  C    0.305194
    16  C   -0.174252
    17  C   -0.290540
    18  C    0.387138
    19  H    0.126541
    20  C   -0.407662
    21  C    0.123004
    22  H    0.121577
    23  C   -0.324819
    24  C    0.074318
    25  H    0.144661
    26  C   -0.180937
    27  H    0.095027
    28  C    0.027465
    29  C    0.044072
    30  N   -0.197210
    31  N   -0.202056
    32  C   -0.076801
    33  C   -0.061441
    34  N   -0.286081
    35  N   -0.288371
    36  C    0.027475
    37  C    0.044055
    38  N   -0.197220
    39  N   -0.202090
    40  C   -0.061519
    41  C   -0.076803
    42  N   -0.288368
    43  N   -0.286039
    44  H    0.079954
    45  H    0.209942
    46  H    0.098185
    47  H    0.202936
    48  H    0.209951
    49  H    0.202954
    50  H    0.098188
    51  C   -0.140219
    52  C   -0.194847
    53  C   -0.194642
    54  C   -0.173368
    55  H    0.052670
    56  C   -0.173410
    57  H    0.057856
    58  C   -0.192146
    59  H    0.100857
    60  H    0.107917
    61  C   -0.178972
    62  H    0.111777
    63  H    0.093242
    64  H    0.092695
    65  H    0.112154
    66  H    0.104145
    67  H    0.111142
    68  H    0.063151
    69  C   -0.195886
    70  H    0.111696
    71  H    0.091037
    72  C   -0.214119
    73  H    0.105807
    74  H    0.120512
    75  C   -0.140279
    76  H    0.114615
    77  H    0.105541
    78  H    0.097330
    79  H    0.109801
    80  H    0.070583
    81  H    0.070572
    82  C   -0.214154
    83  H    0.109771
    84  H    0.097348
    85  C   -0.195903
    86  H    0.105560
    87  H    0.114618
    88  C   -0.194803
    89  H    0.120498
    90  H    0.105818
    91  H    0.111706
    92  H    0.091023
    93  H    0.063133
    94  H    0.057866
    95  C   -0.194638
    96  H    0.052662
    97  C   -0.178961
    98  H    0.104144
    99  H    0.111150
   100  C   -0.192202
   101  H    0.112172
   102  H    0.092685
   103  H    0.093213
   104  H    0.111795
   105  H    0.100819
   106  H    0.107944
 Sum of Mulliken charges =   0.00000

 Dipole moment (field-independent basis, Debye):
    X=             -5.0430    Y=             -0.0000    Z=             -0.0005  Tot=              5.0430
 Quadrupole moment (field-independent basis, Debye-Ang):
   XX=           -269.1710   YY=           -293.5671   ZZ=           -297.9046
   XY=              0.0020   XZ=             -0.0010   YZ=              8.2784

 1\1\GINC-CX3-6-1\SP\RPBE1PBE\def2TZVP\C42H56N8\ATARZIA\18-Oct-2021\0\\
 #P PBE1PBE/Def2TZVP SP SCF=(YQC,MaxCycle=900) int=(Grid=Superfinegrid)
  EmpiricalDispersion=GD3 SCRF=(PCM,Solvent=Chloroform)\\_2_alde1_4_ami
 3_1_opt_cfm\\0,1\C,0,-3.8474,-1.9079,-0.377\C,0,-4.1136,-1.5038,0.9934
 \C,0,-3.1019,-3.0495,-0.669\C,0,-2.7684,-3.3565,-1.9805\H,0,-2.7795,-3
 .682,0.1435\C,0,-3.1453,-2.4981,-3.0027\C,0,-3.8927,-1.3537,-2.7286\H,
 0,-2.8584,-2.7363,-4.0159\C,0,-4.2633,-1.0821,-1.4156\C,0,-4.1894,-0.3
 951,-3.7829\H,0,-4.8468,-0.1959,-1.2222\C,0,-1.9447,-4.5931,-2.2594\H,

 Normal termination of Gaussian 16 at Mon Oct 18 12:02:03 2021.
