 Gaussian 16, Revision C.01,
 Gaussian 16:  ES64L-G16RevC.01  3-Jul-2019

 ----------------------------------------------------------------------
 #P MP2/aug-cc-pVDZ SP SCF=(YQC,MaxCycle=900) int=(Grid=Superfinegrid)
 SCRF=(PCM,Solvent=Dichloromethane)
 ----------------------------------------------------------------------

 -----------------------------
 _2_alde1_4_ami3_1_opt_dcm_mp2
 -----------------------------
 Symbolic Z-matrix:
 Charge =  0 Multiplicity = 1

                         Standard orientation:
 ---------------------------------------------------------------------
 Center     Atomic      Atomic             Coordinates (Angstroms)
 Number     Number       Type             X           Y           Z
 ---------------------------------------------------------------------
      1          6           0        1.850040    1.154403   -1.930407
      2          6           0        2.751299    2.146725   -1.368995
      3          6           0        0.663136    1.522196   -2.563079
      4          6           0       -0.233611    0.555370   -2.995045
      5          1           0        0.449819    2.571043   -2.699353
      6          6           0        0.035609   -0.784404   -2.757720
      7          6           0        1.218443   -1.169613   -2.128508
      8          1           0       -0.682049   -1.524949   -3.077385
      9          6           0        2.132742   -0.194276   -1.743991
     10          6           0        1.448200   -2.563211   -1.776955
     11          1           0        3.045528   -0.510249   -1.264189
     12          6           0       -1.518658    0.990203   -3.662143
     13          1           0        0.552673   -3.206017   -1.785907
     14          1           0        3.692414    1.744827   -0.963119
     15          6           0        1.218165    1.169815    2.128516
     16          6           0        1.447609    2.563473    1.776882
     17          6           0        2.132655    0.194691    1.743876
     18          6           0        1.850184   -1.154052    1.930306
     19          1           0        3.045388    0.510753    1.264128
     20          6           0        0.663391   -1.522173    2.563040
     21          6           0       -0.233471   -0.555514    2.994959
     22          1           0        0.450233   -2.571030    2.699318
     23          6           0        0.035433    0.784311    2.757775
     24          6           0       -1.518471   -0.990520    3.662203
     25          1           0       -0.682394    1.524741    3.077435
     26          6           0        2.751726   -2.146168    1.368902
     27          1           0        3.692633   -1.744113    0.962971
     28          6           0        2.702833    4.325049    0.912894
     29          6           0        3.322787    4.210093   -0.503218
     30          7           0        2.578429    2.997392    1.426078
     31          7           0        2.458033    3.371046   -1.274739
     32          6           0       -3.436822   -0.159419   -3.066633
     33          6           0       -3.650815    1.339618   -2.794138
     34          7           0       -2.354662   -0.161579   -4.040028
     35          7           0       -2.296201    1.868684   -2.755693
     36          6           0        2.703775   -4.324576   -0.912840
     37          6           0        3.323659   -4.209488    0.503195
     38          7           0        2.579050   -2.996913   -1.425968
     39          7           0        2.458696   -3.370590    1.274740
     40          6           0       -3.650524   -1.340334    2.794076
     41          6           0       -3.436824    0.158812    3.066760
     42          7           0       -2.295870   -1.869135    2.755732
     43          7           0       -2.354698    0.160946    4.040140
     44          1           0        0.551935    3.206086    1.785827
     45          1           0       -1.919490   -1.798167    1.813807
     46          1           0       -1.264889   -1.570151    4.561026
     47          1           0       -2.735229    0.025159    4.971285
     48          1           0       -1.919805    1.797709   -1.813737
     49          1           0       -2.735236   -0.025933   -4.971274
     50          1           0       -1.265154    1.569786   -4.561102
     51          6           0       -4.747827    0.819612    3.439606
     52          6           0       -4.538997    1.528838   -1.581858
     53          6           0        3.620899    5.178329    1.788138
     54          6           0        3.450905   -5.600709    1.115020
     55          1           0        1.717793    4.818654    0.822556
     56          6           0        3.449689    5.601373   -1.114935
     57          1           0        4.322740    3.755801   -0.383258
     58          6           0        4.336453    6.481321   -0.239307
     59          1           0        2.453540    6.036521   -1.208221
     60          1           0        3.873233    5.513739   -2.117354
     61          6           0        3.782982    6.568117    1.180603
     62          1           0        4.405839    7.481468   -0.671741
     63          1           0        5.343790    6.059350   -0.208542
     64          1           0        2.810942    7.066711    1.159338
     65          1           0        4.451860    7.164915    1.804279
     66          1           0        4.589850    4.683210    1.870719
     67          1           0        3.192718    5.249450    2.790519
     68          1           0       -4.140789    1.788277   -3.671693
     69          6           0       -5.878324    0.847485   -1.881872
     70          1           0       -4.692167    2.588745   -1.371848
     71          1           0       -4.068197    1.071333   -0.707325
     72          6           0       -5.712752   -0.626540   -2.264951
     73          1           0       -6.362902    1.378102   -2.704727
     74          1           0       -6.531701    0.920853   -1.010159
     75          6           0       -4.747782   -0.820520   -3.439523
     76          1           0       -6.689435   -1.041662   -2.521236
     77          1           0       -5.332683   -1.181375   -1.404344
     78          1           0       -5.154066   -0.354965   -4.341125
     79          1           0       -4.605588   -1.883724   -3.639532
     80          1           0       -3.040811   -0.627615   -2.152960
     81          1           0       -3.040840    0.627087    2.153088
     82          6           0       -5.712759    0.625646    2.264928
     83          1           0       -4.605803    1.882943    3.639599
     84          1           0       -5.154083    0.353996    4.341035
     85          6           0       -5.878145   -0.848415    1.881844
     86          1           0       -5.332740    1.180508    1.404369
     87          1           0       -6.689509    1.040640    2.521201
     88          6           0       -4.538714   -1.529630    1.581749
     89          1           0       -6.531438   -0.921879    1.010001
     90          1           0       -6.362662   -1.379119    2.704652
     91          1           0       -4.691707   -2.589441    1.371756
     92          1           0       -4.067959   -1.071933    0.707349
     93          1           0       -4.140513   -1.789075    3.671602
     94          1           0        4.323547   -3.755016    0.383256
     95          6           0        3.621971   -5.177582   -1.788134
     96          1           0        1.718755   -4.818318   -0.822523
     97          6           0        3.784352   -6.567369   -1.180640
     98          1           0        4.590843   -4.682231   -1.870659
     99          1           0        3.193852   -5.248764   -2.790492
    100          6           0        4.337735   -6.480500    0.239361
    101          1           0        4.453317   -7.164038   -1.804254
    102          1           0        2.812437   -7.066219   -1.159283
    103          1           0        5.345068   -6.058233    0.208576
    104          1           0        4.407416   -7.480648    0.671823
    105          1           0        2.454777   -6.036193    1.208203
    106          1           0        3.874392   -5.513097    2.117345
 ---------------------------------------------------------------------

 SCF Done:  E(RHF) =  -2058.88764501     a.u. after    7 cycles
 SCF Done:  E(RHF) =  -2058.88770046     A.U. after   15 cycles
 E2 =    -0.7340172060D+01 EUMP2 =    -0.20662278725204D+04

 The electronic state is 1-A.
 Alpha  occ. eigenvalues --  -15.55834 -15.55833 -15.55595 -15.55594 -15.55190
 Alpha  occ. eigenvalues --  -15.55188 -15.55139 -15.55138 -11.29220 -11.29219
 Alpha  occ. eigenvalues --  -11.28412 -11.28412 -11.28210 -11.28209 -11.25463
 Alpha  occ. eigenvalues --  -11.25462 -11.25272 -11.25271 -11.24912 -11.24911
 Alpha  occ. eigenvalues --  -11.24817 -11.24816 -11.24682 -11.24682 -11.24639
 Alpha  occ. eigenvalues --  -11.24639 -11.24475 -11.24474 -11.24386 -11.24386
 Alpha  occ. eigenvalues --  -11.24234 -11.24234 -11.24187 -11.24187 -11.22402
 Alpha  occ. eigenvalues --  -11.22401 -11.22381 -11.22381 -11.22339 -11.22339
 Alpha  occ. eigenvalues --  -11.22287 -11.22287 -11.21935 -11.21934 -11.21864
 Alpha  occ. eigenvalues --  -11.21863 -11.21802 -11.21801 -11.21691 -11.21691
 Alpha  occ. eigenvalues --   -1.27963  -1.27957  -1.26516  -1.26355  -1.23375
 Alpha  occ. eigenvalues --   -1.22947  -1.17329  -1.16499  -1.14973  -1.14971
 Alpha  occ. eigenvalues --   -1.11596  -1.11547  -1.11108  -1.10633  -1.05557
 Alpha  occ. eigenvalues --   -1.05389  -1.05258  -1.05060  -1.00482  -1.00098
 Alpha  occ. eigenvalues --   -1.00054  -0.99897  -0.99802  -0.98600  -0.97861
 Alpha  occ. eigenvalues --   -0.97816  -0.89825  -0.89313  -0.88305  -0.88112
 Alpha  occ. eigenvalues --   -0.87426  -0.86257  -0.83130  -0.83032  -0.82650
 Alpha  occ. eigenvalues --   -0.82084  -0.81965  -0.81760  -0.81460  -0.80656
 Alpha  occ. eigenvalues --   -0.78249  -0.77870  -0.77177  -0.76837  -0.76211
 Alpha  occ. eigenvalues --   -0.75790  -0.74702  -0.73952  -0.70420  -0.70011
 Alpha  occ. eigenvalues --   -0.69088  -0.68762  -0.67218  -0.67017  -0.66694
 Alpha  occ. eigenvalues --   -0.66323  -0.65861  -0.65094  -0.64199  -0.64185
 Alpha  occ. eigenvalues --   -0.63288  -0.63265  -0.63076  -0.62693  -0.62464
 Alpha  occ. eigenvalues --   -0.62169  -0.61578  -0.60725  -0.60643  -0.60060
 Alpha  occ. eigenvalues --   -0.59614  -0.59523  -0.59098  -0.59008  -0.58684
 Alpha  occ. eigenvalues --   -0.58484  -0.57606  -0.57472  -0.56043  -0.55839
 Alpha  occ. eigenvalues --   -0.55439  -0.55348  -0.54959  -0.54910  -0.54324
 Alpha  occ. eigenvalues --   -0.54218  -0.53741  -0.53495  -0.52676  -0.52653
 Alpha  occ. eigenvalues --   -0.52106  -0.51370  -0.51034  -0.50659  -0.50273
 Alpha  occ. eigenvalues --   -0.50049  -0.49322  -0.49194  -0.49069  -0.48964
 Alpha  occ. eigenvalues --   -0.48803  -0.48445  -0.48036  -0.47971  -0.47029
 Alpha  occ. eigenvalues --   -0.46961  -0.46955  -0.46486  -0.46168  -0.45962
 Alpha  occ. eigenvalues --   -0.45596  -0.45353  -0.45131  -0.45038  -0.44912
 Alpha  occ. eigenvalues --   -0.44855  -0.43419  -0.42401  -0.41325  -0.40840
 Alpha  occ. eigenvalues --   -0.40557  -0.40319  -0.39665  -0.39560  -0.37974
 Alpha  occ. eigenvalues --   -0.37945  -0.37407  -0.37405  -0.33272  -0.32119
 Alpha  occ. eigenvalues --   -0.31943  -0.31847
 Alpha virt. eigenvalues --    0.03236   0.03504   0.03571   0.03609   0.03984
 Alpha virt. eigenvalues --    0.04066   0.04277   0.04347   0.04444   0.04913
 Alpha virt. eigenvalues --    0.04984   0.05233   0.05241   0.05466   0.05695

 Mulliken charges:
               1
     1  C    1.479981
     2  C    0.442504
     3  C   -0.077883
     4  C    0.193931
     5  H   -1.084138
     6  C    0.767480
     7  C    1.329747
     8  H   -0.857161
     9  C    0.489685
    10  C    0.412732
    11  H   -1.044130
    12  C    0.959268
    13  H   -0.785765
    14  H   -0.721579
    15  C    1.329511
    16  C    0.413141
    17  C    0.489593
    18  C    1.480305
    19  H   -1.044303
    20  C   -0.077605
    21  C    0.194281
    22  H   -1.084174
    23  C    0.767115
    24  C    0.959628
    25  H   -0.857035
    26  C    0.443358
    27  H   -0.722103
    28  C   -0.217024
    29  C   -0.003824
    30  N   -0.465834
    31  N   -0.547615
    32  C   -0.109433
    33  C   -0.020675
    34  N   -0.797047
    35  N   -0.530824
    36  C   -0.218074
    37  C   -0.003791
    38  N   -0.465622
    39  N   -0.547872
    40  C   -0.020631
    41  C   -0.109823
    42  N   -0.530876
    43  N   -0.796764
    44  H   -0.785708
    45  H    0.246689
    46  H   -0.217768
    47  H    0.105289
    48  H    0.246751
    49  H    0.105430
    50  H   -0.217309
    51  C    0.748511
    52  C    1.006314
    53  C    0.704156
    54  C    0.762341
    55  H   -0.311775
    56  C    0.762012
    57  H   -0.373043
    58  C    0.533370
    59  H   -0.120116
    60  H   -0.207203
    61  C    0.542450
    62  H   -0.143380
    63  H   -0.081778
    64  H   -0.079360
    65  H   -0.141687
    66  H   -0.127297
    67  H   -0.240724
    68  H   -0.457744
    69  C    0.618655
    70  H   -0.241261
    71  H    0.039341
    72  C    0.417163
    73  H   -0.130848
    74  H   -0.242428
    75  C    0.748959
    76  H   -0.187763
    77  H   -0.211502
    78  H   -0.024218
    79  H   -0.136278
    80  H   -0.861353
    81  H   -0.861246
    82  C    0.417401
    83  H   -0.135786
    84  H   -0.024523
    85  C    0.618256
    86  H   -0.211762
    87  H   -0.187748
    88  C    1.007267
    89  H   -0.242158
    90  H   -0.130989
    91  H   -0.241721
    92  H    0.039075
    93  H   -0.457661
    94  H   -0.372921
    95  C    0.704477
    96  H   -0.311561
    97  C    0.542800
    98  H   -0.127124
    99  H   -0.240854
   100  C    0.532582
   101  H   -0.141872
   102  H   -0.079318
   103  H   -0.081422
   104  H   -0.143417
   105  H   -0.119700
   106  H   -0.207616
 Sum of Mulliken charges =   0.00000

 Dipole moment (field-independent basis, Debye):
    X=             -5.5464    Y=             -0.0002    Z=             -0.0006  Tot=              5.5464
 Quadrupole moment (field-independent basis, Debye-Ang):
   XX=           -273.5095   YY=           -303.2006   ZZ=           -304.9842
   XY=              0.0023   XZ=             -0.0014   YZ=              9.6187

 Normal termination of Gaussian 16 at Sun Nov  7 11:11:13 2021.
