 Gaussian 16, Revision C.01,
 Gaussian 16:  ES64L-G16RevC.01  3-Jul-2019

 ----------------------------------------------------------------------
 #P PBE1PBE/Def2TZVP SP SCF=(YQC,MaxCycle=900) int=(Grid=Superfinegrid)
  EmpiricalDispersion=GD3
 ----------------------------------------------------------------------

 -------------------------
 _2_alde1_3_ami3_1_opt_gas
 -------------------------
 Symbolic Z-matrix:
 Charge =  0 Multiplicity = 1

                         Standard orientation:
 ---------------------------------------------------------------------
 Center     Atomic      Atomic             Coordinates (Angstroms)
 Number     Number       Type             X           Y           Z
 ---------------------------------------------------------------------
      1          6           0        3.120299   -1.049935    0.823595
      2          6           0        3.083598   -2.051722   -0.230498
      3          6           0        3.178659   -1.412313    2.167879
      4          6           0        3.098528   -0.439216    3.158414
      5          1           0        3.275014   -2.457693    2.418518
      6          6           0        2.917288    0.899417    2.806128
      7          6           0        2.865354    1.274826    1.469193
      8          1           0        2.822028    1.632226    3.594644
      9          6           0        2.995955    0.294528    0.486839
     10          6           0        2.576073    2.652430    1.090511
     11          1           0        2.960272    0.604808   -0.545734
     12          6           0        3.172146   -0.813586    4.577529
     13          1           0        2.126504    3.273581    1.880656
     14          1           0        3.107242   -1.654868   -1.256071
     15          6           0       -0.766808   -1.276636   -0.443808
     16          6           0       -0.277190   -2.646689   -0.470264
     17          6           0       -0.068313   -0.272609   -1.106850
     18          6           0       -0.431287    1.060805   -0.953221
     19          1           0        0.783023   -0.551793   -1.707269
     20          6           0       -1.546877    1.381246   -0.180005
     21          6           0       -2.284451    0.382826    0.439656
     22          1           0       -1.817780    2.419423   -0.065741
     23          6           0       -1.875981   -0.938334    0.329490
     24          6           0       -3.515409    0.753623    1.236949
     25          1           0       -2.433931   -1.699384    0.853765
     26          6           0        0.425421    2.092025   -1.513274
     27          1           0        1.236479    1.723844   -2.161161
     28          6           0        1.156289   -4.345156   -1.170446
     29          6           0        2.693528   -4.155728   -1.099050
     30          7           0        0.577808   -3.045662   -1.307680
     31          1           0        0.822494   -4.841562   -0.240960
     32          6           0        0.823553   -5.234739   -2.368603
     33          7           0        2.954050   -3.285089    0.005087
     34          1           0        3.008268   -3.699714   -2.054261
     35          6           0        3.364512   -5.513045   -0.918166
     36          6           0        1.506260   -6.591005   -2.222018
     37          6           0        3.018073   -6.428990   -2.087958
     38          8           0        3.099267   -0.048699    5.504833
     39          6           0        2.309162    4.385962   -0.441362
     40          6           0        1.350765    4.204399   -1.646060
     41          7           0        2.774556    3.085533   -0.076372
     42          1           0        1.746377    4.860402    0.382511
     43          6           0        3.465322    5.294539   -0.859454
     44          7           0        0.312329    3.315560   -1.224038
     45          1           0        1.943645    3.769382   -2.470820
     46          6           0        0.796047    5.563426   -2.059501
     47          6           0        2.930311    6.652866   -1.302072
     48          6           0        1.935694    6.499540   -2.449866
     49          6           0       -5.341052   -0.570746    0.778415
     50          6           0       -5.731042    0.893721    0.514249
     51          7           0       -4.226089   -0.443382    1.706052
     52          1           0       -4.929374   -0.995724   -0.148716
     53          6           0       -6.552261   -1.374538    1.202611
     54          7           0       -4.444720    1.568533    0.414531
     55          1           0       -6.229207    1.290231    1.412457
     56          6           0       -6.687524    0.978979   -0.657834
     57          6           0       -7.575525   -1.294548    0.064678
     58          6           0       -7.926509    0.150779   -0.301367
     59          1           0       -0.664673   -3.300476    0.327432
     60          1           0       -4.584311   -0.290723    2.644022
     61          1           0       -3.202153    1.357142    2.100373
     62          1           0       -4.128146    1.571534   -0.551369
     63          1           0        3.308003   -1.900998    4.742407
     64          1           0        3.761044    7.289661   -1.612940
     65          1           0        2.435006    7.136897   -0.457141
     66          1           0        1.532867    7.476562   -2.723673
     67          1           0        2.451983    6.093651   -3.323022
     68          1           0        0.110603    5.429303   -2.898486
     69          1           0        0.228618    5.979800   -1.225822
     70          1           0        4.149216    5.412456   -0.016102
     71          1           0        4.013433    4.817245   -1.673442
     72          1           0       -6.969218    2.014424   -0.855428
     73          1           0       -6.210647    0.576451   -1.555356
     74          1           0       -8.620986    0.149093   -1.143556
     75          1           0       -8.431890    0.621401    0.545208
     76          1           0       -8.486039   -1.823370    0.352493
     77          1           0       -7.163098   -1.795941   -0.814069
     78          1           0       -6.975049   -0.954755    2.118795
     79          1           0       -6.282199   -2.413798    1.396570
     80          1           0        3.025248   -5.951047    0.021951
     81          1           0        4.445143   -5.372534   -0.853150
     82          1           0        1.156409   -4.737227   -3.281127
     83          1           0       -0.259887   -5.359588   -2.428940
     84          1           0        1.274924   -7.212994   -3.089117
     85          1           0        1.116985   -7.095434   -1.334491
     86          1           0        3.483888   -7.405448   -1.941917
     87          1           0        3.418550   -6.001715   -3.010396
 ---------------------------------------------------------------------

 SCF Done:  E(RPBE1PBE) =  -1800.62382104     a.u. after    6 cycles
 SCF Done:  E(RPBE1PBE) =  -1800.62385628     A.U. after   10 cycles

 The electronic state is 1-A.
 Alpha  occ. eigenvalues --  -19.20239 -14.37894 -14.37567 -14.37460 -14.37398
 Alpha  occ. eigenvalues --  -14.37069 -14.36715 -10.30832 -10.27957 -10.26858
 Alpha  occ. eigenvalues --  -10.26542 -10.26451 -10.26049 -10.25291 -10.25279
 Alpha  occ. eigenvalues --  -10.25101 -10.24942 -10.24766 -10.24728 -10.24655
 Alpha  occ. eigenvalues --  -10.24568 -10.24564 -10.24512 -10.24496 -10.24406
 Alpha  occ. eigenvalues --  -10.23632 -10.23624 -10.23555 -10.23000 -10.22818
 Alpha  occ. eigenvalues --  -10.22767 -10.22320 -10.22297 -10.22247 -10.22164
 Alpha  occ. eigenvalues --  -10.21840 -10.21790 -10.21787 -10.21706 -10.21692
 Alpha  occ. eigenvalues --  -10.21580 -10.21514 -10.21342  -1.07913  -0.99403
 Alpha  occ. eigenvalues --   -0.97860  -0.97731  -0.95025  -0.94660  -0.90703
 Alpha  occ. eigenvalues --   -0.89424  -0.88254  -0.86017  -0.85877  -0.85310
 Alpha  occ. eigenvalues --   -0.81261  -0.81138  -0.80360  -0.80179  -0.76841
 Alpha  occ. eigenvalues --   -0.76605  -0.76407  -0.76308  -0.75257  -0.74521
 Alpha  occ. eigenvalues --   -0.68684  -0.68493  -0.67855  -0.67064  -0.66744
 Alpha  occ. eigenvalues --   -0.65786  -0.63225  -0.62997  -0.62537  -0.62130
 Alpha  occ. eigenvalues --   -0.61915  -0.61203  -0.59613  -0.58534  -0.58495
 Alpha  occ. eigenvalues --   -0.57478  -0.56861  -0.56487  -0.55717  -0.54150
 Alpha  occ. eigenvalues --   -0.53361  -0.52696  -0.52491  -0.51486  -0.51235
 Alpha  occ. eigenvalues --   -0.50344  -0.49845  -0.49350  -0.48403  -0.48266
 Alpha  occ. eigenvalues --   -0.48028  -0.47843  -0.47603  -0.47295  -0.46612
 Alpha  occ. eigenvalues --   -0.46381  -0.45779  -0.45449  -0.45087  -0.45003
 Alpha  occ. eigenvalues --   -0.44584  -0.44075  -0.43941  -0.43806  -0.43690
 Alpha  occ. eigenvalues --   -0.43040  -0.42224  -0.42142  -0.41672  -0.41285
 Alpha  occ. eigenvalues --   -0.40513  -0.40415  -0.40236  -0.40105  -0.39962
 Alpha  occ. eigenvalues --   -0.38607  -0.38587  -0.37676  -0.37441  -0.37295
 Alpha  occ. eigenvalues --   -0.36789  -0.36468  -0.36429  -0.36183  -0.36112
 Alpha  occ. eigenvalues --   -0.35878  -0.35650  -0.35331  -0.34503  -0.34413
 Alpha  occ. eigenvalues --   -0.34190  -0.33966  -0.33728  -0.33575  -0.32885
 Alpha  occ. eigenvalues --   -0.32403  -0.31838  -0.31257  -0.30414  -0.27768
 Alpha  occ. eigenvalues --   -0.27379  -0.27284  -0.27186  -0.26766  -0.26643
 Alpha  occ. eigenvalues --   -0.26214  -0.25763  -0.25095  -0.24944  -0.24086
 Alpha virt. eigenvalues --   -0.07070  -0.06321  -0.05402  -0.03873  -0.02277
 Alpha virt. eigenvalues --    0.01957   0.04044   0.04175   0.04269   0.04680
 Alpha virt. eigenvalues --    0.04788   0.04810   0.05212   0.05590   0.05672

 Mulliken charges:
               1
     1  C    0.353419
     2  C   -0.148759
     3  C   -0.334967
     4  C    0.263750
     5  H    0.128086
     6  C   -0.339777
     7  C    0.321358
     8  H    0.138051
     9  C   -0.269773
    10  C   -0.143471
    11  H    0.123536
    12  C    0.052152
    13  H    0.074327
    14  H    0.084309
    15  C    0.322946
    16  C   -0.159240
    17  C   -0.314915
    18  C    0.416712
    19  H    0.118656
    20  C   -0.440969
    21  C    0.138573
    22  H    0.138631
    23  C   -0.330072
    24  C    0.067767
    25  H    0.139521
    26  C   -0.176564
    27  H    0.080916
    28  C    0.030057
    29  C    0.044887
    30  N   -0.189014
    31  H    0.045389
    32  C   -0.194560
    33  N   -0.189376
    34  H    0.051840
    35  C   -0.168832
    36  C   -0.170997
    37  C   -0.186305
    38  O   -0.281343
    39  C    0.027948
    40  C    0.046766
    41  N   -0.186742
    42  H    0.048368
    43  C   -0.192327
    44  N   -0.184911
    45  H    0.049528
    46  C   -0.173472
    47  C   -0.172815
    48  C   -0.184695
    49  C   -0.045751
    50  C   -0.106128
    51  N   -0.271704
    52  H    0.061920
    53  C   -0.138460
    54  N   -0.244018
    55  H    0.056955
    56  C   -0.171720
    57  C   -0.195172
    58  C   -0.192669
    59  H    0.068822
    60  H    0.186892
    61  H    0.089353
    62  H    0.200243
    63  H    0.076379
    64  H    0.109398
    65  H    0.088974
    66  H    0.109002
    67  H    0.088374
    68  H    0.105560
    69  H    0.103003
    70  H    0.108440
    71  H    0.104601
    72  H    0.113271
    73  H    0.091833
    74  H    0.112311
    75  H    0.096404
    76  H    0.112819
    77  H    0.096618
    78  H    0.088301
    79  H    0.108392
    80  H    0.100547
    81  H    0.106129
    82  H    0.104728
    83  H    0.107200
    84  H    0.109098
    85  H    0.088139
    86  H    0.109279
    87  H    0.089036
 Sum of Mulliken charges =   0.00000

 Dipole moment (field-independent basis, Debye):
    X=             -2.5469    Y=             -1.1786    Z=             -2.9117  Tot=              4.0440
 Quadrupole moment (field-independent basis, Debye-Ang):
   XX=           -241.6501   YY=           -239.6295   ZZ=           -271.5694
   XY=              4.9337   XZ=            -15.2195   YZ=             -1.4587

 Normal termination of Gaussian 16 at Mon Oct 18 07:41:46 2021.
