 Gaussian 16, Revision C.01,
 Gaussian 16:  ES64L-G16RevC.01  3-Jul-2019

 ----------------------------------------------------------------------
 #P PBE1PBE/Def2TZVP SP SCF=(YQC,MaxCycle=900) int=(Grid=Superfinegrid)
  EmpiricalDispersion=GD3 SCRF=(PCM,Solvent=Chloroform)
 ----------------------------------------------------------------------

 -------------------------
 _2_alde1_4_ami2_1_opt_cfm
 -------------------------
 Symbolic Z-matrix:
 Charge =  0 Multiplicity = 1

                         Standard orientation:
 ---------------------------------------------------------------------
 Center     Atomic      Atomic             Coordinates (Angstroms)
 Number     Number       Type             X           Y           Z
 ---------------------------------------------------------------------
      1          6           0        2.903466    1.092003   -0.023019
      2          6           0        2.388342    2.271494   -0.711196
      3          6           0        3.965252    0.353330   -0.540934
      4          6           0        4.442294   -0.760699    0.134748
      5          1           0        4.452955    0.655988   -1.456165
      6          6           0        3.828650   -1.166256    1.311012
      7          6           0        2.741892   -0.458616    1.820383
      8          1           0        4.188134   -2.048605    1.822118
      9          6           0        2.297392    0.680709    1.156470
     10          6           0        2.042749   -0.907728    3.017792
     11          1           0        1.463076    1.235170    1.552228
     12          6           0        5.585515   -1.555433   -0.439591
     13          1           0        2.506706   -1.734781    3.581961
     14          1           0        2.499530    2.285471   -1.809050
     15          6           0       -2.460239    1.783061   -0.383872
     16          6           0       -1.839593    3.088019   -0.593594
     17          6           0       -2.031541    0.950100    0.646272
     18          6           0       -2.598124   -0.307579    0.812196
     19          1           0       -1.244755    1.275448    1.306353
     20          6           0       -3.604408   -0.727673   -0.056160
     21          6           0       -4.056400    0.104341   -1.068574
     22          1           0       -4.050598   -1.705985    0.049725
     23          6           0       -3.482397    1.356298   -1.229753
     24          6           0       -5.193388   -0.329171   -1.956729
     25          1           0       -3.830214    2.000777   -2.025216
     26          6           0       -2.116769   -1.205012    1.860443
     27          1           0       -2.239878   -2.274324    1.634368
     28          6           0       -0.102085    4.651347   -0.057976
     29          6           0        1.260960    4.321619   -0.720596
     30          7           0       -0.809968    3.409369    0.051890
     31          7           0        1.844201    3.202255   -0.063832
     32          6           0        6.286056   -2.884623   -2.162595
     33          6           0        7.095644   -1.562870   -2.274286
     34          7           0        5.113355   -2.579655   -1.358832
     35          7           0        6.481970   -0.723457   -1.242423
     36          6           0        0.195227   -0.798821    4.468002
     37          6           0       -1.062811   -1.565253    3.968152
     38          7           0        0.956981   -0.364718    3.350705
     39          7           0       -1.608321   -0.751315    2.916495
     40          6           0       -7.435232   -0.771703   -2.052899
     41          6           0       -6.715846   -2.137072   -2.229623
     42          7           0       -6.471773    0.116416   -1.424103
     43          7           0       -5.306124   -1.786308   -2.038120
     44          1           0       -2.335092    3.722276   -1.343237
     45          1           0       -6.468755   -0.032607   -0.418547
     46          1           0       -5.080510    0.134984   -2.956042
     47          1           0       -4.698772   -2.184913   -2.741541
     48          1           0        7.158288   -0.222482   -0.681916
     49          1           0        4.389512   -2.172071   -1.944958
     50          1           0        6.120644   -2.077940    0.377449
     51          1           0       -8.346181   -0.844939   -1.461962
     52          1           0       -7.684836   -0.352817   -3.033248
     53          1           0        6.002855   -3.291413   -3.131556
     54          1           0        6.872665   -3.636083   -1.624328
     55          1           0        1.919666    5.185997   -0.583792
     56          1           0        1.124438    4.154828   -1.803766
     57          1           0        0.759530   -1.443118    5.163901
     58          1           0       -0.141341    0.101461    4.987265
     59          6           0       -7.124575   -3.122712   -1.129498
     60          1           0       -6.963654   -2.677125   -0.150756
     61          1           0       -6.521207   -4.024783   -1.196781
     62          1           0       -8.173228   -3.392369   -1.228597
     63          6           0       -6.990177   -2.741600   -3.606787
     64          1           0       -8.057088   -2.905467   -3.740230
     65          1           0       -6.478204   -3.696682   -3.708913
     66          1           0       -6.642176   -2.073090   -4.392891
     67          6           0        8.587244   -1.798463   -2.032197
     68          1           0        8.982496   -2.498054   -2.765224
     69          1           0        8.751193   -2.210175   -1.037516
     70          1           0        9.135972   -0.862195   -2.116882
     71          6           0        6.881657   -0.894457   -3.636495
     72          1           0        7.309872   -1.500981   -4.430732
     73          1           0        7.354012    0.084872   -3.647517
     74          1           0        5.818937   -0.762170   -3.824426
     75          6           0        0.150478    5.105961    1.384358
     76          1           0       -0.796471    5.259944    1.895993
     77          1           0        0.718006    6.032983    1.398944
     78          1           0        0.709593    4.330532    1.897821
     79          6           0       -0.796039    5.761952   -0.857038
     80          1           0       -0.928271    5.475118   -1.898754
     81          1           0       -0.191740    6.665070   -0.826767
     82          1           0       -1.770302    5.981172   -0.424871
     83          6           0       -2.095192   -1.618849    5.101627
     84          1           0       -1.661983   -2.079755    5.985988
     85          1           0       -2.960243   -2.199532    4.788097
     86          1           0       -2.425425   -0.613306    5.347863
     87          6           0       -0.660187   -2.989249    3.561175
     88          1           0       -0.173876   -3.486354    4.397111
     89          1           0        0.029462   -2.957491    2.719234
     90          1           0       -1.531890   -3.576961    3.282004
 ---------------------------------------------------------------------

 SCF Done:  E(RPBE1PBE) =  -1761.09512417     a.u. after    6 cycles
 SCF Done:  E(RPBE1PBE) =  -1761.09515021     A.U. after    9 cycles

 The electronic state is 1-A.
 Alpha  occ. eigenvalues --  -14.37353 -14.37330 -14.37236 -14.36976 -14.36920
 Alpha  occ. eigenvalues --  -14.36732 -14.36286 -14.36273 -10.27769 -10.27755
 Alpha  occ. eigenvalues --  -10.26296 -10.26086 -10.25968 -10.25924 -10.25924
 Alpha  occ. eigenvalues --  -10.25779 -10.25589 -10.25576 -10.24399 -10.23988
 Alpha  occ. eigenvalues --  -10.23953 -10.23944 -10.23433 -10.23381 -10.23331
 Alpha  occ. eigenvalues --  -10.23315 -10.23302 -10.23230 -10.23117 -10.22981
 Alpha  occ. eigenvalues --  -10.22745 -10.22571 -10.22151 -10.22149 -10.20844
 Alpha  occ. eigenvalues --  -10.20789 -10.20768 -10.20661 -10.20661 -10.20111
 Alpha  occ. eigenvalues --  -10.20076 -10.19641  -0.99398  -0.99358  -0.97010
 Alpha  occ. eigenvalues --   -0.96856  -0.94764  -0.94390  -0.89516  -0.88958
 Alpha  occ. eigenvalues --   -0.88153  -0.88139  -0.83329  -0.82858  -0.81806
 Alpha  occ. eigenvalues --   -0.80675  -0.79848  -0.77851  -0.77642  -0.76931
 Alpha  occ. eigenvalues --   -0.72101  -0.71898  -0.71176  -0.70965  -0.70957
 Alpha  occ. eigenvalues --   -0.70855  -0.69801  -0.69743  -0.67438  -0.67158
 Alpha  occ. eigenvalues --   -0.65903  -0.64995  -0.64322  -0.63327  -0.60448
 Alpha  occ. eigenvalues --   -0.59624  -0.58379  -0.58249  -0.57440  -0.57010
 Alpha  occ. eigenvalues --   -0.55581  -0.55232  -0.53323  -0.52738  -0.52010
 Alpha  occ. eigenvalues --   -0.51554  -0.51116  -0.51017  -0.50134  -0.50070
 Alpha  occ. eigenvalues --   -0.49060  -0.48450  -0.48146  -0.47575  -0.47251
 Alpha  occ. eigenvalues --   -0.46673  -0.46245  -0.45976  -0.45605  -0.45390
 Alpha  occ. eigenvalues --   -0.45175  -0.44950  -0.44739  -0.44489  -0.43554
 Alpha  occ. eigenvalues --   -0.43199  -0.42669  -0.42648  -0.42390  -0.41865
 Alpha  occ. eigenvalues --   -0.41168  -0.40986  -0.40672  -0.40582  -0.40336
 Alpha  occ. eigenvalues --   -0.40158  -0.40043  -0.40017  -0.39494  -0.39109
 Alpha  occ. eigenvalues --   -0.38724  -0.38514  -0.37748  -0.37561  -0.37491
 Alpha  occ. eigenvalues --   -0.37358  -0.37300  -0.36964  -0.36572  -0.36337
 Alpha  occ. eigenvalues --   -0.36073  -0.35968  -0.35588  -0.35310  -0.34480
 Alpha  occ. eigenvalues --   -0.34336  -0.34293  -0.34270  -0.33506  -0.32967
 Alpha  occ. eigenvalues --   -0.31585  -0.30826  -0.26979  -0.26785  -0.26085
 Alpha  occ. eigenvalues --   -0.26050  -0.25681  -0.25591  -0.25376  -0.25167
 Alpha  occ. eigenvalues --   -0.24720  -0.24311  -0.23617  -0.23579
 Alpha virt. eigenvalues --   -0.04767  -0.04509  -0.04023  -0.03637   0.02300
 Alpha virt. eigenvalues --    0.02875   0.03866   0.03916   0.04859   0.04966
 Alpha virt. eigenvalues --    0.05173   0.05496   0.06030   0.06255   0.07113

 Mulliken charges:
               1
     1  C    0.346244
     2  C   -0.196061
     3  C   -0.330659
     4  C    0.277290
     5  H    0.133539
     6  C   -0.396683
     7  C    0.381956
     8  H    0.118387
     9  C   -0.331481
    10  C   -0.201863
    11  H    0.167805
    12  C   -0.084244
    13  H    0.085390
    14  H    0.081561
    15  C    0.379899
    16  C   -0.201648
    17  C   -0.375909
    18  C    0.362823
    19  H    0.146908
    20  C   -0.312183
    21  C    0.249080
    22  H    0.129812
    23  C   -0.401082
    24  C   -0.080893
    25  H    0.116871
    26  C   -0.186194
    27  H    0.087398
    28  C    0.226979
    29  C   -0.085074
    30  N   -0.200626
    31  N   -0.196755
    32  C   -0.149929
    33  C    0.151525
    34  N   -0.290716
    35  N   -0.299171
    36  C   -0.094947
    37  C    0.155028
    38  N   -0.168256
    39  N   -0.170073
    40  C   -0.140107
    41  C    0.134372
    42  N   -0.293499
    43  N   -0.296773
    44  H    0.094550
    45  H    0.208893
    46  H    0.082600
    47  H    0.208799
    48  H    0.207942
    49  H    0.208192
    50  H    0.081948
    51  H    0.137182
    52  H    0.091239
    53  H    0.137195
    54  H    0.093176
    55  H    0.121420
    56  H    0.082619
    57  H    0.083065
    58  H    0.112503
    59  C   -0.380209
    60  H    0.118368
    61  H    0.115548
    62  H    0.119595
    63  C   -0.436712
    64  H    0.128887
    65  H    0.131182
    66  H    0.131608
    67  C   -0.438197
    68  H    0.128560
    69  H    0.131983
    70  H    0.130931
    71  C   -0.383548
    72  H    0.119722
    73  H    0.116443
    74  H    0.118236
    75  C   -0.424058
    76  H    0.123051
    77  H    0.113637
    78  H    0.145405
    79  C   -0.405174
    80  H    0.131260
    81  H    0.136383
    82  H    0.139410
    83  C   -0.373652
    84  H    0.125119
    85  H    0.127178
    86  H    0.133753
    87  C   -0.441690
    88  H    0.133444
    89  H    0.148953
    90  H    0.135221
 Sum of Mulliken charges =   0.00000

 Dipole moment (field-independent basis, Debye):
    X=              0.9914    Y=             -3.1812    Z=             -3.6935  Tot=              4.9744
 Quadrupole moment (field-independent basis, Debye-Ang):
   XX=           -214.2229   YY=           -242.0469   ZZ=           -235.6213
   XY=              5.1102   XZ=              2.9179   YZ=            -10.7191

 1\1\GINC-CX3-6-1\SP\RPBE1PBE\def2TZVP\C34H48N8\ATARZIA\18-Oct-2021\0\\
 #P PBE1PBE/Def2TZVP SP SCF=(YQC,MaxCycle=900) int=(Grid=Superfinegrid)
  EmpiricalDispersion=GD3 SCRF=(PCM,Solvent=Chloroform)\\_2_alde1_4_ami
 2_1_opt_cfm\\0,1\C,0,-2.9133,-2.6504,-1.4643\C,0,-2.1875,-2.66,-0.1981
 \C,0,-2.8342,-3.7178,-2.3563\C,0,-3.5387,-3.689,-3.5513\H,0,-2.2517,-4
 .5953,-2.1159\C,0,-4.2914,-2.5706,-3.8788\C,0,-4.3491,-1.4805,-3.013\H
 ,0,-4.8199,-2.5421,-4.8216\C,0,-3.6716,-1.5365,-1.7988\C,0,-5.0798,-0.
 2709,-3.3697\H,0,-3.7212,-0.6991,-1.1232\C,0,-3.4386,-4.8457,-4.5107\H

 Normal termination of Gaussian 16 at Mon Oct 18 07:16:19 2021.
