 Gaussian 16, Revision C.01,
 Gaussian 16:  ES64L-G16RevC.01  3-Jul-2019

 ---------------------------------------------------------------------
 #P MP2/aug-cc-pVDZ SP SCF=(YQC,MaxCycle=900) int=(Grid=Superfinegrid)
 ---------------------------------------------------------------------

 -----------------------------
 _2_alde1_4_ami1_2_opt_gas_mp2
 -----------------------------
 Symbolic Z-matrix:
 Charge =  0 Multiplicity = 1

                         Standard orientation:
 ---------------------------------------------------------------------
 Center     Atomic      Atomic             Coordinates (Angstroms)
 Number     Number       Type             X           Y           Z
 ---------------------------------------------------------------------
      1          6           0       -0.947134    0.013390    2.163696
      2          6           0       -0.198206   -1.035491    2.842922
      3          6           0       -0.386781    1.269235    1.964489
      4          6           0       -1.075999    2.250207    1.249783
      5          1           0        0.586609    1.511334    2.363502
      6          6           0       -2.313602    1.946624    0.693002
      7          6           0       -2.886519    0.689906    0.880864
      8          1           0       -2.850944    2.674288    0.103870
      9          6           0       -2.209656   -0.258513    1.638896
     10          6           0       -4.130190    0.317117    0.225939
     11          1           0       -2.633831   -1.235134    1.811635
     12          6           0       -0.513752    3.583430    1.086003
     13          1           0       -4.510649   -0.683308    0.481514
     14          1           0        0.873346   -0.833162    2.994684
     15          1           0       -1.118866    4.286511    0.490415
     16          6           0       -0.674180   -2.617257   -0.487966
     17          6           0       -0.806620   -3.447989    0.699035
     18          6           0       -1.813449   -2.098722   -1.095560
     19          6           0       -1.708892   -1.155894   -2.115851
     20          1           0       -2.799712   -2.384535   -0.764181
     21          6           0       -0.446675   -0.771126   -2.559322
     22          6           0        0.702815   -1.313943   -1.989860
     23          1           0       -0.357625   -0.034546   -3.346594
     24          6           0        0.580459   -2.224919   -0.945169
     25          6           0        2.019795   -0.886435   -2.443673
     26          1           0        1.467256   -2.614617   -0.473032
     27          6           0       -2.895879   -0.489505   -2.629473
     28          1           0        2.034615   -0.154521   -3.267361
     29          1           0       -2.705105    0.399480   -3.252541
     30          6           0       -0.030093   -4.358629    2.688642
     31          6           0        0.064180   -3.186351    3.713212
     32          7           0        0.189437   -3.770499    1.401783
     33          1           0       -1.049339   -4.774445    2.761894
     34          6           0        0.992192   -5.481866    2.930245
     35          7           0       -0.735825   -2.121693    3.187342
     36          1           0        1.122697   -2.883411    3.780951
     37          6           0       -0.434381   -3.565713    5.121468
     38          1           0        0.875488   -5.841940    3.957820
     39          6           0        2.428058   -5.007361    2.722404
     40          6           0        0.682609   -6.636579    1.977162
     41          1           0        0.086253   -4.477305    5.431643
     42          6           0       -1.940204   -3.812355    5.155168
     43          6           0       -0.068260   -2.448354    6.098505
     44          1           0        1.369438   -7.462927    2.144481
     45          1           0        0.783765   -6.302033    0.947067
     46          1           0       -0.332845   -6.999188    2.124810
     47          1           0        3.107129   -5.856789    2.745768
     48          1           0        2.732185   -4.312103    3.500220
     49          1           0        2.511989   -4.513198    1.758941
     50          1           0       -0.566982   -1.523858    5.814733
     51          1           0        1.005999   -2.274613    6.103560
     52          1           0       -0.377121   -2.711925    7.107447
     53          1           0       -2.266982   -3.972525    6.180304
     54          1           0       -2.210233   -4.690270    4.574422
     55          1           0       -2.462373   -2.950621    4.748598
     56          6           0        1.074639    5.253587    1.479006
     57          6           0        2.536685    5.196609    0.935273
     58          7           0        0.581949    3.916003    1.612147
     59          1           0        0.444723    5.826578    0.776682
     60          6           0        0.934209    5.946954    2.856726
     61          7           0        3.210222    3.947125    1.248261
     62          1           0        3.122486    5.996761    1.399606
     63          6           0        2.576190    5.413997   -0.591685
     64          1           0       -0.114488    5.809810    3.152651
     65          6           0        1.200605    7.446148    2.753936
     66          6           0        1.807503    5.310925    3.934043
     67          1           0        1.895830    4.688297   -1.054060
     68          6           0        3.989138    5.165507   -1.118457
     69          6           0        2.149791    6.827222   -0.986532
     70          1           0        1.570674    5.744006    4.903978
     71          1           0        2.862294    5.485932    3.735409
     72          1           0        1.621840    4.240732    3.981104
     73          1           0        0.559489    7.903281    2.003514
     74          1           0        2.235466    7.644562    2.487004
     75          1           0        1.000515    7.921881    3.711504
     76          1           0        1.118044    7.040092   -0.719485
     77          1           0        2.247872    6.953836   -2.062558
     78          1           0        2.786542    7.561198   -0.497112
     79          1           0        4.671921    5.908043   -0.712542
     80          1           0        4.004356    5.237659   -2.203749
     81          1           0        4.337802    4.183149   -0.820722
     82          6           0       -5.792583    0.494298   -1.376390
     83          6           0       -5.181328   -0.044739   -2.705866
     84          7           0       -4.700090    1.048176   -0.630110
     85          1           0       -6.223543   -0.371760   -0.846844
     86          6           0       -6.884024    1.559257   -1.571514
     87          7           0       -4.063701   -0.856124   -2.328968
     88          1           0       -4.850258    0.824398   -3.300457
     89          6           0       -6.170899   -0.872083   -3.548283
     90          1           0       -7.680116    1.129592   -2.188190
     91          6           0       -6.346320    2.817836   -2.246847
     92          6           0       -7.472086    1.910449   -0.204521
     93          1           0       -7.056545   -0.256099   -3.733576
     94          6           0       -6.590905   -2.161081   -2.847501
     95          6           0       -5.524807   -1.197591   -4.895304
     96          1           0       -7.872089    1.023955    0.283538
     97          1           0       -8.275390    2.635920   -0.310794
     98          1           0       -6.699347    2.335348    0.432171
     99          1           0       -5.453753    3.154847   -1.727763
    100          1           0       -7.094090    3.607117   -2.213517
    101          1           0       -6.098630    2.632375   -3.288758
    102          1           0       -5.227040   -0.287243   -5.412292
    103          1           0       -6.223926   -1.738048   -5.529347
    104          1           0       -4.641924   -1.815907   -4.747758
    105          1           0       -7.174298   -2.779236   -3.526351
    106          1           0       -7.200693   -1.954431   -1.972036
    107          1           0       -5.708103   -2.713850   -2.538272
    108          6           0        5.142016   -2.105282   -2.809902
    109          6           0        4.358557   -0.862505   -2.328745
    110          7           0        4.479790   -2.573053   -4.024843
    111          1           0        5.085438   -2.853177   -1.999562
    112          6           0        6.628886   -1.834495   -3.108330
    113          7           0        3.071777   -1.324648   -1.906731
    114          1           0        4.273089   -0.168785   -3.183847
    115          6           0        4.997507   -0.105798   -1.143250
    116          1           0        7.088801   -1.445789   -2.194984
    117          6           0        6.802742   -0.817445   -4.232828
    118          6           0        7.353618   -3.134705   -3.463454
    119          1           0        5.987226    0.238841   -1.456729
    120          6           0        5.135729   -0.990093    0.092615
    121          6           0        4.155604    1.126750   -0.812351
    122          1           0        7.154257   -3.905349   -2.720872
    123          1           0        8.427481   -2.964027   -3.496434
    124          1           0        7.042455   -3.497891   -4.439716
    125          1           0        6.214903   -1.124777   -5.093206
    126          1           0        7.849235   -0.752742   -4.522146
    127          1           0        6.473120    0.170055   -3.921643
    128          1           0        4.636324    1.716865   -0.035858
    129          1           0        3.170483    0.828156   -0.458853
    130          1           0        4.029531    1.754398   -1.692415
    131          1           0        4.170051   -1.417389    0.348077
    132          1           0        5.492545   -0.398056    0.932770
    133          1           0        5.840585   -1.799236   -0.078357
    134          1           0       -1.837007   -3.705538    0.988442
    135          1           0        2.677695    3.177988    0.852522
    136          1           0        3.220248    3.807774    2.251546
    137          1           0        3.490410   -2.703466   -3.841496
    138          1           0        4.857831   -3.472068   -4.301370
 ---------------------------------------------------------------------

 SCF Done:  E(RHF) =  -2375.76493144     a.u. after    7 cycles
 SCF Done:  E(RHF) =  -2375.76500849     A.U. after   20 cycles
 E2 =    -0.8678387318D+01 EUMP2 =    -0.23844433958047D+04

 The electronic state is 1-A.
 Alpha  occ. eigenvalues --  -15.56059 -15.55809 -15.55765 -15.55706 -15.55456
 Alpha  occ. eigenvalues --  -15.55226 -15.53615 -15.52908 -11.28912 -11.28768
 Alpha  occ. eigenvalues --  -11.28575 -11.28510 -11.28449 -11.28224 -11.25881
 Alpha  occ. eigenvalues --  -11.25798 -11.25599 -11.25592 -11.25403 -11.25402
 Alpha  occ. eigenvalues --  -11.25365 -11.25336 -11.25301 -11.25293 -11.25164
 Alpha  occ. eigenvalues --  -11.25107 -11.25059 -11.25037 -11.24992 -11.24949
 Alpha  occ. eigenvalues --  -11.24900 -11.24882 -11.24666 -11.24573 -11.23117
 Alpha  occ. eigenvalues --  -11.23044 -11.22883 -11.22820 -11.22554 -11.22358
 Alpha  occ. eigenvalues --  -11.22290 -11.22099 -11.21755 -11.21417 -11.21385
 Alpha  occ. eigenvalues --  -11.21375 -11.21246 -11.21223 -11.21142 -11.21035
 Alpha  occ. eigenvalues --  -11.20949 -11.20926 -11.20870 -11.20496 -11.20478
 Alpha  occ. eigenvalues --  -11.20358 -11.20138 -11.19882  -1.26981  -1.26716
 Alpha  occ. eigenvalues --   -1.25668  -1.25503  -1.23417  -1.22939  -1.18511
 Alpha  occ. eigenvalues --   -1.18270  -1.17242  -1.16551  -1.10716  -1.09904
 Alpha  occ. eigenvalues --   -1.08693  -1.08282  -1.07711  -1.07000  -1.06122
 Alpha  occ. eigenvalues --   -1.05681  -1.05088  -1.04949  -1.04573  -1.04178
 Alpha  occ. eigenvalues --   -0.97956  -0.97224  -0.96156  -0.96070  -0.93438
 Alpha  occ. eigenvalues --   -0.93125  -0.92921  -0.92771  -0.92488  -0.92460
 Alpha  occ. eigenvalues --   -0.92247  -0.92095  -0.91132  -0.90752  -0.89074
 Alpha  occ. eigenvalues --   -0.88566  -0.87752  -0.85969  -0.84892  -0.84416
 Alpha  occ. eigenvalues --   -0.83268  -0.82165  -0.79248  -0.78770  -0.77861
 Alpha  occ. eigenvalues --   -0.77385  -0.77010  -0.76466  -0.75847  -0.75045
 Alpha  occ. eigenvalues --   -0.74220  -0.73671  -0.73100  -0.72620  -0.70978
 Alpha  occ. eigenvalues --   -0.70542  -0.68565  -0.68506  -0.67423  -0.67339
 Alpha  occ. eigenvalues --   -0.67057  -0.66327  -0.66043  -0.65955  -0.65418
 Alpha  occ. eigenvalues --   -0.64711  -0.64443  -0.63906  -0.63719  -0.63439
 Alpha  occ. eigenvalues --   -0.62572  -0.62263  -0.61792  -0.61496  -0.61195
 Alpha  occ. eigenvalues --   -0.60448  -0.60229  -0.59922  -0.59823  -0.59709
 Alpha  occ. eigenvalues --   -0.59412  -0.58606  -0.58387  -0.58228  -0.57857
 Alpha  occ. eigenvalues --   -0.57802  -0.57530  -0.57462  -0.57013  -0.56760
 Alpha  occ. eigenvalues --   -0.56511  -0.56320  -0.55959  -0.55842  -0.54813
 Alpha  occ. eigenvalues --   -0.54288  -0.54130  -0.54089  -0.53942  -0.53722
 Alpha  occ. eigenvalues --   -0.53502  -0.53450  -0.53224  -0.52997  -0.52888
 Alpha  occ. eigenvalues --   -0.52717  -0.52632  -0.52355  -0.52325  -0.52116
 Alpha  occ. eigenvalues --   -0.52048  -0.51809  -0.51808  -0.51565  -0.51340
 Alpha  occ. eigenvalues --   -0.50171  -0.49887  -0.49810  -0.48618  -0.48326
 Alpha  occ. eigenvalues --   -0.48168  -0.48058  -0.47879  -0.47448  -0.47357
 Alpha  occ. eigenvalues --   -0.47256  -0.47106  -0.46951  -0.46882  -0.46675
 Alpha  occ. eigenvalues --   -0.46632  -0.46307  -0.46084  -0.45901  -0.45752
 Alpha  occ. eigenvalues --   -0.45649  -0.45453  -0.45410  -0.45184  -0.44467
 Alpha  occ. eigenvalues --   -0.43853  -0.43249  -0.42991  -0.42706  -0.40562
 Alpha  occ. eigenvalues --   -0.40487  -0.40215  -0.40040  -0.39865  -0.39590
 Alpha  occ. eigenvalues --   -0.39213  -0.38881  -0.37715  -0.36918  -0.33172
 Alpha  occ. eigenvalues --   -0.32601  -0.31744  -0.31281
 Alpha virt. eigenvalues --    0.02676   0.02993   0.03181   0.03337   0.03608
 Alpha virt. eigenvalues --    0.03759   0.03904   0.04022   0.04157   0.04500
 Alpha virt. eigenvalues --    0.04632   0.04686   0.04917   0.04950   0.05057

 Mulliken charges:
               1
     1  C    1.671062
     2  C    0.511359
     3  C    0.105172
     4  C    1.095491
     5  H   -0.743708
     6  C    0.416173
     7  C    1.492526
     8  H   -0.993703
     9  C    0.239676
    10  C    0.512341
    11  H   -1.225332
    12  C    0.002207
    13  H   -0.870135
    14  H   -1.108382
    15  H   -0.821033
    16  C    1.885962
    17  C    0.246124
    18  C    0.287291
    19  C    0.796803
    20  H   -1.079268
    21  C    0.318669
    22  C    1.463879
    23  H   -0.876286
    24  C    0.034952
    25  C    0.485995
    26  H   -1.298508
    27  C    0.854118
    28  H   -0.827906
    29  H   -1.006590
    30  C    0.231020
    31  C   -0.122502
    32  N   -0.289257
    33  H   -0.406374
    34  C   -0.921381
    35  N   -0.122625
    36  H   -0.301676
    37  C   -0.862250
    38  H   -0.344309
    39  C    1.065591
    40  C    1.058999
    41  H   -0.307633
    42  C    1.141667
    43  C    1.148066
    44  H   -0.151509
    45  H    0.000979
    46  H   -0.089224
    47  H   -0.152881
    48  H   -0.152299
    49  H   -0.035806
    50  H    0.045129
    51  H   -0.089790
    52  H   -0.180351
    53  H   -0.182903
    54  H   -0.138223
    55  H   -0.034419
    56  C   -0.419276
    57  C    0.855066
    58  N    0.369559
    59  H   -0.638138
    60  C   -0.760260
    61  N   -0.457782
    62  H   -0.596778
    63  C   -1.442903
    64  H   -0.218795
    65  C    1.199761
    66  C    1.113337
    67  H   -0.319686
    68  C    1.311048
    69  C    1.425423
    70  H   -0.195316
    71  H   -0.000178
    72  H   -0.076950
    73  H    0.008113
    74  H    0.019690
    75  H   -0.112245
    76  H   -0.077151
    77  H   -0.140574
    78  H    0.018461
    79  H    0.032892
    80  H   -0.085275
    81  H   -0.418307
    82  C    0.162248
    83  C   -0.153505
    84  N   -0.652800
    85  H   -0.393806
    86  C   -0.945484
    87  N   -0.147532
    88  H   -0.300551
    89  C   -0.967508
    90  H   -0.295262
    91  C    1.143593
    92  C    1.123794
    93  H   -0.306186
    94  C    1.125954
    95  C    1.166107
    96  H   -0.085480
    97  H   -0.152283
    98  H    0.009175
    99  H   -0.074112
   100  H   -0.157139
   101  H   -0.113207
   102  H   -0.082222
   103  H   -0.175106
   104  H    0.069328
   105  H   -0.176475
   106  H   -0.133395
   107  H   -0.043091
   108  C    0.432692
   109  C   -0.507202
   110  N   -0.158380
   111  H   -0.334962
   112  C   -1.369057
   113  N    0.090186
   114  H   -0.444876
   115  C   -0.253299
   116  H   -0.283869
   117  C    1.274844
   118  C    1.256814
   119  H   -0.424177
   120  C    1.366910
   121  C    0.660556
   122  H   -0.045735
   123  H   -0.088034
   124  H   -0.058816
   125  H    0.080407
   126  H   -0.174925
   127  H   -0.121335
   128  H   -0.297006
   129  H   -0.328768
   130  H   -0.086920
   131  H   -0.123785
   132  H   -0.136471
   133  H   -0.155750
   134  H   -0.927111
   135  H    0.022282
   136  H   -0.035893
   137  H    0.001361
   138  H   -0.043452
 Sum of Mulliken charges =   0.00000

 Dipole moment (field-independent basis, Debye):
    X=             -2.0855    Y=              0.6522    Z=              0.2064  Tot=              2.1948
 Quadrupole moment (field-independent basis, Debye-Ang):
   XX=           -371.1991   YY=           -361.6415   ZZ=           -366.4642
   XY=             -3.7419   XZ=              9.3605   YZ=             -5.0864

 Normal termination of Gaussian 16 at Thu Nov  4 00:07:50 2021.
