 Gaussian 16, Revision C.01,
 Gaussian 16:  ES64L-G16RevC.01  3-Jul-2019

 ----------------------------------------------------------------------
 #P PBE1PBE/Def2TZVP SP SCF=(YQC,MaxCycle=900) int=(Grid=Superfinegrid)
  EmpiricalDispersion=GD3 SCRF=(PCM,Solvent=Dichloromethane)
 ----------------------------------------------------------------------

 -------------------------
 _2_alde1_3_ami3_2_opt_dcm
 -------------------------
 Symbolic Z-matrix:
 Charge =  0 Multiplicity = 1

                         Standard orientation:
 ---------------------------------------------------------------------
 Center     Atomic      Atomic             Coordinates (Angstroms)
 Number     Number       Type             X           Y           Z
 ---------------------------------------------------------------------
      1          6           0       -2.733332    1.064861    1.458540
      2          6           0       -3.098842    2.080956    0.483710
      3          6           0       -2.252880    1.408999    2.720559
      4          6           0       -1.801249    0.421646    3.589953
      5          1           0       -2.228693    2.451637    2.998621
      6          6           0       -1.791499   -0.913578    3.182433
      7          6           0       -2.275932   -1.270832    1.929911
      8          1           0       -1.402544   -1.657908    3.862516
      9          6           0       -2.769927   -0.275789    1.087671
     10          6           0       -2.177503   -2.645209    1.454472
     11          1           0       -3.148138   -0.572253    0.121799
     12          6           0       -1.302212    0.777426    4.925735
     13          1           0       -1.471388   -3.285483    2.005364
     14          1           0       -3.534902    1.699448   -0.451233
     15          6           0        0.370106    1.276524   -1.259817
     16          6           0       -0.071791    2.651466   -1.072127
     17          6           0       -0.555953    0.287385   -1.587522
     18          6           0       -0.185904   -1.052238   -1.618581
     19          1           0       -1.574297    0.586955   -1.779390
     20          6           0        1.143418   -1.399413   -1.381653
     21          6           0        2.089750   -0.419158   -1.103703
     22          1           0        1.414743   -2.443672   -1.408756
     23          6           0        1.690553    0.915621   -1.019684
     24          6           0        3.480151   -0.789436   -0.874747
     25          1           0        2.434595    1.656126   -0.768385
     26          6           0       -1.214617   -2.063749   -1.796689
     27          1           0       -2.210563   -1.676637   -2.062048
     28          6           0       -1.651914    4.365199   -1.118396
     29          6           0       -3.041116    4.191534   -0.452630
     30          7           0       -1.192560    3.061216   -1.479866
     31          1           0       -0.973163    4.846844   -0.391440
     32          6           0       -1.801394    5.265120   -2.345493
     33          7           0       -2.860948    3.308331    0.657517
     34          1           0       -3.711820    3.751830   -1.211848
     35          6           0       -3.566704    5.553626   -0.012677
     36          1           0       -2.472468    4.782693   -3.058048
     37          6           0       -2.351724    6.626928   -1.933189
     38          1           0       -2.879699    5.975837    0.722426
     39          6           0       -3.692346    6.480217   -1.218101
     40          1           0       -2.469514    7.256617   -2.817275
     41          1           0       -1.638100    7.116223   -1.266118
     42          1           0       -4.048475    7.460054   -0.894134
     43          1           0       -4.428915    6.069331   -1.912640
     44          8           0       -0.868566    0.000395    5.737152
     45          6           0       -2.550878   -4.354241   -0.084364
     46          6           0       -2.147025   -4.165407   -1.568849
     47          7           0       -2.814553   -3.054451    0.446676
     48          1           0       -1.715152   -4.845983    0.445186
     49          6           0       -3.791342   -5.245465   -0.017593
     50          7           0       -1.013897   -3.292148   -1.586728
     51          1           0       -3.012109   -3.713192   -2.086226
     52          6           0       -1.821392   -5.523767   -2.180877
     53          1           0       -4.610394   -4.750942   -0.542506
     54          6           0       -3.496153   -6.602375   -0.648918
     55          1           0       -0.976460   -5.958041   -1.644235
     56          6           0       -3.036190   -6.442491   -2.095663
     57          1           0       -2.713833   -7.103735   -0.074385
     58          1           0       -4.391509   -7.225980   -0.610497
     59          1           0       -2.789506   -7.419406   -2.515788
     60          1           0       -3.850221   -6.018904   -2.688597
     61          6           0        6.076854   -0.001997    1.102274
     62          6           0        5.712234   -0.324508   -0.359153
     63          7           0        5.290890   -0.864025    1.973834
     64          1           0        5.870828    1.071703    1.264706
     65          6           0        7.560564   -0.274151    1.346818
     66          7           0        4.356318    0.069739   -0.583597
     67          1           0        5.856961   -1.408366   -0.514786
     68          6           0        6.607789    0.469083   -1.315736
     69          1           0        7.736382   -1.343845    1.220425
     70          6           0        8.439070    0.517982    0.385970
     71          1           0        6.403717    1.531857   -1.173615
     72          6           0        8.080447    0.179072   -1.056548
     73          1           0        9.490030    0.290822    0.574875
     74          1           0        8.290626    1.587245    0.554368
     75          1           0        8.695280    0.763611   -1.743905
     76          1           0        8.281232   -0.878632   -1.241306
     77          1           0        0.617523    3.295474   -0.503628
     78          1           0        4.300495   -0.704150    1.821189
     79          1           0        3.712850   -1.860724   -0.972085
     80          1           0       -1.356035    1.862477    5.144322
     81          1           0       -0.826377    5.378530   -2.824400
     82          1           0       -4.537532    5.424312    0.469469
     83          1           0       -4.085980   -5.368663    1.026909
     84          1           0       -1.522924   -5.384297   -3.221665
     85          1           0        7.804957   -0.015394    2.379728
     86          1           0        6.342710    0.211231   -2.343260
     87          1           0        5.492859   -0.657517    2.946213
 ---------------------------------------------------------------------

 SCF Done:  E(RPBE1PBE) =  -1800.63534850     a.u. after    6 cycles
 SCF Done:  E(RPBE1PBE) =  -1800.63536789     A.U. after    9 cycles

 The electronic state is 1-A.
 Alpha  occ. eigenvalues --  -19.21359 -14.38300 -14.38065 -14.38029 -14.37999
 Alpha  occ. eigenvalues --  -14.37788 -14.35822 -10.31797 -10.27168 -10.26947
 Alpha  occ. eigenvalues --  -10.26909 -10.26785 -10.26670 -10.25424 -10.25410
 Alpha  occ. eigenvalues --  -10.25261 -10.25244 -10.25199 -10.25188 -10.25158
 Alpha  occ. eigenvalues --  -10.25120 -10.25063 -10.25011 -10.24675 -10.24611
 Alpha  occ. eigenvalues --  -10.24604 -10.24580 -10.24565 -10.24122 -10.24115
 Alpha  occ. eigenvalues --  -10.24068 -10.21760 -10.21756 -10.21489 -10.21475
 Alpha  occ. eigenvalues --  -10.21470 -10.21428 -10.21420 -10.21392 -10.21291
 Alpha  occ. eigenvalues --  -10.21155 -10.21102 -10.21041  -1.09120  -0.98301
 Alpha  occ. eigenvalues --   -0.98158  -0.96992  -0.95568  -0.95186  -0.91453
 Alpha  occ. eigenvalues --   -0.91110  -0.89971  -0.86111  -0.85536  -0.84284
 Alpha  occ. eigenvalues --   -0.81677  -0.81576  -0.81101  -0.81067  -0.76943
 Alpha  occ. eigenvalues --   -0.76620  -0.76496  -0.75894  -0.75580  -0.74173
 Alpha  occ. eigenvalues --   -0.69195  -0.68995  -0.68385  -0.67708  -0.67424
 Alpha  occ. eigenvalues --   -0.66093  -0.63183  -0.62905  -0.62682  -0.62085
 Alpha  occ. eigenvalues --   -0.61698  -0.60789  -0.58574  -0.58460  -0.57580
 Alpha  occ. eigenvalues --   -0.57330  -0.56745  -0.56262  -0.56137  -0.54600
 Alpha  occ. eigenvalues --   -0.53781  -0.53105  -0.52646  -0.51479  -0.50786
 Alpha  occ. eigenvalues --   -0.50444  -0.49822  -0.49728  -0.49352  -0.48969
 Alpha  occ. eigenvalues --   -0.48371  -0.47873  -0.47560  -0.47358  -0.47157
 Alpha  occ. eigenvalues --   -0.46458  -0.46186  -0.45729  -0.45491  -0.45344
 Alpha  occ. eigenvalues --   -0.44600  -0.44442  -0.44316  -0.44208  -0.43965
 Alpha  occ. eigenvalues --   -0.43670  -0.42450  -0.42234  -0.41939  -0.41349
 Alpha  occ. eigenvalues --   -0.40758  -0.40382  -0.40136  -0.39831  -0.39426
 Alpha  occ. eigenvalues --   -0.39106  -0.39015  -0.38264  -0.38144  -0.37184
 Alpha  occ. eigenvalues --   -0.36762  -0.36426  -0.36242  -0.36144  -0.36095
 Alpha  occ. eigenvalues --   -0.35985  -0.35763  -0.35731  -0.34533  -0.34102
 Alpha  occ. eigenvalues --   -0.33877  -0.33673  -0.33503  -0.32546  -0.32262
 Alpha  occ. eigenvalues --   -0.31952  -0.31557  -0.31310  -0.29704  -0.28716
 Alpha  occ. eigenvalues --   -0.27972  -0.27858  -0.27727  -0.27479  -0.27359
 Alpha  occ. eigenvalues --   -0.27144  -0.26267  -0.26168  -0.25781  -0.25264
 Alpha virt. eigenvalues --   -0.07804  -0.06874  -0.06230  -0.05798  -0.03293
 Alpha virt. eigenvalues --   -0.01803   0.04303   0.04743   0.04774   0.04923
 Alpha virt. eigenvalues --    0.05108   0.05126   0.05238   0.05296   0.05913

 Mulliken charges:
               1
     1  C    0.348742
     2  C   -0.156817
     3  C   -0.336762
     4  C    0.257956
     5  H    0.131800
     6  C   -0.339717
     7  C    0.310349
     8  H    0.141468
     9  C   -0.285159
    10  C   -0.151337
    11  H    0.138163
    12  C    0.074307
    13  H    0.094216
    14  H    0.105322
    15  C    0.320213
    16  C   -0.161885
    17  C   -0.299301
    18  C    0.356495
    19  H    0.135975
    20  C   -0.380522
    21  C    0.371686
    22  H    0.122384
    23  C   -0.365459
    24  C   -0.177125
    25  H    0.125146
    26  C   -0.169762
    27  H    0.102961
    28  C    0.015154
    29  C    0.044612
    30  N   -0.198171
    31  H    0.058851
    32  C   -0.196686
    33  N   -0.205527
    34  H    0.064341
    35  C   -0.171810
    36  H    0.105498
    37  C   -0.180921
    38  H    0.101297
    39  C   -0.195869
    40  H    0.114366
    41  H    0.095353
    42  H    0.113987
    43  H    0.095750
    44  O   -0.327184
    45  C    0.020219
    46  C    0.042055
    47  N   -0.196894
    48  H    0.059895
    49  C   -0.195091
    50  N   -0.204245
    51  H    0.063005
    52  C   -0.174350
    53  H    0.105378
    54  C   -0.182144
    55  H    0.101781
    56  C   -0.194555
    57  H    0.095652
    58  H    0.114374
    59  H    0.113898
    60  H    0.095422
    61  C    0.034479
    62  C    0.057215
    63  N   -0.559603
    64  H    0.080389
    65  C   -0.211320
    66  N   -0.214018
    67  H    0.045028
    68  C   -0.195401
    69  H    0.097453
    70  C   -0.195705
    71  H    0.099892
    72  C   -0.180982
    73  H    0.111547
    74  H    0.093375
    75  H    0.112067
    76  H    0.094050
    77  H    0.089904
    78  H    0.234038
    79  H    0.098558
    80  H    0.099513
    81  H    0.114127
    82  H    0.109811
    83  H    0.113921
    84  H    0.109857
    85  H    0.109263
    86  H    0.111317
    87  H    0.230451
 Sum of Mulliken charges =   0.00000

 Dipole moment (field-independent basis, Debye):
    X=             -1.0146    Y=              1.2964    Z=             -3.0466  Tot=              3.4630
 Quadrupole moment (field-independent basis, Debye-Ang):
   XX=           -241.7595   YY=           -229.7722   ZZ=           -279.0347
   XY=              5.8905   XZ=              7.5304   YZ=              4.1378

 Normal termination of Gaussian 16 at Sun Oct 17 21:53:19 2021.
