 Gaussian 16, Revision C.01,
 Gaussian 16:  ES64L-G16RevC.01  3-Jul-2019

 ---------------------------------------------------------------------
 #P MP2/aug-cc-pVDZ SP SCF=(YQC,MaxCycle=900) int=(Grid=Superfinegrid)
 ---------------------------------------------------------------------

 -----------------------------
 _2_alde1_3_ami3_2_opt_gas_mp2
 -----------------------------
 Symbolic Z-matrix:
 Charge =  0 Multiplicity = 1

                         Standard orientation:
 ---------------------------------------------------------------------
 Center     Atomic      Atomic             Coordinates (Angstroms)
 Number     Number       Type             X           Y           Z
 ---------------------------------------------------------------------
      1          6           0       -2.733332    1.064861    1.458540
      2          6           0       -3.098842    2.080956    0.483710
      3          6           0       -2.252880    1.408999    2.720559
      4          6           0       -1.801249    0.421646    3.589953
      5          1           0       -2.228693    2.451637    2.998621
      6          6           0       -1.791499   -0.913578    3.182433
      7          6           0       -2.275932   -1.270832    1.929911
      8          1           0       -1.402544   -1.657908    3.862516
      9          6           0       -2.769927   -0.275789    1.087671
     10          6           0       -2.177503   -2.645209    1.454472
     11          1           0       -3.148138   -0.572253    0.121799
     12          6           0       -1.302212    0.777426    4.925735
     13          1           0       -1.471388   -3.285483    2.005364
     14          1           0       -3.534902    1.699448   -0.451233
     15          6           0        0.370106    1.276524   -1.259817
     16          6           0       -0.071791    2.651466   -1.072127
     17          6           0       -0.555953    0.287385   -1.587522
     18          6           0       -0.185904   -1.052238   -1.618581
     19          1           0       -1.574297    0.586955   -1.779390
     20          6           0        1.143418   -1.399413   -1.381653
     21          6           0        2.089750   -0.419158   -1.103703
     22          1           0        1.414743   -2.443672   -1.408756
     23          6           0        1.690553    0.915621   -1.019684
     24          6           0        3.480151   -0.789436   -0.874747
     25          1           0        2.434595    1.656126   -0.768385
     26          6           0       -1.214617   -2.063749   -1.796689
     27          1           0       -2.210563   -1.676637   -2.062048
     28          6           0       -1.651914    4.365199   -1.118396
     29          6           0       -3.041116    4.191534   -0.452630
     30          7           0       -1.192560    3.061216   -1.479866
     31          1           0       -0.973163    4.846844   -0.391440
     32          6           0       -1.801394    5.265120   -2.345493
     33          7           0       -2.860948    3.308331    0.657517
     34          1           0       -3.711820    3.751830   -1.211848
     35          6           0       -3.566704    5.553626   -0.012677
     36          1           0       -2.472468    4.782693   -3.058048
     37          6           0       -2.351724    6.626928   -1.933189
     38          1           0       -2.879699    5.975837    0.722426
     39          6           0       -3.692346    6.480217   -1.218101
     40          1           0       -2.469514    7.256617   -2.817275
     41          1           0       -1.638100    7.116223   -1.266118
     42          1           0       -4.048475    7.460054   -0.894134
     43          1           0       -4.428915    6.069331   -1.912640
     44          8           0       -0.868566    0.000395    5.737152
     45          6           0       -2.550878   -4.354241   -0.084364
     46          6           0       -2.147025   -4.165407   -1.568849
     47          7           0       -2.814553   -3.054451    0.446676
     48          1           0       -1.715152   -4.845983    0.445186
     49          6           0       -3.791342   -5.245465   -0.017593
     50          7           0       -1.013897   -3.292148   -1.586728
     51          1           0       -3.012109   -3.713192   -2.086226
     52          6           0       -1.821392   -5.523767   -2.180877
     53          1           0       -4.610394   -4.750942   -0.542506
     54          6           0       -3.496153   -6.602375   -0.648918
     55          1           0       -0.976460   -5.958041   -1.644235
     56          6           0       -3.036190   -6.442491   -2.095663
     57          1           0       -2.713833   -7.103735   -0.074385
     58          1           0       -4.391509   -7.225980   -0.610497
     59          1           0       -2.789506   -7.419406   -2.515788
     60          1           0       -3.850221   -6.018904   -2.688597
     61          6           0        6.076854   -0.001997    1.102274
     62          6           0        5.712234   -0.324508   -0.359153
     63          7           0        5.290890   -0.864025    1.973834
     64          1           0        5.870828    1.071703    1.264706
     65          6           0        7.560564   -0.274151    1.346818
     66          7           0        4.356318    0.069739   -0.583597
     67          1           0        5.856961   -1.408366   -0.514786
     68          6           0        6.607789    0.469083   -1.315736
     69          1           0        7.736382   -1.343845    1.220425
     70          6           0        8.439070    0.517982    0.385970
     71          1           0        6.403717    1.531857   -1.173615
     72          6           0        8.080447    0.179072   -1.056548
     73          1           0        9.490030    0.290822    0.574875
     74          1           0        8.290626    1.587245    0.554368
     75          1           0        8.695280    0.763611   -1.743905
     76          1           0        8.281232   -0.878632   -1.241306
     77          1           0        0.617523    3.295474   -0.503628
     78          1           0        4.300495   -0.704150    1.821189
     79          1           0        3.712850   -1.860724   -0.972085
     80          1           0       -1.356035    1.862477    5.144322
     81          1           0       -0.826377    5.378530   -2.824400
     82          1           0       -4.537532    5.424312    0.469469
     83          1           0       -4.085980   -5.368663    1.026909
     84          1           0       -1.522924   -5.384297   -3.221665
     85          1           0        7.804957   -0.015394    2.379728
     86          1           0        6.342710    0.211231   -2.343260
     87          1           0        5.492859   -0.657517    2.946213
 ---------------------------------------------------------------------

 SCF Done:  E(RHF) =  -1790.61991347     a.u. after    7 cycles
 SCF Done:  E(RHF) =  -1790.61995701     A.U. after   20 cycles
 E2 =    -0.6264879931D+01 EUMP2 =    -0.17968848369405D+04

 The electronic state is 1-A.
 Alpha  occ. eigenvalues --  -20.56735 -15.56524 -15.56273 -15.56204 -15.56139
 Alpha  occ. eigenvalues --  -15.55886 -15.54044 -11.34279 -11.29145 -11.28938
 Alpha  occ. eigenvalues --  -11.28932 -11.28667 -11.28607 -11.26714 -11.26524
 Alpha  occ. eigenvalues --  -11.26494 -11.26091 -11.26061 -11.25910 -11.25849
 Alpha  occ. eigenvalues --  -11.25819 -11.25797 -11.25723 -11.25425 -11.25371
 Alpha  occ. eigenvalues --  -11.25331 -11.25241 -11.25158 -11.25116 -11.25105
 Alpha  occ. eigenvalues --  -11.25081 -11.22555 -11.22495 -11.22490 -11.22453
 Alpha  occ. eigenvalues --  -11.22432 -11.22357 -11.22256 -11.22123 -11.21933
 Alpha  occ. eigenvalues --  -11.21873 -11.21798 -11.21672  -1.40272  -1.27077
 Alpha  occ. eigenvalues --   -1.26880  -1.25499  -1.23942  -1.23464  -1.18691
 Alpha  occ. eigenvalues --   -1.18293  -1.16928  -1.12222  -1.11559  -1.09966
 Alpha  occ. eigenvalues --   -1.06833  -1.06684  -1.06078  -1.06033  -1.01056
 Alpha  occ. eigenvalues --   -1.00613  -1.00506  -0.99760  -0.99342  -0.97528
 Alpha  occ. eigenvalues --   -0.90834  -0.90642  -0.89770  -0.89013  -0.88572
 Alpha  occ. eigenvalues --   -0.86951  -0.83548  -0.83137  -0.82835  -0.82056
 Alpha  occ. eigenvalues --   -0.81616  -0.80425  -0.77484  -0.77382  -0.76332
 Alpha  occ. eigenvalues --   -0.76174  -0.75692  -0.74919  -0.74688  -0.71792
 Alpha  occ. eigenvalues --   -0.70664  -0.69997  -0.69259  -0.67556  -0.67254
 Alpha  occ. eigenvalues --   -0.66739  -0.66044  -0.65722  -0.65122  -0.64943
 Alpha  occ. eigenvalues --   -0.64209  -0.63658  -0.63255  -0.63053  -0.62651
 Alpha  occ. eigenvalues --   -0.61859  -0.61382  -0.61034  -0.60564  -0.60395
 Alpha  occ. eigenvalues --   -0.59548  -0.59497  -0.59321  -0.58133  -0.58050
 Alpha  occ. eigenvalues --   -0.56729  -0.56435  -0.56048  -0.55467  -0.54566
 Alpha  occ. eigenvalues --   -0.54434  -0.54171  -0.53575  -0.53227  -0.53019
 Alpha  occ. eigenvalues --   -0.52390  -0.52234  -0.51986  -0.51918  -0.50308
 Alpha  occ. eigenvalues --   -0.49814  -0.49508  -0.49305  -0.48928  -0.48743
 Alpha  occ. eigenvalues --   -0.47633  -0.47558  -0.47291  -0.47058  -0.46786
 Alpha  occ. eigenvalues --   -0.46416  -0.46088  -0.45643  -0.44024  -0.43814
 Alpha  occ. eigenvalues --   -0.43121  -0.43023  -0.42709  -0.41627  -0.41264
 Alpha  occ. eigenvalues --   -0.41048  -0.40655  -0.40427  -0.40087  -0.39333
 Alpha  occ. eigenvalues --   -0.38213  -0.34595  -0.32972  -0.32409  -0.32122
 Alpha virt. eigenvalues --    0.03074   0.03219   0.03315   0.03635   0.03808
 Alpha virt. eigenvalues --    0.03881   0.04138   0.04189   0.04391   0.04759
 Alpha virt. eigenvalues --    0.05114   0.05225   0.05248   0.05344   0.05424

 Mulliken charges:
               1
     1  C    0.924390
     2  C    0.731929
     3  C    1.098541
     4  C   -0.024447
     5  H   -0.845914
     6  C    0.311197
     7  C    0.786673
     8  H   -0.751288
     9  C    0.636174
    10  C    0.307494
    11  H   -1.085660
    12  C    1.280767
    13  H   -0.778187
    14  H   -0.739319
    15  C    0.880113
    16  C    0.172388
    17  C    0.323083
    18  C    1.175384
    19  H   -1.083215
    20  C    0.444719
    21  C    0.548445
    22  H   -0.862141
    23  C    0.032726
    24  C    0.391856
    25  H   -0.828438
    26  C    0.691282
    27  H   -0.720118
    28  C   -0.076823
    29  C   -0.086432
    30  N   -0.323559
    31  H   -0.303542
    32  C    0.764423
    33  N   -0.689396
    34  H   -0.362007
    35  C    0.759480
    36  H   -0.118252
    37  C    0.573039
    38  H   -0.099640
    39  C    0.496119
    40  H   -0.137772
    41  H   -0.088140
    42  H   -0.146498
    43  H   -0.086849
    44  O   -0.815448
    45  C   -0.216977
    46  C   -0.222179
    47  N   -0.305664
    48  H   -0.288569
    49  C    0.834082
    50  N   -0.566067
    51  H   -0.423765
    52  C    0.787708
    53  H   -0.104681
    54  C    0.533831
    55  H   -0.106647
    56  C    0.557993
    57  H   -0.086179
    58  H   -0.144475
    59  H   -0.146865
    60  H   -0.083542
    61  C    0.612539
    62  C   -0.537572
    63  N   -0.360206
    64  H   -0.213788
    65  C    0.630406
    66  N   -0.192183
    67  H   -0.326872
    68  C    0.862239
    69  H   -0.017962
    70  C    0.494358
    71  H   -0.143258
    72  C    0.613521
    73  H   -0.156018
    74  H   -0.106642
    75  H   -0.122896
    76  H   -0.111156
    77  H   -0.830925
    78  H   -0.022848
    79  H   -0.804506
    80  H   -0.322416
    81  H   -0.227024
    82  H   -0.188564
    83  H   -0.230803
    84  H   -0.186162
    85  H   -0.156012
    86  H   -0.219265
    87  H   -0.031126
 Sum of Mulliken charges =   0.00000

 Dipole moment (field-independent basis, Debye):
    X=             -0.7829    Y=              1.1579    Z=             -2.7273  Tot=              3.0646
 Quadrupole moment (field-independent basis, Debye-Ang):
   XX=           -251.8700   YY=           -242.3130   ZZ=           -284.0449
   XY=              4.2470   XZ=              5.9392   YZ=              5.2472

 Normal termination of Gaussian 16 at Fri Nov 12 00:54:33 2021.
