 Gaussian 16, Revision C.01,
 Gaussian 16:  ES64L-G16RevC.01  3-Jul-2019

 ----------------------------------------------------------------------
 #P PBE1PBE/Def2TZVP SP SCF=(YQC,MaxCycle=900) int=(Grid=Superfinegrid)
  EmpiricalDispersion=GD3 SCRF=(PCM,Solvent=Dichloromethane)
 ----------------------------------------------------------------------

 -------------------------
 _2_alde1_3_ami2_2_opt_dcm
 -------------------------
 Symbolic Z-matrix:
 Charge =  0 Multiplicity = 1

                         Standard orientation:
 ---------------------------------------------------------------------
 Center     Atomic      Atomic             Coordinates (Angstroms)
 Number     Number       Type             X           Y           Z
 ---------------------------------------------------------------------
      1          6           0        3.231124    1.864318    0.232485
      2          6           0        2.544822    3.148296    0.369751
      3          6           0        4.524160    1.828132   -0.274926
      4          6           0        5.182629    0.610621   -0.452097
      5          1           0        5.040897    2.737375   -0.548189
      6          6           0        4.543056   -0.574009   -0.108008
      7          6           0        3.251446   -0.554065    0.418739
      8          1           0        5.030550   -1.528815   -0.234060
      9          6           0        2.602593    0.666521    0.582841
     10          6           0        2.600405   -1.810301    0.792077
     11          1           0        1.598463    0.714168    0.978034
     12          6           0        6.547064    0.593245   -0.998163
     13          1           0        1.655805   -1.705105    1.338113
     14          1           0        3.176169    4.028209    0.189171
     15          6           0       -0.998421    0.747095   -1.025324
     16          6           0       -0.552091    2.125497   -1.146916
     17          6           0       -0.095170   -0.268164   -1.332024
     18          6           0       -0.398383   -1.594359   -1.044305
     19          1           0        0.876647   -0.017462   -1.735700
     20          6           0       -1.649414   -1.911646   -0.520909
     21          6           0       -2.587443   -0.912510   -0.274457
     22          1           0       -1.869904   -2.946247   -0.305533
     23          6           0       -2.244956    0.419436   -0.503902
     24          6           0       -3.901068   -1.264734    0.245743
     25          1           0       -2.946597    1.201213   -0.264379
     26          6           0        0.641513   -2.603365   -1.184411
     27          1           0        1.494820   -2.337068   -1.827008
     28          6           0       -0.448389    4.331736   -0.480615
     29          6           0        0.514964    4.370356    0.745480
     30          7           0       -1.105727    3.066641   -0.515663
     31          1           0        0.149601    4.520133   -1.387540
     32          7           0        1.318855    3.186136    0.648275
     33          6           0       -0.302534    4.222654    2.033609
     34          8           0        7.175539    1.565696   -1.328900
     35          6           0        2.573231   -4.196673    0.751995
     36          6           0        1.713777   -4.547731   -0.505543
     37          7           0        3.146050   -2.908036    0.491424
     38          6           0        3.744660   -5.179930    0.837426
     39          7           0        0.584661   -3.686514   -0.536880
     40          1           0        1.363808   -5.576756   -0.405407
     41          6           0       -6.070699   -0.761794    0.945676
     42          6           0       -7.155021   -0.311860   -0.079679
     43          7           0       -4.780568   -0.390898    0.476513
     44          1           0       -6.164886   -1.844397    1.135889
     45          7           0       -7.052078    1.100799   -0.396921
     46          6           0       -8.538776   -0.574394    0.516176
     47          1           0        0.354052    2.275471   -1.755149
     48          1           0       -4.075271   -2.338011    0.422754
     49          1           0       -6.125114    1.298263   -0.758874
     50          1           0        6.975864   -0.424434   -1.088560
     51          1           0       -1.198287    5.116119   -0.363448
     52          6           0        1.269886    5.703487    0.740283
     53          6           0        1.705238   -4.290235    2.011002
     54          1           0        2.356888   -4.450348   -1.393277
     55          1           0       -6.244081   -0.220755    1.882463
     56          6           0       -6.984909   -1.100764   -1.379543
     57          1           0        3.384352   -6.203394    0.895150
     58          1           0        4.337381   -4.964184    1.723034
     59          1           0        4.381191   -5.074553   -0.036713
     60          1           0        0.563961    6.520324    0.862647
     61          1           0        1.804510    5.853122   -0.195920
     62          1           0        1.981532    5.734489    1.563355
     63          1           0       -7.127648   -2.164360   -1.205303
     64          1           0       -5.989378   -0.942278   -1.788489
     65          1           0       -7.715720   -0.758509   -2.106600
     66          1           0       -7.177523    1.660027    0.440287
     67          1           0        1.458731   -5.330452    2.205296
     68          1           0        0.777959   -3.738711    1.882800
     69          1           0        2.248756   -3.891803    2.865832
     70          1           0       -8.676894   -1.633385    0.717780
     71          1           0       -9.299743   -0.245281   -0.185716
     72          1           0       -8.666818   -0.023712    1.445764
     73          1           0        0.361258    4.206331    2.895036
     74          1           0       -0.860298    3.291865    1.995860
     75          1           0       -0.997449    5.051284    2.135799
 ---------------------------------------------------------------------

 SCF Done:  E(RPBE1PBE) =  -1568.52508609     a.u. after    6 cycles
 SCF Done:  E(RPBE1PBE) =  -1568.52510136     A.U. after    8 cycles

 The electronic state is 1-A.
 Alpha  occ. eigenvalues --  -19.21405 -14.38052 -14.38035 -14.38002 -14.37954
 Alpha  occ. eigenvalues --  -14.37471 -14.35371 -10.31837 -10.27324 -10.27251
 Alpha  occ. eigenvalues --  -10.27147 -10.26934 -10.26879 -10.26800 -10.26526
 Alpha  occ. eigenvalues --  -10.25799 -10.25286 -10.25259 -10.25110 -10.25063
 Alpha  occ. eigenvalues --  -10.25023 -10.25022 -10.25011 -10.24740 -10.24663
 Alpha  occ. eigenvalues --  -10.24587 -10.24519 -10.24414 -10.24120 -10.24064
 Alpha  occ. eigenvalues --  -10.23723 -10.21117 -10.20699 -10.20678 -10.20411
 Alpha  occ. eigenvalues --  -10.20409 -10.20151  -1.09173  -0.98433  -0.98021
 Alpha  occ. eigenvalues --   -0.96769  -0.95510  -0.95078  -0.91738  -0.91148
 Alpha  occ. eigenvalues --   -0.89974  -0.84430  -0.83277  -0.81395  -0.80876
 Alpha  occ. eigenvalues --   -0.80201  -0.78730  -0.78081  -0.72932  -0.72308
 Alpha  occ. eigenvalues --   -0.71850  -0.71538  -0.71506  -0.70948  -0.69113
 Alpha  occ. eigenvalues --   -0.68863  -0.67668  -0.67007  -0.65172  -0.62533
 Alpha  occ. eigenvalues --   -0.61674  -0.59771  -0.57949  -0.57195  -0.56351
 Alpha  occ. eigenvalues --   -0.55690  -0.54990  -0.54503  -0.53364  -0.52652
 Alpha  occ. eigenvalues --   -0.51973  -0.50985  -0.50404  -0.50173  -0.49712
 Alpha  occ. eigenvalues --   -0.49514  -0.48842  -0.48436  -0.48200  -0.47856
 Alpha  occ. eigenvalues --   -0.47248  -0.47214  -0.47031  -0.46433  -0.45912
 Alpha  occ. eigenvalues --   -0.45422  -0.44974  -0.44554  -0.44352  -0.42884
 Alpha  occ. eigenvalues --   -0.42257  -0.42073  -0.41691  -0.41306  -0.41035
 Alpha  occ. eigenvalues --   -0.40719  -0.40099  -0.39997  -0.39854  -0.39490
 Alpha  occ. eigenvalues --   -0.39043  -0.38900  -0.38801  -0.38512  -0.37978
 Alpha  occ. eigenvalues --   -0.37801  -0.37675  -0.37067  -0.36768  -0.36611
 Alpha  occ. eigenvalues --   -0.36388  -0.35895  -0.35127  -0.34741  -0.33894
 Alpha  occ. eigenvalues --   -0.33806  -0.33020  -0.30586  -0.28708  -0.27972
 Alpha  occ. eigenvalues --   -0.27490  -0.27299  -0.27221  -0.26796  -0.26692
 Alpha  occ. eigenvalues --   -0.26537  -0.26313  -0.25281  -0.24861
 Alpha virt. eigenvalues --   -0.07881  -0.06758  -0.06487  -0.05582  -0.03140
 Alpha virt. eigenvalues --   -0.01990   0.04028   0.04520   0.04677   0.05108
 Alpha virt. eigenvalues --    0.05188   0.05263   0.05909   0.06134   0.06426

 Mulliken charges:
               1
     1  C    0.373335
     2  C   -0.167283
     3  C   -0.342011
     4  C    0.243619
     5  H    0.138166
     6  C   -0.327283
     7  C    0.383932
     8  H    0.138973
     9  C   -0.375340
    10  C   -0.176647
    11  H    0.147101
    12  C    0.070293
    13  H    0.117779
    14  H    0.110433
    15  C    0.346306
    16  C   -0.114385
    17  C   -0.317992
    18  C    0.301802
    19  H    0.149798
    20  C   -0.372736
    21  C    0.405292
    22  H    0.125029
    23  C   -0.404677
    24  C   -0.175247
    25  H    0.120086
    26  C   -0.130463
    27  H    0.110265
    28  C   -0.075188
    29  C    0.157097
    30  N   -0.213485
    31  H    0.096559
    32  N   -0.208000
    33  C   -0.413986
    34  O   -0.327567
    35  C    0.124093
    36  C   -0.089855
    37  N   -0.196641
    38  C   -0.357780
    39  N   -0.230765
    40  H    0.126827
    41  C   -0.133228
    42  C    0.154717
    43  N   -0.186909
    44  H    0.083130
    45  N   -0.550274
    46  C   -0.373088
    47  H    0.089677
    48  H    0.089140
    49  H    0.232973
    50  H    0.099335
    51  H    0.125511
    52  C   -0.404858
    53  C   -0.413688
    54  H    0.098988
    55  H    0.123824
    56  C   -0.386452
    57  H    0.125070
    58  H    0.128526
    59  H    0.126296
    60  H    0.142654
    61  H    0.136361
    62  H    0.140743
    63  H    0.119110
    64  H    0.132812
    65  H    0.126161
    66  H    0.224103
    67  H    0.134382
    68  H    0.144438
    69  H    0.134742
    70  H    0.122619
    71  H    0.128283
    72  H    0.125591
    73  H    0.126055
    74  H    0.141707
    75  H    0.122095
 Sum of Mulliken charges =   0.00000

 Dipole moment (field-independent basis, Debye):
    X=              0.2861    Y=             -1.9206    Z=              1.7300  Tot=              2.6007
 Quadrupole moment (field-independent basis, Debye-Ang):
   XX=           -262.4761   YY=           -198.7392   ZZ=           -222.2584
   XY=             -0.5671   XZ=             -4.9508   YZ=              2.5325

 Normal termination of Gaussian 16 at Sun Oct 17 22:34:11 2021.
