 Gaussian 16, Revision C.01,
 Gaussian 16:  ES64L-G16RevC.01  3-Jul-2019

 ---------------------------------------------------------------------
 #P MP2/aug-cc-pVDZ SP SCF=(YQC,MaxCycle=900) int=(Grid=Superfinegrid)
 ---------------------------------------------------------------------

 -----------------------------
 _2_alde1_4_ami3_1_opt_gas_mp2
 -----------------------------
 Symbolic Z-matrix:
 Charge =  0 Multiplicity = 1

                         Standard orientation:
 ---------------------------------------------------------------------
 Center     Atomic      Atomic             Coordinates (Angstroms)
 Number     Number       Type             X           Y           Z
 ---------------------------------------------------------------------
      1          6           0        1.850040    1.154403   -1.930407
      2          6           0        2.751299    2.146725   -1.368995
      3          6           0        0.663136    1.522196   -2.563079
      4          6           0       -0.233611    0.555370   -2.995045
      5          1           0        0.449819    2.571043   -2.699353
      6          6           0        0.035609   -0.784404   -2.757720
      7          6           0        1.218443   -1.169613   -2.128508
      8          1           0       -0.682049   -1.524949   -3.077385
      9          6           0        2.132742   -0.194276   -1.743991
     10          6           0        1.448200   -2.563211   -1.776955
     11          1           0        3.045528   -0.510249   -1.264189
     12          6           0       -1.518658    0.990203   -3.662143
     13          1           0        0.552673   -3.206017   -1.785907
     14          1           0        3.692414    1.744827   -0.963119
     15          6           0        1.218165    1.169815    2.128516
     16          6           0        1.447609    2.563473    1.776882
     17          6           0        2.132655    0.194691    1.743876
     18          6           0        1.850184   -1.154052    1.930306
     19          1           0        3.045388    0.510753    1.264128
     20          6           0        0.663391   -1.522173    2.563040
     21          6           0       -0.233471   -0.555514    2.994959
     22          1           0        0.450233   -2.571030    2.699318
     23          6           0        0.035433    0.784311    2.757775
     24          6           0       -1.518471   -0.990520    3.662203
     25          1           0       -0.682394    1.524741    3.077435
     26          6           0        2.751726   -2.146168    1.368902
     27          1           0        3.692633   -1.744113    0.962971
     28          6           0        2.702833    4.325049    0.912894
     29          6           0        3.322787    4.210093   -0.503218
     30          7           0        2.578429    2.997392    1.426078
     31          7           0        2.458033    3.371046   -1.274739
     32          6           0       -3.436822   -0.159419   -3.066633
     33          6           0       -3.650815    1.339618   -2.794138
     34          7           0       -2.354662   -0.161579   -4.040028
     35          7           0       -2.296201    1.868684   -2.755693
     36          6           0        2.703775   -4.324576   -0.912840
     37          6           0        3.323659   -4.209488    0.503195
     38          7           0        2.579050   -2.996913   -1.425968
     39          7           0        2.458696   -3.370590    1.274740
     40          6           0       -3.650524   -1.340334    2.794076
     41          6           0       -3.436824    0.158812    3.066760
     42          7           0       -2.295870   -1.869135    2.755732
     43          7           0       -2.354698    0.160946    4.040140
     44          1           0        0.551935    3.206086    1.785827
     45          1           0       -1.919490   -1.798167    1.813807
     46          1           0       -1.264889   -1.570151    4.561026
     47          1           0       -2.735229    0.025159    4.971285
     48          1           0       -1.919805    1.797709   -1.813737
     49          1           0       -2.735236   -0.025933   -4.971274
     50          1           0       -1.265154    1.569786   -4.561102
     51          6           0       -4.747827    0.819612    3.439606
     52          6           0       -4.538997    1.528838   -1.581858
     53          6           0        3.620899    5.178329    1.788138
     54          6           0        3.450905   -5.600709    1.115020
     55          1           0        1.717793    4.818654    0.822556
     56          6           0        3.449689    5.601373   -1.114935
     57          1           0        4.322740    3.755801   -0.383258
     58          6           0        4.336453    6.481321   -0.239307
     59          1           0        2.453540    6.036521   -1.208221
     60          1           0        3.873233    5.513739   -2.117354
     61          6           0        3.782982    6.568117    1.180603
     62          1           0        4.405839    7.481468   -0.671741
     63          1           0        5.343790    6.059350   -0.208542
     64          1           0        2.810942    7.066711    1.159338
     65          1           0        4.451860    7.164915    1.804279
     66          1           0        4.589850    4.683210    1.870719
     67          1           0        3.192718    5.249450    2.790519
     68          1           0       -4.140789    1.788277   -3.671693
     69          6           0       -5.878324    0.847485   -1.881872
     70          1           0       -4.692167    2.588745   -1.371848
     71          1           0       -4.068197    1.071333   -0.707325
     72          6           0       -5.712752   -0.626540   -2.264951
     73          1           0       -6.362902    1.378102   -2.704727
     74          1           0       -6.531701    0.920853   -1.010159
     75          6           0       -4.747782   -0.820520   -3.439523
     76          1           0       -6.689435   -1.041662   -2.521236
     77          1           0       -5.332683   -1.181375   -1.404344
     78          1           0       -5.154066   -0.354965   -4.341125
     79          1           0       -4.605588   -1.883724   -3.639532
     80          1           0       -3.040811   -0.627615   -2.152960
     81          1           0       -3.040840    0.627087    2.153088
     82          6           0       -5.712759    0.625646    2.264928
     83          1           0       -4.605803    1.882943    3.639599
     84          1           0       -5.154083    0.353996    4.341035
     85          6           0       -5.878145   -0.848415    1.881844
     86          1           0       -5.332740    1.180508    1.404369
     87          1           0       -6.689509    1.040640    2.521201
     88          6           0       -4.538714   -1.529630    1.581749
     89          1           0       -6.531438   -0.921879    1.010001
     90          1           0       -6.362662   -1.379119    2.704652
     91          1           0       -4.691707   -2.589441    1.371756
     92          1           0       -4.067959   -1.071933    0.707349
     93          1           0       -4.140513   -1.789075    3.671602
     94          1           0        4.323547   -3.755016    0.383256
     95          6           0        3.621971   -5.177582   -1.788134
     96          1           0        1.718755   -4.818318   -0.822523
     97          6           0        3.784352   -6.567369   -1.180640
     98          1           0        4.590843   -4.682231   -1.870659
     99          1           0        3.193852   -5.248764   -2.790492
    100          6           0        4.337735   -6.480500    0.239361
    101          1           0        4.453317   -7.164038   -1.804254
    102          1           0        2.812437   -7.066219   -1.159283
    103          1           0        5.345068   -6.058233    0.208576
    104          1           0        4.407416   -7.480648    0.671823
    105          1           0        2.454777   -6.036193    1.208203
    106          1           0        3.874392   -5.513097    2.117345
 ---------------------------------------------------------------------

 SCF Done:  E(RHF) =  -2058.86911970     a.u. after    6 cycles
 SCF Done:  E(RHF) =  -2058.86925338     A.U. after   15 cycles
 E2 =    -0.7342518989D+01 EUMP2 =    -0.20662117723651D+04

 The electronic state is 1-A.
 Alpha  occ. eigenvalues --  -15.55391 -15.55389 -15.55128 -15.55127 -15.54935
 Alpha  occ. eigenvalues --  -15.54933 -15.54739 -15.54739 -11.29106 -11.29105
 Alpha  occ. eigenvalues --  -11.27799 -11.27798 -11.27415 -11.27414 -11.25442
 Alpha  occ. eigenvalues --  -11.25442 -11.25265 -11.25264 -11.25049 -11.25049
 Alpha  occ. eigenvalues --  -11.24801 -11.24801 -11.23896 -11.23896 -11.23850
 Alpha  occ. eigenvalues --  -11.23849 -11.23800 -11.23799 -11.23622 -11.23622
 Alpha  occ. eigenvalues --  -11.23570 -11.23569 -11.23378 -11.23378 -11.23300
 Alpha  occ. eigenvalues --  -11.23300 -11.23248 -11.23248 -11.23183 -11.23182
 Alpha  occ. eigenvalues --  -11.23153 -11.23152 -11.21772 -11.21772 -11.21663
 Alpha  occ. eigenvalues --  -11.21662 -11.21618 -11.21617 -11.21305 -11.21305
 Alpha  occ. eigenvalues --   -1.28054  -1.28050  -1.25791  -1.25631  -1.22596
 Alpha  occ. eigenvalues --   -1.22172  -1.16615  -1.15799  -1.15062  -1.15054
 Alpha  occ. eigenvalues --   -1.12024  -1.11716  -1.11200  -1.10437  -1.04944
 Alpha  occ. eigenvalues --   -1.04926  -1.04649  -1.04597  -1.00781  -1.00742
 Alpha  occ. eigenvalues --   -1.00154  -0.99674  -0.99471  -0.98308  -0.97957
 Alpha  occ. eigenvalues --   -0.97864  -0.89183  -0.88709  -0.88049  -0.87491
 Alpha  occ. eigenvalues --   -0.87382  -0.85951  -0.83401  -0.83382  -0.82586
 Alpha  occ. eigenvalues --   -0.82415  -0.82279  -0.81559  -0.81076  -0.80329
 Alpha  occ. eigenvalues --   -0.78901  -0.78476  -0.76775  -0.76435  -0.75850
 Alpha  occ. eigenvalues --   -0.75406  -0.74194  -0.73381  -0.69898  -0.69437
 Alpha  occ. eigenvalues --   -0.68594  -0.68543  -0.67399  -0.66917  -0.66357
 Alpha  occ. eigenvalues --   -0.66294  -0.65587  -0.64585  -0.64023  -0.63923
 Alpha  occ. eigenvalues --   -0.63594  -0.63553  -0.63299  -0.62769  -0.62077
 Alpha  occ. eigenvalues --   -0.61930  -0.61467  -0.60806  -0.60723  -0.60105
 Alpha  occ. eigenvalues --   -0.59788  -0.59248  -0.59134  -0.58970  -0.58249
 Alpha  occ. eigenvalues --   -0.58211  -0.57092  -0.56978  -0.55980  -0.55744
 Alpha  occ. eigenvalues --   -0.55545  -0.55499  -0.55277  -0.55261  -0.54331
 Alpha  occ. eigenvalues --   -0.54224  -0.53347  -0.53138  -0.52280  -0.52184
 Alpha  occ. eigenvalues --   -0.51559  -0.50895  -0.50804  -0.50763  -0.50480
 Alpha  occ. eigenvalues --   -0.50374  -0.49860  -0.49672  -0.49211  -0.48920
 Alpha  occ. eigenvalues --   -0.48518  -0.48188  -0.47969  -0.47767  -0.47670
 Alpha  occ. eigenvalues --   -0.46838  -0.46605  -0.46407  -0.46281  -0.45931
 Alpha  occ. eigenvalues --   -0.45865  -0.45750  -0.45619  -0.45508  -0.45060
 Alpha  occ. eigenvalues --   -0.44868  -0.42882  -0.41845  -0.40633  -0.40053
 Alpha  occ. eigenvalues --   -0.39791  -0.39712  -0.38995  -0.38880  -0.38069
 Alpha  occ. eigenvalues --   -0.38019  -0.37194  -0.37193  -0.32520  -0.31337
 Alpha  occ. eigenvalues --   -0.31123  -0.30977
 Alpha virt. eigenvalues --    0.02693   0.03115   0.03321   0.03553   0.03845
 Alpha virt. eigenvalues --    0.03915   0.04022   0.04274   0.04438   0.04751
 Alpha virt. eigenvalues --    0.04789   0.05046   0.05049   0.05449   0.05562

 Mulliken charges:
               1
     1  C    1.503774
     2  C    0.424426
     3  C   -0.089987
     4  C    0.188196
     5  H   -1.082340
     6  C    0.761416
     7  C    1.319188
     8  H   -0.858547
     9  C    0.499128
    10  C    0.386653
    11  H   -1.041704
    12  C    0.964360
    13  H   -0.799009
    14  H   -0.726448
    15  C    1.318934
    16  C    0.387059
    17  C    0.499050
    18  C    1.504101
    19  H   -1.041878
    20  C   -0.089716
    21  C    0.188547
    22  H   -1.082379
    23  C    0.761051
    24  C    0.964726
    25  H   -0.858424
    26  C    0.425285
    27  H   -0.726966
    28  C   -0.233118
    29  C   -0.034780
    30  N   -0.406161
    31  N   -0.484314
    32  C   -0.136387
    33  C   -0.027893
    34  N   -0.754868
    35  N   -0.473539
    36  C   -0.234183
    37  C   -0.034751
    38  N   -0.405948
    39  N   -0.484563
    40  C   -0.027867
    41  C   -0.136779
    42  N   -0.473590
    43  N   -0.754581
    44  H   -0.798952
    45  H    0.236011
    46  H   -0.230720
    47  H    0.082354
    48  H    0.236070
    49  H    0.082495
    50  H   -0.230261
    51  C    0.751503
    52  C    1.001627
    53  C    0.709129
    54  C    0.761351
    55  H   -0.318274
    56  C    0.761021
    57  H   -0.379184
    58  C    0.536984
    59  H   -0.114604
    60  H   -0.203074
    61  C    0.546756
    62  H   -0.145674
    63  H   -0.085499
    64  H   -0.083256
    65  H   -0.144271
    66  H   -0.122035
    67  H   -0.240436
    68  H   -0.470775
    69  C    0.624886
    70  H   -0.236938
    71  H    0.026128
    72  C    0.419321
    73  H   -0.134334
    74  H   -0.245615
    75  C    0.751950
    76  H   -0.189800
    77  H   -0.214526
    78  H   -0.034741
    79  H   -0.135605
    80  H   -0.865571
    81  H   -0.865470
    82  C    0.419557
    83  H   -0.135110
    84  H   -0.035046
    85  C    0.624489
    86  H   -0.214787
    87  H   -0.189784
    88  C    1.002586
    89  H   -0.245344
    90  H   -0.134476
    91  H   -0.237402
    92  H    0.025857
    93  H   -0.470692
    94  H   -0.379064
    95  C    0.709454
    96  H   -0.318054
    97  C    0.547103
    98  H   -0.121863
    99  H   -0.240570
   100  C    0.536197
   101  H   -0.144457
   102  H   -0.083211
   103  H   -0.085140
   104  H   -0.145713
   105  H   -0.114181
   106  H   -0.203493
 Sum of Mulliken charges =   0.00000

 Dipole moment (field-independent basis, Debye):
    X=             -4.4306    Y=             -0.0002    Z=             -0.0004  Tot=              4.4306
 Quadrupole moment (field-independent basis, Debye-Ang):
   XX=           -280.4722   YY=           -305.6189   ZZ=           -304.8377
   XY=              0.0020   XZ=             -0.0009   YZ=              6.5904

 Normal termination of Gaussian 16 at Tue Nov  2 18:51:31 2021.
