 Gaussian 16, Revision C.01,
 Gaussian 16:  ES64L-G16RevC.01  3-Jul-2019

 ---------------------------------------------------------------------
 #P MP2/aug-cc-pVDZ SP SCF=(YQC,MaxCycle=900) int=(Grid=Superfinegrid)
 ---------------------------------------------------------------------

 -----------------------------
 _2_alde1_3_ami4_1_opt_gas_mp2
 -----------------------------
 Symbolic Z-matrix:
 Charge =  0 Multiplicity = 1

                         Standard orientation:
 ---------------------------------------------------------------------
 Center     Atomic      Atomic             Coordinates (Angstroms)
 Number     Number       Type             X           Y           Z
 ---------------------------------------------------------------------
      1          6           0       -2.430978   -0.720857    0.951586
      2          6           0       -2.021387   -2.110651    1.105871
      3          6           0       -3.707231   -0.392501    0.503963
      4          6           0       -4.053035    0.937912    0.273376
      5          1           0       -4.429678   -1.174936    0.329484
      6          6           0       -3.107225    1.941983    0.460929
      7          6           0       -1.826364    1.626495    0.907580
      8          1           0       -3.343003    2.975812    0.258569
      9          6           0       -1.504164    0.296650    1.172007
     10          6           0       -0.798248    2.652218    1.016758
     11          1           0       -0.509945    0.046892    1.517496
     12          6           0       -5.408567    1.274168   -0.190315
     13          1           0        0.137659    2.341434    1.503944
     14          1           0       -1.048003   -2.271754    1.592775
     15          6           0        0.489745   -1.500032   -1.138346
     16          6           0       -0.535748   -2.524910   -1.260294
     17          6           0        0.174091   -0.175644   -1.425916
     18          6           0        1.100764    0.836802   -1.190846
     19          1           0       -0.810073    0.072558   -1.800080
     20          6           0        2.365962    0.506260   -0.709080
     21          6           0        2.701493   -0.815018   -0.450673
     22          1           0        3.085075    1.293933   -0.548731
     23          6           0        1.759405   -1.810941   -0.650058
     24          6           0        4.067750   -1.136947    0.093247
     25          1           0        1.982453   -2.842460   -0.425815
     26          6           0        0.701188    2.225937   -1.354841
     27          1           0       -0.260670    2.390288   -1.864653
     28          6           0       -1.493657   -4.569483   -0.737746
     29          6           0       -2.186346   -4.374913    0.640629
     30          7           0       -0.378541   -3.686275   -0.783508
     31          1           0       -2.235447   -4.371300   -1.525297
     32          7           0       -2.728372   -3.060074    0.662099
     33          1           0       -1.437430   -4.546956    1.427551
     34          8           0       -6.289659    0.482368   -0.400320
     35          6           0        0.142842    4.701732    0.483220
     36          6           0        0.844476    4.491828   -0.887772
     37          7           0       -0.966095    3.810985    0.538851
     38          1           0       -0.227027    5.727012    0.534696
     39          7           0        1.393121    3.178476   -0.891853
     40          1           0        1.657751    5.214042   -0.976807
     41          6           0        5.635005   -0.663473    1.686534
     42          6           0        6.207296   -0.167828    0.338413
     43          7           0        4.196302   -0.753488    1.488767
     44          1           0        5.876763   -0.009909    2.522313
     45          7           0        5.108920   -0.369136   -0.602476
     46          1           0        7.115928   -0.713904    0.066087
     47          1           0       -1.467143   -2.212552   -1.756770
     48          1           0        4.243762   -2.227421    0.036998
     49          1           0        5.396962   -0.807017   -1.466994
     50          1           0       -5.567019    2.361190   -0.339742
     51          1           0       -1.132525   -5.597057   -0.804465
     52          1           0       -3.003112   -5.093286    0.726135
     53          1           0        0.881800    4.519740    1.277082
     54          1           0        0.101083    4.652535   -1.682922
     55          1           0        6.005336   -1.669217    1.907112
     56          1           0        6.445251    0.900875    0.376124
     57          1           0        3.778775    0.166364    1.605953
 ---------------------------------------------------------------------

 SCF Done:  E(RHF) =  -1325.60714585     a.u. after    6 cycles
 SCF Done:  E(RHF) =  -1325.60721905     A.U. after   12 cycles
 E2 =    -0.4532896377D+01 EUMP2 =    -0.13301401154232D+04

 The electronic state is 1-A.
 Alpha  occ. eigenvalues --  -20.56715 -15.56710 -15.56373 -15.56330 -15.56121
 Alpha  occ. eigenvalues --  -15.56048 -15.55269 -11.34239 -11.29652 -11.29548
 Alpha  occ. eigenvalues --  -11.29134 -11.29123 -11.28926 -11.27169 -11.26894
 Alpha  occ. eigenvalues --  -11.26424 -11.26317 -11.26283 -11.26088 -11.26057
 Alpha  occ. eigenvalues --  -11.26045 -11.25998 -11.25929 -11.25823 -11.25767
 Alpha  occ. eigenvalues --  -11.25697 -11.25174 -11.25153 -11.24934 -11.24815
 Alpha  occ. eigenvalues --  -11.24637  -1.40271  -1.28537  -1.27242  -1.26916
 Alpha  occ. eigenvalues --   -1.23842  -1.23295  -1.18598  -1.17153  -1.14796
 Alpha  occ. eigenvalues --   -1.08270  -1.07683  -1.06681  -1.05608  -1.01742
 Alpha  occ. eigenvalues --   -0.99296  -0.98893  -0.92208  -0.91791  -0.90419
 Alpha  occ. eigenvalues --   -0.89177  -0.87056  -0.84372  -0.83673  -0.82895
 Alpha  occ. eigenvalues --   -0.79772  -0.78813  -0.78374  -0.75695  -0.74742
 Alpha  occ. eigenvalues --   -0.71945  -0.71259  -0.70072  -0.69712  -0.68528
 Alpha  occ. eigenvalues --   -0.68025  -0.67626  -0.66745  -0.65664  -0.64630
 Alpha  occ. eigenvalues --   -0.64193  -0.63183  -0.62673  -0.62385  -0.61401
 Alpha  occ. eigenvalues --   -0.61125  -0.60846  -0.59937  -0.59625  -0.58648
 Alpha  occ. eigenvalues --   -0.56681  -0.56087  -0.55285  -0.55075  -0.54673
 Alpha  occ. eigenvalues --   -0.54363  -0.54052  -0.53425  -0.52987  -0.52365
 Alpha  occ. eigenvalues --   -0.51580  -0.51127  -0.50332  -0.49745  -0.49021
 Alpha  occ. eigenvalues --   -0.46128  -0.45830  -0.43112  -0.42874  -0.41855
 Alpha  occ. eigenvalues --   -0.41400  -0.41028  -0.40456  -0.40086  -0.39734
 Alpha  occ. eigenvalues --   -0.37628  -0.35597  -0.33244  -0.32991  -0.32031
 Alpha virt. eigenvalues --    0.02911   0.03383   0.03574   0.03890   0.04339
 Alpha virt. eigenvalues --    0.04460   0.04698   0.04947   0.05121   0.05228
 Alpha virt. eigenvalues --    0.05573   0.05951   0.06116   0.06371   0.06488

 Mulliken charges:
               1
     1  C    0.134976
     2  C    1.176498
     3  C    0.323667
     4  C    0.091744
     5  H   -0.804735
     6  C    0.767468
     7  C    0.142203
     8  H   -0.774860
     9  C    1.117712
    10  C    1.160297
    11  H   -0.980032
    12  C    1.256478
    13  H   -0.616926
    14  H   -0.634655
    15  C    1.044456
    16  C    0.654799
    17  C    0.871428
    18  C    1.137812
    19  H   -0.977268
    20  C   -0.079422
    21  C    0.732921
    22  H   -0.959013
    23  C    0.300725
    24  C    0.944966
    25  H   -0.813218
    26  C    0.499759
    27  H   -0.629877
    28  C    0.624077
    29  C    0.666903
    30  N   -0.734822
    31  H   -0.137476
    32  N   -0.792418
    33  H   -0.131895
    34  O   -0.804537
    35  C    0.616609
    36  C    0.643041
    37  N   -0.841030
    38  H   -0.320597
    39  N   -0.639405
    40  H   -0.323582
    41  C    0.684641
    42  C    0.689488
    43  N   -0.543028
    44  H   -0.234150
    45  N   -0.493924
    46  H   -0.197933
    47  H   -0.641729
    48  H   -0.374153
    49  H   -0.055809
    50  H   -0.313006
    51  H   -0.326384
    52  H   -0.323763
    53  H   -0.146130
    54  H   -0.138622
    55  H   -0.270011
    56  H   -0.270703
    57  H    0.042443
 Sum of Mulliken charges =   0.00000

 Dipole moment (field-independent basis, Debye):
    X=              5.0534    Y=              1.0189    Z=              0.3325  Tot=              5.1658
 Quadrupole moment (field-independent basis, Debye-Ang):
   XX=           -202.9251   YY=           -174.7733   ZZ=           -183.9889
   XY=             -6.2170   XZ=              1.8204   YZ=              1.8390

 Normal termination of Gaussian 16 at Mon Nov 22 11:43:04 2021.
