 Gaussian 16, Revision C.01,
 Gaussian 16:  ES64L-G16RevC.01  3-Jul-2019

 ----------------------------------------------------------------------
 #P MP2/aug-cc-pVDZ SP SCF=(YQC,MaxCycle=900) int=(Grid=Superfinegrid)
 SCRF=(PCM,Solvent=Chloroform)
 ----------------------------------------------------------------------

 -----------------------------
 _2_alde1_4_ami4_1_opt_cfm_mp2
 -----------------------------
 Symbolic Z-matrix:
 Charge =  0 Multiplicity = 1

                         Standard orientation:
 ---------------------------------------------------------------------
 Center     Atomic      Atomic             Coordinates (Angstroms)
 Number     Number       Type             X           Y           Z
 ---------------------------------------------------------------------
      1          6           0       -1.925425   -0.830059    0.491052
      2          6           0       -1.078629   -1.977950    0.793569
      3          6           0       -3.223104   -1.022914    0.010897
      4          6           0       -4.037959    0.059680   -0.270754
      5          1           0       -3.588960   -2.027961   -0.122761
      6          6           0       -3.553429    1.347885   -0.095273
      7          6           0       -2.255682    1.560032    0.365402
      8          1           0       -4.199109    2.184269   -0.318853
      9          6           0       -1.448029    0.463683    0.667373
     10          6           0       -1.742587    2.918240    0.483918
     11          1           0       -0.445637    0.646195    1.024748
     12          6           0       -5.446086   -0.155002   -0.786873
     13          1           0       -2.463295    3.726143    0.273586
     14          1           0       -0.144189   -1.757285    1.331691
     15          6           0        1.843630   -1.191982   -1.189749
     16          6           0        0.993055   -2.370133   -1.281904
     17          6           0        1.283351    0.059253   -1.419477
     18          6           0        2.017588    1.214825   -1.172638
     19          1           0        0.249687    0.135125   -1.729142
     20          6           0        3.346169    1.110973   -0.765222
     21          6           0        3.929173   -0.135659   -0.584684
     22          1           0        3.910533    2.012246   -0.588836
     23          6           0        3.172092   -1.283232   -0.777683
     24          6           0        5.365195   -0.245069   -0.157889
     25          1           0        3.602155   -2.257597   -0.610029
     26          6           0        1.326565    2.491454   -1.229219
     27          1           0        0.362438    2.476123   -1.762732
     28          6           0        0.310784   -4.479024   -0.589118
     29          6           0       -0.536139   -4.245849    0.687542
     30          7           0        1.273388   -3.430822   -0.656391
     31          7           0       -1.415319   -3.148346    0.456234
     32          6           0       -6.455716   -1.020464    1.085168
     33          6           0       -6.670195    0.525099    1.034457
     34          7           0       -5.989420   -1.396423   -0.243759
     35          7           0       -6.312376    0.928509   -0.320821
     36          6           0        0.011813    4.452677    0.771299
     37          6           0        0.853998    4.630904   -0.517154
     38          7           0       -0.536679    3.137099    0.777609
     39          7           0        1.743774    3.517755   -0.624872
     40          6           0        6.915102   -1.139863    1.288219
     41          6           0        7.040724    0.418009    1.272391
     42          7           0        5.645982   -1.439591    0.641015
     43          7           0        5.835031    0.903946    0.616964
     44          1           0        0.070033   -2.254090   -1.870648
     45          1           0        4.911048   -1.549837    1.335605
     46          1           0        6.009710   -0.306680   -1.050342
     47          1           0        5.128453    1.146213    1.307387
     48          1           0       -7.142816    0.974446   -0.904031
     49          1           0       -6.766793   -1.711086   -0.816354
     50          1           0       -5.420142   -0.186982   -1.881798
     51          1           0        7.904267    0.718945    0.673467
     52          1           0        7.145741    0.841467    2.270723
     53          1           0        6.952818   -1.554509    2.295130
     54          1           0        7.718081   -1.587472    0.696682
     55          1           0       -5.991339    1.020952    1.732293
     56          1           0       -7.692410    0.816343    1.274002
     57          1           0       -5.674048   -1.267485    1.807128
     58          1           0       -7.362804   -1.561757    1.351788
     59          1           0        0.154090   -4.077299    1.527884
     60          1           0       -1.145854   -5.132832    0.872642
     61          1           0       -0.368559   -4.503679   -1.454194
     62          1           0        0.839305   -5.429580   -0.495172
     63          1           0        1.437011    5.550797   -0.441318
     64          1           0        0.160343    4.697475   -1.372023
     65          1           0       -0.751733    5.247253    0.803198
     66          1           0        0.673761    4.534160    1.636535
 ---------------------------------------------------------------------

 SCF Done:  E(RHF) =  -1438.88749069     a.u. after    7 cycles
 SCF Done:  E(RHF) =  -1438.88752771     A.U. after   14 cycles
 E2 =    -0.4992504627D+01 EUMP2 =    -0.14438800323328D+04

 The electronic state is 1-A.
 Alpha  occ. eigenvalues --  -15.56038 -15.55920 -15.55848 -15.55562 -15.55358
 Alpha  occ. eigenvalues --  -15.55211 -15.55081 -15.55067 -11.29296 -11.28945
 Alpha  occ. eigenvalues --  -11.28687 -11.28548 -11.28508 -11.28220 -11.25757
 Alpha  occ. eigenvalues --  -11.25645 -11.25598 -11.25539 -11.25096 -11.25004
 Alpha  occ. eigenvalues --  -11.24943 -11.24897 -11.24892 -11.24890 -11.24756
 Alpha  occ. eigenvalues --  -11.24661 -11.24624 -11.24557 -11.24413 -11.24369
 Alpha  occ. eigenvalues --  -11.24244 -11.24228 -11.24127 -11.23761  -1.28196
 Alpha  occ. eigenvalues --   -1.27832  -1.26327  -1.26085  -1.23359  -1.22926
 Alpha  occ. eigenvalues --   -1.17095  -1.16278  -1.14554  -1.14322  -1.07178
 Alpha  occ. eigenvalues --   -1.06613  -1.05458  -1.04749  -1.00991  -0.98812
 Alpha  occ. eigenvalues --   -0.98402  -0.97815  -0.91262  -0.91178  -0.88043
 Alpha  occ. eigenvalues --   -0.87445  -0.86983  -0.83691  -0.83133  -0.81677
 Alpha  occ. eigenvalues --   -0.81495  -0.80159  -0.78883  -0.76205  -0.74307
 Alpha  occ. eigenvalues --   -0.73957  -0.71636  -0.71321  -0.70284  -0.68539
 Alpha  occ. eigenvalues --   -0.67871  -0.67505  -0.66199  -0.65967  -0.64918
 Alpha  occ. eigenvalues --   -0.64391  -0.63967  -0.63604  -0.63284  -0.62744
 Alpha  occ. eigenvalues --   -0.61774  -0.61113  -0.60641  -0.60269  -0.60087
 Alpha  occ. eigenvalues --   -0.59659  -0.59205  -0.58199  -0.55540  -0.55216
 Alpha  occ. eigenvalues --   -0.54285  -0.54022  -0.54017  -0.53566  -0.53343
 Alpha  occ. eigenvalues --   -0.53247  -0.52328  -0.52166  -0.51031  -0.50412
 Alpha  occ. eigenvalues --   -0.49774  -0.49667  -0.48746  -0.48604  -0.48422
 Alpha  occ. eigenvalues --   -0.48002  -0.46228  -0.44539  -0.42841  -0.41320
 Alpha  occ. eigenvalues --   -0.40506  -0.40488  -0.40316  -0.39903  -0.39600
 Alpha  occ. eigenvalues --   -0.39003  -0.37719  -0.37627  -0.33482  -0.32768
 Alpha  occ. eigenvalues --   -0.32159  -0.31482
 Alpha virt. eigenvalues --    0.03196   0.03652   0.03836   0.04130   0.04424
 Alpha virt. eigenvalues --    0.04659   0.04687   0.05136   0.05206   0.05513
 Alpha virt. eigenvalues --    0.05569   0.05690   0.06075   0.06465   0.06690

 Mulliken charges:
               1
     1  C    1.129554
     2  C    0.678325
     3  C   -0.077183
     4  C    0.749498
     5  H   -1.006415
     6  C    0.810593
     7  C    0.470939
     8  H   -0.874930
     9  C    0.082351
    10  C    0.546414
    11  H   -0.990959
    12  C    0.416694
    13  H   -0.653579
    14  H   -0.672601
    15  C    0.720441
    16  C    0.579700
    17  C    0.808767
    18  C    0.532522
    19  H   -0.951347
    20  C    0.659020
    21  C    0.229003
    22  H   -0.873574
    23  C    0.492068
    24  C    1.395085
    25  H   -0.888002
    26  C    0.677781
    27  H   -0.587140
    28  C    0.665662
    29  C    0.649027
    30  N   -0.769826
    31  N   -0.707038
    32  C    0.826165
    33  C    0.796902
    34  N   -0.393298
    35  N   -0.389225
    36  C    0.759744
    37  C    0.666310
    38  N   -0.398858
    39  N   -0.784384
    40  C    0.617162
    41  C    0.630647
    42  N   -0.530510
    43  N   -0.533976
    44  H   -0.562069
    45  H    0.034000
    46  H   -0.185265
    47  H    0.031140
    48  H   -0.001443
    49  H   -0.012170
    50  H   -0.056117
    51  H   -0.254444
    52  H   -0.260063
    53  H   -0.264141
    54  H   -0.253604
    55  H   -0.230407
    56  H   -0.225767
    57  H   -0.226903
    58  H   -0.228088
    59  H   -0.141569
    60  H   -0.324184
    61  H   -0.146523
    62  H   -0.318331
    63  H   -0.326643
    64  H   -0.104588
    65  H   -0.121291
    66  H   -0.329060
 Sum of Mulliken charges =   0.00000

 Dipole moment (field-independent basis, Debye):
    X=             -6.2005    Y=              1.2966    Z=              0.5374  Tot=              6.3574
 Quadrupole moment (field-independent basis, Debye-Ang):
   XX=           -166.9785   YY=           -204.5566   ZZ=           -196.5443
   XY=             -6.7934   XZ=             18.5389   YZ=             -1.9253

 Normal termination of Gaussian 16 at Mon Nov  8 16:20:10 2021.
