 Gaussian 16, Revision C.01,
 Gaussian 16:  ES64L-G16RevC.01  3-Jul-2019

 ----------------------------------------------------------------------
 #P PBE1PBE/Def2TZVP SP SCF=(YQC,MaxCycle=900) int=(Grid=Superfinegrid)
  EmpiricalDispersion=GD3 SCRF=(PCM,Solvent=Dichloromethane)
 ----------------------------------------------------------------------

 -------------------------
 _2_alde1_4_ami1_2_opt_dcm
 -------------------------
 Symbolic Z-matrix:
 Charge =  0 Multiplicity = 1

                         Standard orientation:
 ---------------------------------------------------------------------
 Center     Atomic      Atomic             Coordinates (Angstroms)
 Number     Number       Type             X           Y           Z
 ---------------------------------------------------------------------
      1          6           0       -0.947134    0.013390    2.163696
      2          6           0       -0.198206   -1.035491    2.842922
      3          6           0       -0.386781    1.269235    1.964489
      4          6           0       -1.075999    2.250207    1.249783
      5          1           0        0.586609    1.511334    2.363502
      6          6           0       -2.313602    1.946624    0.693002
      7          6           0       -2.886519    0.689906    0.880864
      8          1           0       -2.850944    2.674288    0.103870
      9          6           0       -2.209656   -0.258513    1.638896
     10          6           0       -4.130190    0.317117    0.225939
     11          1           0       -2.633831   -1.235134    1.811635
     12          6           0       -0.513752    3.583430    1.086003
     13          1           0       -4.510649   -0.683308    0.481514
     14          1           0        0.873346   -0.833162    2.994684
     15          1           0       -1.118866    4.286511    0.490415
     16          6           0       -0.674180   -2.617257   -0.487966
     17          6           0       -0.806620   -3.447989    0.699035
     18          6           0       -1.813449   -2.098722   -1.095560
     19          6           0       -1.708892   -1.155894   -2.115851
     20          1           0       -2.799712   -2.384535   -0.764181
     21          6           0       -0.446675   -0.771126   -2.559322
     22          6           0        0.702815   -1.313943   -1.989860
     23          1           0       -0.357625   -0.034546   -3.346594
     24          6           0        0.580459   -2.224919   -0.945169
     25          6           0        2.019795   -0.886435   -2.443673
     26          1           0        1.467256   -2.614617   -0.473032
     27          6           0       -2.895879   -0.489505   -2.629473
     28          1           0        2.034615   -0.154521   -3.267361
     29          1           0       -2.705105    0.399480   -3.252541
     30          6           0       -0.030093   -4.358629    2.688642
     31          6           0        0.064180   -3.186351    3.713212
     32          7           0        0.189437   -3.770499    1.401783
     33          1           0       -1.049339   -4.774445    2.761894
     34          6           0        0.992192   -5.481866    2.930245
     35          7           0       -0.735825   -2.121693    3.187342
     36          1           0        1.122697   -2.883411    3.780951
     37          6           0       -0.434381   -3.565713    5.121468
     38          1           0        0.875488   -5.841940    3.957820
     39          6           0        2.428058   -5.007361    2.722404
     40          6           0        0.682609   -6.636579    1.977162
     41          1           0        0.086253   -4.477305    5.431643
     42          6           0       -1.940204   -3.812355    5.155168
     43          6           0       -0.068260   -2.448354    6.098505
     44          1           0        1.369438   -7.462927    2.144481
     45          1           0        0.783765   -6.302033    0.947067
     46          1           0       -0.332845   -6.999188    2.124810
     47          1           0        3.107129   -5.856789    2.745768
     48          1           0        2.732185   -4.312103    3.500220
     49          1           0        2.511989   -4.513198    1.758941
     50          1           0       -0.566982   -1.523858    5.814733
     51          1           0        1.005999   -2.274613    6.103560
     52          1           0       -0.377121   -2.711925    7.107447
     53          1           0       -2.266982   -3.972525    6.180304
     54          1           0       -2.210233   -4.690270    4.574422
     55          1           0       -2.462373   -2.950621    4.748598
     56          6           0        1.074639    5.253587    1.479006
     57          6           0        2.536685    5.196609    0.935273
     58          7           0        0.581949    3.916003    1.612147
     59          1           0        0.444723    5.826578    0.776682
     60          6           0        0.934209    5.946954    2.856726
     61          7           0        3.210222    3.947125    1.248261
     62          1           0        3.122486    5.996761    1.399606
     63          6           0        2.576190    5.413997   -0.591685
     64          1           0       -0.114488    5.809810    3.152651
     65          6           0        1.200605    7.446148    2.753936
     66          6           0        1.807503    5.310925    3.934043
     67          1           0        1.895830    4.688297   -1.054060
     68          6           0        3.989138    5.165507   -1.118457
     69          6           0        2.149791    6.827222   -0.986532
     70          1           0        1.570674    5.744006    4.903978
     71          1           0        2.862294    5.485932    3.735409
     72          1           0        1.621840    4.240732    3.981104
     73          1           0        0.559489    7.903281    2.003514
     74          1           0        2.235466    7.644562    2.487004
     75          1           0        1.000515    7.921881    3.711504
     76          1           0        1.118044    7.040092   -0.719485
     77          1           0        2.247872    6.953836   -2.062558
     78          1           0        2.786542    7.561198   -0.497112
     79          1           0        4.671921    5.908043   -0.712542
     80          1           0        4.004356    5.237659   -2.203749
     81          1           0        4.337802    4.183149   -0.820722
     82          6           0       -5.792583    0.494298   -1.376390
     83          6           0       -5.181328   -0.044739   -2.705866
     84          7           0       -4.700090    1.048176   -0.630110
     85          1           0       -6.223543   -0.371760   -0.846844
     86          6           0       -6.884024    1.559257   -1.571514
     87          7           0       -4.063701   -0.856124   -2.328968
     88          1           0       -4.850258    0.824398   -3.300457
     89          6           0       -6.170899   -0.872083   -3.548283
     90          1           0       -7.680116    1.129592   -2.188190
     91          6           0       -6.346320    2.817836   -2.246847
     92          6           0       -7.472086    1.910449   -0.204521
     93          1           0       -7.056545   -0.256099   -3.733576
     94          6           0       -6.590905   -2.161081   -2.847501
     95          6           0       -5.524807   -1.197591   -4.895304
     96          1           0       -7.872089    1.023955    0.283538
     97          1           0       -8.275390    2.635920   -0.310794
     98          1           0       -6.699347    2.335348    0.432171
     99          1           0       -5.453753    3.154847   -1.727763
    100          1           0       -7.094090    3.607117   -2.213517
    101          1           0       -6.098630    2.632375   -3.288758
    102          1           0       -5.227040   -0.287243   -5.412292
    103          1           0       -6.223926   -1.738048   -5.529347
    104          1           0       -4.641924   -1.815907   -4.747758
    105          1           0       -7.174298   -2.779236   -3.526351
    106          1           0       -7.200693   -1.954431   -1.972036
    107          1           0       -5.708103   -2.713850   -2.538272
    108          6           0        5.142016   -2.105282   -2.809902
    109          6           0        4.358557   -0.862505   -2.328745
    110          7           0        4.479790   -2.573053   -4.024843
    111          1           0        5.085438   -2.853177   -1.999562
    112          6           0        6.628886   -1.834495   -3.108330
    113          7           0        3.071777   -1.324648   -1.906731
    114          1           0        4.273089   -0.168785   -3.183847
    115          6           0        4.997507   -0.105798   -1.143250
    116          1           0        7.088801   -1.445789   -2.194984
    117          6           0        6.802742   -0.817445   -4.232828
    118          6           0        7.353618   -3.134705   -3.463454
    119          1           0        5.987226    0.238841   -1.456729
    120          6           0        5.135729   -0.990093    0.092615
    121          6           0        4.155604    1.126750   -0.812351
    122          1           0        7.154257   -3.905349   -2.720872
    123          1           0        8.427481   -2.964027   -3.496434
    124          1           0        7.042455   -3.497891   -4.439716
    125          1           0        6.214903   -1.124777   -5.093206
    126          1           0        7.849235   -0.752742   -4.522146
    127          1           0        6.473120    0.170055   -3.921643
    128          1           0        4.636324    1.716865   -0.035858
    129          1           0        3.170483    0.828156   -0.458853
    130          1           0        4.029531    1.754398   -1.692415
    131          1           0        4.170051   -1.417389    0.348077
    132          1           0        5.492545   -0.398056    0.932770
    133          1           0        5.840585   -1.799236   -0.078357
    134          1           0       -1.837007   -3.705538    0.988442
    135          1           0        2.677695    3.177988    0.852522
    136          1           0        3.220248    3.807774    2.251546
    137          1           0        3.490410   -2.703466   -3.841496
    138          1           0        4.857831   -3.472068   -4.301370
 ---------------------------------------------------------------------

 SCF Done:  E(RPBE1PBE) =  -2389.56509269     a.u. after    6 cycles
 SCF Done:  E(RPBE1PBE) =  -2389.56513393     A.U. after    9 cycles

 The electronic state is 1-A.
 Alpha  occ. eigenvalues --  -14.37676 -14.37638 -14.37625 -14.37616 -14.37381
 Alpha  occ. eigenvalues --  -14.37263 -14.35596 -14.34895 -10.26701 -10.26693
 Alpha  occ. eigenvalues --  -10.26688 -10.26615 -10.26413 -10.26343 -10.25153
 Alpha  occ. eigenvalues --  -10.25093 -10.24962 -10.24914 -10.24504 -10.24444
 Alpha  occ. eigenvalues --  -10.24431 -10.24429 -10.24395 -10.24384 -10.24333
 Alpha  occ. eigenvalues --  -10.24327 -10.24310 -10.24299 -10.24274 -10.23957
 Alpha  occ. eigenvalues --  -10.23939 -10.23930 -10.23888 -10.23462 -10.22598
 Alpha  occ. eigenvalues --  -10.22560 -10.22555 -10.22375 -10.22311 -10.22283
 Alpha  occ. eigenvalues --  -10.21966 -10.21960 -10.20453 -10.20306 -10.20282
 Alpha  occ. eigenvalues --  -10.20271 -10.20250 -10.20216 -10.20159 -10.20122
 Alpha  occ. eigenvalues --  -10.20001 -10.19952 -10.19904 -10.19894 -10.19756
 Alpha  occ. eigenvalues --  -10.19744 -10.19584 -10.19278  -0.98140  -0.97987
 Alpha  occ. eigenvalues --   -0.96987  -0.96807  -0.95029  -0.94669  -0.91290
 Alpha  occ. eigenvalues --   -0.91077  -0.90164  -0.89544  -0.84907  -0.84223
 Alpha  occ. eigenvalues --   -0.83193  -0.82870  -0.82385  -0.81778  -0.81007
 Alpha  occ. eigenvalues --   -0.80795  -0.80177  -0.79995  -0.79712  -0.79408
 Alpha  occ. eigenvalues --   -0.74689  -0.74009  -0.73272  -0.72939  -0.70564
 Alpha  occ. eigenvalues --   -0.70426  -0.70357  -0.70150  -0.70100  -0.70013
 Alpha  occ. eigenvalues --   -0.69916  -0.69618  -0.69289  -0.69071  -0.67700
 Alpha  occ. eigenvalues --   -0.67233  -0.66664  -0.65292  -0.64201  -0.63836
 Alpha  occ. eigenvalues --   -0.62995  -0.62053  -0.59945  -0.59546  -0.58668
 Alpha  occ. eigenvalues --   -0.58313  -0.58002  -0.57734  -0.57178  -0.56583
 Alpha  occ. eigenvalues --   -0.55672  -0.55238  -0.54879  -0.54492  -0.53837
 Alpha  occ. eigenvalues --   -0.53433  -0.52141  -0.51936  -0.51682  -0.51059
 Alpha  occ. eigenvalues --   -0.50696  -0.50233  -0.50193  -0.49829  -0.49538
 Alpha  occ. eigenvalues --   -0.49088  -0.48718  -0.48391  -0.48217  -0.48055
 Alpha  occ. eigenvalues --   -0.47342  -0.46704  -0.46615  -0.46314  -0.45978
 Alpha  occ. eigenvalues --   -0.45677  -0.45174  -0.45061  -0.45002  -0.44908
 Alpha  occ. eigenvalues --   -0.44299  -0.44100  -0.43872  -0.43408  -0.43363
 Alpha  occ. eigenvalues --   -0.43335  -0.43232  -0.43119  -0.43054  -0.42654
 Alpha  occ. eigenvalues --   -0.42293  -0.42178  -0.42100  -0.41890  -0.41712
 Alpha  occ. eigenvalues --   -0.40539  -0.40351  -0.40283  -0.40191  -0.40081
 Alpha  occ. eigenvalues --   -0.39736  -0.39529  -0.39390  -0.39339  -0.39119
 Alpha  occ. eigenvalues --   -0.39096  -0.38986  -0.38874  -0.38759  -0.38673
 Alpha  occ. eigenvalues --   -0.38349  -0.38149  -0.38036  -0.37847  -0.37659
 Alpha  occ. eigenvalues --   -0.37087  -0.36899  -0.36622  -0.36471  -0.36074
 Alpha  occ. eigenvalues --   -0.35510  -0.35325  -0.35016  -0.34962  -0.34724
 Alpha  occ. eigenvalues --   -0.34706  -0.34634  -0.34569  -0.34530  -0.34368
 Alpha  occ. eigenvalues --   -0.34222  -0.33954  -0.33877  -0.33757  -0.33721
 Alpha  occ. eigenvalues --   -0.33679  -0.33125  -0.33053  -0.32841  -0.32716
 Alpha  occ. eigenvalues --   -0.32404  -0.32102  -0.31835  -0.31710  -0.30068
 Alpha  occ. eigenvalues --   -0.29447  -0.27315  -0.27074  -0.26893  -0.26850
 Alpha  occ. eigenvalues --   -0.26810  -0.26599  -0.26349  -0.25764  -0.25441
 Alpha  occ. eigenvalues --   -0.25305  -0.24878  -0.24183
 Alpha virt. eigenvalues --   -0.07204  -0.06286  -0.05467  -0.05264  -0.02600
 Alpha virt. eigenvalues --   -0.01450   0.03107   0.04168   0.04306   0.04381
 Alpha virt. eigenvalues --    0.04508   0.04696   0.04936   0.05101   0.05588

 Mulliken charges:
               1
     1  C    0.329467
     2  C   -0.162671
     3  C   -0.377406
     4  C    0.372774
     5  H    0.140670
     6  C   -0.386062
     7  C    0.343068
     8  H    0.143759
     9  C   -0.279105
    10  C   -0.152354
    11  H    0.144386
    12  C   -0.197291
    13  H    0.092303
    14  H    0.089373
    15  H    0.088136
    16  C    0.391044
    17  C   -0.172702
    18  C   -0.305924
    19  C    0.310282
    20  H    0.145738
    21  C   -0.388453
    22  C    0.424129
    23  H    0.131670
    24  C   -0.392782
    25  C   -0.234061
    26  H    0.154396
    27  C   -0.159540
    28  H    0.091994
    29  H    0.085007
    30  C    0.105845
    31  C    0.098979
    32  N   -0.260956
    33  H    0.077390
    34  C    0.001699
    35  N   -0.264819
    36  H    0.080241
    37  C   -0.013967
    38  H    0.079484
    39  C   -0.423541
    40  C   -0.402230
    41  H    0.080610
    42  C   -0.415610
    43  C   -0.397133
    44  H    0.128136
    45  H    0.125663
    46  H    0.120557
    47  H    0.122636
    48  H    0.123372
    49  H    0.135769
    50  H    0.125002
    51  H    0.122025
    52  H    0.129295
    53  H    0.124685
    54  H    0.123080
    55  H    0.130884
    56  C    0.122855
    57  C   -0.022363
    58  N   -0.240859
    59  H    0.057817
    60  C   -0.008992
    61  N   -0.512234
    62  H    0.087280
    63  C   -0.057699
    64  H    0.076271
    65  C   -0.376253
    66  C   -0.459535
    67  H    0.075765
    68  C   -0.364368
    69  C   -0.386938
    70  H    0.133535
    71  H    0.132536
    72  H    0.144684
    73  H    0.125118
    74  H    0.119546
    75  H    0.132303
    76  H    0.121151
    77  H    0.130403
    78  H    0.117869
    79  H    0.105990
    80  H    0.117734
    81  H    0.142110
    82  C    0.093201
    83  C    0.104862
    84  N   -0.268573
    85  H    0.087027
    86  C    0.004238
    87  N   -0.262723
    88  H    0.086569
    89  C   -0.020391
    90  H    0.084326
    91  C   -0.427575
    92  C   -0.404208
    93  H    0.085482
    94  C   -0.420432
    95  C   -0.396933
    96  H    0.120843
    97  H    0.128611
    98  H    0.125824
    99  H    0.132303
   100  H    0.124391
   101  H    0.126054
   102  H    0.120756
   103  H    0.130014
   104  H    0.125185
   105  H    0.125351
   106  H    0.126000
   107  H    0.131212
   108  C    0.074214
   109  C    0.091264
   110  N   -0.581451
   111  H    0.113137
   112  C   -0.053007
   113  N   -0.255311
   114  H    0.082318
   115  C    0.022856
   116  H    0.090013
   117  C   -0.400095
   118  C   -0.425049
   119  H    0.091553
   120  C   -0.424797
   121  C   -0.469714
   122  H    0.128599
   123  H    0.131580
   124  H    0.124084
   125  H    0.120867
   126  H    0.123772
   127  H    0.126971
   128  H    0.142126
   129  H    0.131495
   130  H    0.123284
   131  H    0.135588
   132  H    0.123793
   133  H    0.126133
   134  H    0.093119
   135  H    0.233876
   136  H    0.219617
   137  H    0.227641
   138  H    0.229443
 Sum of Mulliken charges =  -0.00000

 Dipole moment (field-independent basis, Debye):
    X=             -2.6159    Y=              0.7090    Z=              0.2762  Tot=              2.7243
 Quadrupole moment (field-independent basis, Debye-Ang):
   XX=           -360.4856   YY=           -350.5862   ZZ=           -356.2600
   XY=             -5.7770   XZ=             12.1657   YZ=             -5.8729

 Normal termination of Gaussian 16 at Mon Oct 18 06:47:43 2021.
