 Gaussian 16, Revision C.01,
 Gaussian 16:  ES64L-G16RevC.01  3-Jul-2019

 ----------------------------------------------------------------------
 #P PBE1PBE/Def2TZVP SP SCF=(YQC,MaxCycle=900) int=(Grid=Superfinegrid)
  EmpiricalDispersion=GD3 SCRF=(PCM,Solvent=Dichloromethane)
 ----------------------------------------------------------------------

 -------------------------
 _2_alde1_3_ami2_1_opt_dcm
 -------------------------
 Symbolic Z-matrix:
 Charge =  0 Multiplicity = 1

                         Standard orientation:
 ---------------------------------------------------------------------
 Center     Atomic      Atomic             Coordinates (Angstroms)
 Number     Number       Type             X           Y           Z
 ---------------------------------------------------------------------
      1          6           0        4.565329    1.026182   -0.050054
      2          6           0        3.990631    2.362203    0.092482
      3          6           0        5.915128    0.883239   -0.359853
      4          6           0        6.476311   -0.383673   -0.500366
      5          1           0        6.537135    1.758635   -0.492314
      6          6           0        5.677098   -1.513775   -0.332793
      7          6           0        4.327046   -1.385635   -0.023428
      8          1           0        6.134195   -2.486577   -0.448608
      9          6           0        3.778344   -0.112080    0.115770
     10          6           0        3.504248   -2.581558    0.145613
     11          1           0        2.730995   -0.005164    0.347488
     12          6           0        7.898657   -0.537265   -0.824256
     13          1           0        4.025418   -3.527257   -0.057592
     14          1           0        4.685188    3.185498   -0.128441
     15          6           0       -1.832403    1.646987   -0.484180
     16          6           0       -0.978796    2.826444   -0.495509
     17          6           0       -1.263213    0.378045   -0.497126
     18          6           0       -2.068177   -0.755394   -0.458894
     19          1           0       -0.191291    0.272858   -0.529108
     20          6           0       -3.453680   -0.609708   -0.411149
     21          6           0       -4.031347    0.651322   -0.411463
     22          1           0       -4.098579   -1.476211   -0.387396
     23          6           0       -3.220392    1.775654   -0.441856
     24          6           0       -5.528187    0.794395   -0.321096
     25          1           0       -3.672112    2.757762   -0.428474
     26          6           0       -1.461676   -2.079199   -0.445883
     27          1           0       -2.154152   -2.931117   -0.333123
     28          6           0        1.111433    3.865156   -0.577773
     29          6           0        2.124162    3.765146    0.597315
     30          7           0        0.270784    2.722128   -0.612651
     31          1           0        1.681989    3.881407   -1.512720
     32          7           0        2.794121    2.507924    0.448533
     33          6           0        1.358203    3.685572    1.923583
     34          8           0        8.474905   -1.586222   -0.964090
     35          6           0        1.401831   -3.583849    0.674529
     36          6           0        0.386718   -3.506480   -0.500144
     37          7           0        2.302981   -2.483580    0.502910
     38          6           0        2.031606   -4.983791    0.682216
     39          7           0       -0.215480   -2.222684   -0.557049
     40          1           0       -0.347107   -4.325497   -0.388795
     41          6           0       -7.372279    0.484720    0.994575
     42          6           0       -7.493729   -0.535756   -0.170562
     43          7           0       -5.968919    0.858303    1.063873
     44          1           0       -7.719826    0.086325    1.945828
     45          7           0       -6.224033   -0.364224   -0.882214
     46          1           0       -1.490560    3.798997   -0.394396
     47          1           0       -5.452869    0.162754    1.596365
     48          1           0       -5.839439    1.741541   -0.803139
     49          1           0       -6.336171   -0.304106   -1.885412
     50          1           0        8.436314    0.426486   -0.937264
     51          1           0        0.551279    4.813072   -0.481878
     52          6           0        3.014029    5.015969    0.580113
     53          6           0        0.668726   -3.331968    1.997860
     54          1           0        0.941811   -3.649897   -1.433439
     55          1           0       -7.946273    1.387035    0.760526
     56          6           0       -7.564184   -1.972786    0.357401
     57          1           0        1.268367   -5.725855    0.901662
     58          1           0        2.801182   -5.044229    1.449308
     59          1           0        2.472903   -5.224036   -0.282902
     60          1           0        3.491886    5.148124   -0.388641
     61          1           0        3.781906    4.940180    1.347762
     62          1           0        2.409836    5.896025    0.784184
     63          1           0       -7.520591   -2.674949   -0.471701
     64          1           0       -8.489129   -2.132861    0.905830
     65          1           0       -6.722316   -2.170472    1.016552
     66          6           0       -8.707083   -0.238331   -1.051852
     67          1           0       -9.620881   -0.289862   -0.464451
     68          1           0       -8.774083   -0.964487   -1.859911
     69          1           0       -8.629391    0.758316   -1.483742
     70          1           0        2.058867    3.666346    2.754954
     71          1           0        0.769119    2.773188    1.942382
     72          1           0        0.699150    4.543069    2.036267
     73          1           0       -0.144570   -4.042631    2.125390
     74          1           0        0.268933   -2.321987    1.998747
     75          1           0        1.361312   -3.434424    2.829784
 ---------------------------------------------------------------------

 SCF Done:  E(RPBE1PBE) =  -1568.53318059     a.u. after    7 cycles
 SCF Done:  E(RPBE1PBE) =  -1568.53318686     A.U. after    8 cycles

 The electronic state is 1-A.
 Alpha  occ. eigenvalues --  -19.21162 -14.37487 -14.37482 -14.37482 -14.37434
 Alpha  occ. eigenvalues --  -14.37403 -14.36337 -10.31651 -10.27891 -10.26664
 Alpha  occ. eigenvalues --  -10.26600 -10.26560 -10.26529 -10.26400 -10.26352
 Alpha  occ. eigenvalues --  -10.25590 -10.25151 -10.24799 -10.24794 -10.24766
 Alpha  occ. eigenvalues --  -10.24726 -10.24703 -10.24699 -10.24122 -10.23989
 Alpha  occ. eigenvalues --  -10.23787 -10.23719 -10.23700 -10.23476 -10.23092
 Alpha  occ. eigenvalues --  -10.22600 -10.20954 -10.20906 -10.20705 -10.20370
 Alpha  occ. eigenvalues --  -10.20369 -10.20069  -1.08914  -0.99468  -0.97493
 Alpha  occ. eigenvalues --   -0.97318  -0.95458  -0.95060  -0.90811  -0.89525
 Alpha  occ. eigenvalues --   -0.88220  -0.83980  -0.83160  -0.81837  -0.80555
 Alpha  occ. eigenvalues --   -0.79576  -0.78692  -0.77826  -0.72397  -0.72191
 Alpha  occ. eigenvalues --   -0.71452  -0.71378  -0.70915  -0.69895  -0.69144
 Alpha  occ. eigenvalues --   -0.68266  -0.67100  -0.66131  -0.64786  -0.63604
 Alpha  occ. eigenvalues --   -0.60824  -0.59786  -0.58388  -0.57583  -0.57451
 Alpha  occ. eigenvalues --   -0.56574  -0.54991  -0.53615  -0.53197  -0.52568
 Alpha  occ. eigenvalues --   -0.51525  -0.51154  -0.50316  -0.50069  -0.49520
 Alpha  occ. eigenvalues --   -0.49154  -0.48668  -0.47873  -0.47441  -0.46718
 Alpha  occ. eigenvalues --   -0.46338  -0.46026  -0.45925  -0.45586  -0.45019
 Alpha  occ. eigenvalues --   -0.44954  -0.44862  -0.44314  -0.43637  -0.43381
 Alpha  occ. eigenvalues --   -0.42776  -0.42278  -0.41483  -0.41099  -0.40697
 Alpha  occ. eigenvalues --   -0.40680  -0.40264  -0.40067  -0.39836  -0.39620
 Alpha  occ. eigenvalues --   -0.39048  -0.38950  -0.38510  -0.37790  -0.37642
 Alpha  occ. eigenvalues --   -0.37534  -0.37397  -0.37248  -0.36904  -0.36331
 Alpha  occ. eigenvalues --   -0.36037  -0.35206  -0.34477  -0.34379  -0.34237
 Alpha  occ. eigenvalues --   -0.33587  -0.33245  -0.31198  -0.28489  -0.27732
 Alpha  occ. eigenvalues --   -0.27701  -0.27208  -0.26778  -0.26057  -0.25857
 Alpha  occ. eigenvalues --   -0.25201  -0.25098  -0.25062  -0.23710
 Alpha virt. eigenvalues --   -0.07859  -0.05666  -0.04994  -0.04934  -0.02698
 Alpha virt. eigenvalues --    0.02715   0.03953   0.04774   0.04792   0.05267
 Alpha virt. eigenvalues --    0.05534   0.06095   0.06459   0.06731   0.07056

 Mulliken charges:
               1
     1  C    0.336615
     2  C   -0.190992
     3  C   -0.296119
     4  C    0.208935
     5  H    0.140130
     6  C   -0.327156
     7  C    0.373596
     8  H    0.136361
     9  C   -0.355910
    10  C   -0.187664
    11  H    0.158732
    12  C    0.069541
    13  H    0.102047
    14  H    0.099181
    15  C    0.376171
    16  C   -0.189237
    17  C   -0.365817
    18  C    0.381034
    19  H    0.156995
    20  C   -0.321184
    21  C    0.279668
    22  H    0.131505
    23  C   -0.409470
    24  C   -0.078212
    25  H    0.123477
    26  C   -0.197947
    27  H    0.080806
    28  C   -0.125072
    29  C    0.198329
    30  N   -0.165678
    31  H    0.120674
    32  N   -0.183719
    33  C   -0.407599
    34  O   -0.330978
    35  C    0.197759
    36  C   -0.126813
    37  N   -0.184684
    38  C   -0.411290
    39  N   -0.165209
    40  H    0.091408
    41  C   -0.144710
    42  C    0.145532
    43  N   -0.301492
    44  H    0.139274
    45  N   -0.304797
    46  H    0.081892
    47  H    0.211576
    48  H    0.087539
    49  H    0.211594
    50  H    0.095429
    51  H    0.091605
    52  C   -0.411265
    53  C   -0.407392
    54  H    0.121077
    55  H    0.094287
    56  C   -0.387591
    57  H    0.140260
    58  H    0.142216
    59  H    0.137025
    60  H    0.136450
    61  H    0.141789
    62  H    0.140595
    63  H    0.116900
    64  H    0.121637
    65  H    0.119982
    66  C   -0.439644
    67  H    0.130065
    68  H    0.132265
    69  H    0.133202
    70  H    0.128599
    71  H    0.143447
    72  H    0.119601
    73  H    0.119201
    74  H    0.142718
    75  H    0.128917
 Sum of Mulliken charges =   0.00000

 Dipole moment (field-independent basis, Debye):
    X=             -5.6213    Y=              2.1044    Z=             -0.1416  Tot=              6.0039
 Quadrupole moment (field-independent basis, Debye-Ang):
   XX=           -216.7258   YY=           -190.3997   ZZ=           -223.1213
   XY=             26.8389   XZ=              8.9865   YZ=             -6.0820

 Normal termination of Gaussian 16 at Tue Oct 19 01:56:12 2021.
