 Gaussian 16, Revision C.01,
 Gaussian 16:  ES64L-G16RevC.01  3-Jul-2019

 ---------------------------------------------------------------------
 #P MP2/aug-cc-pVDZ SP SCF=(YQC,MaxCycle=900) int=(Grid=Superfinegrid)
 ---------------------------------------------------------------------

 -----------------------------
 _2_alde1_3_ami2_2_opt_gas_mp2
 -----------------------------
 Symbolic Z-matrix:
 Charge =  0 Multiplicity = 1

                         Standard orientation:
 ---------------------------------------------------------------------
 Center     Atomic      Atomic             Coordinates (Angstroms)
 Number     Number       Type             X           Y           Z
 ---------------------------------------------------------------------
      1          6           0        3.231124    1.864318    0.232485
      2          6           0        2.544822    3.148296    0.369751
      3          6           0        4.524160    1.828132   -0.274926
      4          6           0        5.182629    0.610621   -0.452097
      5          1           0        5.040897    2.737375   -0.548189
      6          6           0        4.543056   -0.574009   -0.108008
      7          6           0        3.251446   -0.554065    0.418739
      8          1           0        5.030550   -1.528815   -0.234060
      9          6           0        2.602593    0.666521    0.582841
     10          6           0        2.600405   -1.810301    0.792077
     11          1           0        1.598463    0.714168    0.978034
     12          6           0        6.547064    0.593245   -0.998163
     13          1           0        1.655805   -1.705105    1.338113
     14          1           0        3.176169    4.028209    0.189171
     15          6           0       -0.998421    0.747095   -1.025324
     16          6           0       -0.552091    2.125497   -1.146916
     17          6           0       -0.095170   -0.268164   -1.332024
     18          6           0       -0.398383   -1.594359   -1.044305
     19          1           0        0.876647   -0.017462   -1.735700
     20          6           0       -1.649414   -1.911646   -0.520909
     21          6           0       -2.587443   -0.912510   -0.274457
     22          1           0       -1.869904   -2.946247   -0.305533
     23          6           0       -2.244956    0.419436   -0.503902
     24          6           0       -3.901068   -1.264734    0.245743
     25          1           0       -2.946597    1.201213   -0.264379
     26          6           0        0.641513   -2.603365   -1.184411
     27          1           0        1.494820   -2.337068   -1.827008
     28          6           0       -0.448389    4.331736   -0.480615
     29          6           0        0.514964    4.370356    0.745480
     30          7           0       -1.105727    3.066641   -0.515663
     31          1           0        0.149601    4.520133   -1.387540
     32          7           0        1.318855    3.186136    0.648275
     33          6           0       -0.302534    4.222654    2.033609
     34          8           0        7.175539    1.565696   -1.328900
     35          6           0        2.573231   -4.196673    0.751995
     36          6           0        1.713777   -4.547731   -0.505543
     37          7           0        3.146050   -2.908036    0.491424
     38          6           0        3.744660   -5.179930    0.837426
     39          7           0        0.584661   -3.686514   -0.536880
     40          1           0        1.363808   -5.576756   -0.405407
     41          6           0       -6.070699   -0.761794    0.945676
     42          6           0       -7.155021   -0.311860   -0.079679
     43          7           0       -4.780568   -0.390898    0.476513
     44          1           0       -6.164886   -1.844397    1.135889
     45          7           0       -7.052078    1.100799   -0.396921
     46          6           0       -8.538776   -0.574394    0.516176
     47          1           0        0.354052    2.275471   -1.755149
     48          1           0       -4.075271   -2.338011    0.422754
     49          1           0       -6.125114    1.298263   -0.758874
     50          1           0        6.975864   -0.424434   -1.088560
     51          1           0       -1.198287    5.116119   -0.363448
     52          6           0        1.269886    5.703487    0.740283
     53          6           0        1.705238   -4.290235    2.011002
     54          1           0        2.356888   -4.450348   -1.393277
     55          1           0       -6.244081   -0.220755    1.882463
     56          6           0       -6.984909   -1.100764   -1.379543
     57          1           0        3.384352   -6.203394    0.895150
     58          1           0        4.337381   -4.964184    1.723034
     59          1           0        4.381191   -5.074553   -0.036713
     60          1           0        0.563961    6.520324    0.862647
     61          1           0        1.804510    5.853122   -0.195920
     62          1           0        1.981532    5.734489    1.563355
     63          1           0       -7.127648   -2.164360   -1.205303
     64          1           0       -5.989378   -0.942278   -1.788489
     65          1           0       -7.715720   -0.758509   -2.106600
     66          1           0       -7.177523    1.660027    0.440287
     67          1           0        1.458731   -5.330452    2.205296
     68          1           0        0.777959   -3.738711    1.882800
     69          1           0        2.248756   -3.891803    2.865832
     70          1           0       -8.676894   -1.633385    0.717780
     71          1           0       -9.299743   -0.245281   -0.185716
     72          1           0       -8.666818   -0.023712    1.445764
     73          1           0        0.361258    4.206331    2.895036
     74          1           0       -0.860298    3.291865    1.995860
     75          1           0       -0.997449    5.051284    2.135799
 ---------------------------------------------------------------------

 SCF Done:  E(RHF) =  -1559.84289098     a.u. after    7 cycles
 SCF Done:  E(RHF) =  -1559.84293732     A.U. after   22 cycles
 E2 =    -0.5441484693D+01 EUMP2 =    -0.15652844220155D+04

 The electronic state is 1-A.
 Alpha  occ. eigenvalues --  -20.57147 -15.56659 -15.56582 -15.56481 -15.56380
 Alpha  occ. eigenvalues --  -15.55668 -15.53312 -11.34676 -11.29668 -11.29621
 Alpha  occ. eigenvalues --  -11.29397 -11.28902 -11.28568 -11.27523 -11.27503
 Alpha  occ. eigenvalues --  -11.27004 -11.26924 -11.26877 -11.26336 -11.26322
 Alpha  occ. eigenvalues --  -11.26174 -11.26119 -11.26021 -11.25976 -11.25924
 Alpha  occ. eigenvalues --  -11.25642 -11.25498 -11.25347 -11.25277 -11.25171
 Alpha  occ. eigenvalues --  -11.24953 -11.22812 -11.22026 -11.21988 -11.21370
 Alpha  occ. eigenvalues --  -11.21307 -11.20872  -1.40684  -1.27509  -1.27088
 Alpha  occ. eigenvalues --   -1.25439  -1.24183  -1.23619  -1.19004  -1.18674
 Alpha  occ. eigenvalues --   -1.17155  -1.10273  -1.08943  -1.06672  -1.06032
 Alpha  occ. eigenvalues --   -1.05340  -1.03589  -1.02244  -0.95723  -0.95060
 Alpha  occ. eigenvalues --   -0.94814  -0.94555  -0.94377  -0.93423  -0.91125
 Alpha  occ. eigenvalues --   -0.90796  -0.89033  -0.88248  -0.86052  -0.82622
 Alpha  occ. eigenvalues --   -0.81483  -0.79204  -0.77082  -0.75637  -0.75163
 Alpha  occ. eigenvalues --   -0.74092  -0.73281  -0.72349  -0.70684  -0.69427
 Alpha  occ. eigenvalues --   -0.69164  -0.67415  -0.67142  -0.66097  -0.65832
 Alpha  occ. eigenvalues --   -0.65350  -0.65181  -0.64892  -0.63807  -0.63470
 Alpha  occ. eigenvalues --   -0.63151  -0.62923  -0.62426  -0.62092  -0.61490
 Alpha  occ. eigenvalues --   -0.61345  -0.59860  -0.59497  -0.57321  -0.56742
 Alpha  occ. eigenvalues --   -0.56629  -0.56428  -0.55751  -0.55539  -0.54977
 Alpha  occ. eigenvalues --   -0.54488  -0.54420  -0.54148  -0.53859  -0.53090
 Alpha  occ. eigenvalues --   -0.52870  -0.52667  -0.52445  -0.52362  -0.51954
 Alpha  occ. eigenvalues --   -0.51159  -0.50756  -0.50143  -0.49999  -0.49223
 Alpha  occ. eigenvalues --   -0.49070  -0.48805  -0.46648  -0.46582  -0.45205
 Alpha  occ. eigenvalues --   -0.44345  -0.43421  -0.43132  -0.41161  -0.40871
 Alpha  occ. eigenvalues --   -0.40575  -0.40246  -0.39933  -0.39075  -0.37540
 Alpha  occ. eigenvalues --   -0.35098  -0.33643  -0.32696  -0.32145
 Alpha virt. eigenvalues --    0.02935   0.03177   0.03339   0.03800   0.04033
 Alpha virt. eigenvalues --    0.04170   0.04383   0.04437   0.04787   0.04890
 Alpha virt. eigenvalues --    0.04984   0.05413   0.05668   0.05807   0.05931

 Mulliken charges:
               1
     1  C    0.953114
     2  C   -0.097282
     3  C   -0.155427
     4  C    0.480295
     5  H   -0.761838
     6  C    0.551028
     7  C    1.259527
     8  H   -0.823453
     9  C    0.288629
    10  C    0.120799
    11  H   -1.077266
    12  C    1.136947
    13  H   -0.841867
    14  H   -0.759434
    15  C    1.009358
    16  C    0.641490
    17  C    0.411737
    18  C    0.858045
    19  H   -0.973176
    20  C    0.603155
    21  C    0.860550
    22  H   -0.892580
    23  C   -0.059716
    24  C    0.532348
    25  H   -0.983704
    26  C    0.884241
    27  H   -0.585511
    28  C    1.372781
    29  C   -3.196735
    30  N   -0.579869
    31  H   -0.149797
    32  N    0.440208
    33  C    1.397897
    34  O   -0.809379
    35  C   -3.435082
    36  C    1.413930
    37  N   -0.298585
    38  C    1.489024
    39  N   -0.630107
    40  H   -0.266951
    41  C    1.582266
    42  C   -3.607727
    43  N   -0.356938
    44  H   -0.152593
    45  N   -0.030077
    46  C    1.433110
    47  H   -0.646224
    48  H   -0.696485
    49  H    0.020231
    50  H   -0.320636
    51  H   -0.245408
    52  C    1.520325
    53  C    1.518501
    54  H   -0.144944
    55  H   -0.269122
    56  C    1.438999
    57  H   -0.060622
    58  H   -0.004026
    59  H   -0.013380
    60  H   -0.176395
    61  H    0.012388
    62  H    0.084786
    63  H   -0.007988
    64  H   -0.014367
    65  H   -0.027774
    66  H   -0.013991
    67  H   -0.113831
    68  H    0.050093
    69  H    0.026848
    70  H    0.002870
    71  H    0.049352
    72  H   -0.054023
    73  H   -0.089016
    74  H    0.007321
    75  H   -0.028870
 Sum of Mulliken charges =   0.00000

 Dipole moment (field-independent basis, Debye):
    X=              0.1473    Y=             -1.7323    Z=              1.4200  Tot=              2.2448
 Quadrupole moment (field-independent basis, Debye-Ang):
   XX=           -264.5381   YY=           -209.3253   ZZ=           -227.1657
   XY=             -1.3160   XZ=             -3.9669   YZ=              2.6540

 Normal termination of Gaussian 16 at Thu Nov 11 19:41:38 2021.
