 Gaussian 16, Revision C.01,
 Gaussian 16:  ES64L-G16RevC.01  3-Jul-2019

 ----------------------------------------------------------------------
 #P PBE1PBE/Def2TZVP SP SCF=(YQC,MaxCycle=900) int=(Grid=Superfinegrid)
  EmpiricalDispersion=GD3 SCRF=(PCM,Solvent=Chloroform)
 ----------------------------------------------------------------------

 -------------------------
 _2_alde1_3_ami2_2_opt_cfm
 -------------------------
 Symbolic Z-matrix:
 Charge =  0 Multiplicity = 1

                         Standard orientation:
 ---------------------------------------------------------------------
 Center     Atomic      Atomic             Coordinates (Angstroms)
 Number     Number       Type             X           Y           Z
 ---------------------------------------------------------------------
      1          6           0        3.231124    1.864318    0.232485
      2          6           0        2.544822    3.148296    0.369751
      3          6           0        4.524160    1.828132   -0.274926
      4          6           0        5.182629    0.610621   -0.452097
      5          1           0        5.040897    2.737375   -0.548189
      6          6           0        4.543056   -0.574009   -0.108008
      7          6           0        3.251446   -0.554065    0.418739
      8          1           0        5.030550   -1.528815   -0.234060
      9          6           0        2.602593    0.666521    0.582841
     10          6           0        2.600405   -1.810301    0.792077
     11          1           0        1.598463    0.714168    0.978034
     12          6           0        6.547064    0.593245   -0.998163
     13          1           0        1.655805   -1.705105    1.338113
     14          1           0        3.176169    4.028209    0.189171
     15          6           0       -0.998421    0.747095   -1.025324
     16          6           0       -0.552091    2.125497   -1.146916
     17          6           0       -0.095170   -0.268164   -1.332024
     18          6           0       -0.398383   -1.594359   -1.044305
     19          1           0        0.876647   -0.017462   -1.735700
     20          6           0       -1.649414   -1.911646   -0.520909
     21          6           0       -2.587443   -0.912510   -0.274457
     22          1           0       -1.869904   -2.946247   -0.305533
     23          6           0       -2.244956    0.419436   -0.503902
     24          6           0       -3.901068   -1.264734    0.245743
     25          1           0       -2.946597    1.201213   -0.264379
     26          6           0        0.641513   -2.603365   -1.184411
     27          1           0        1.494820   -2.337068   -1.827008
     28          6           0       -0.448389    4.331736   -0.480615
     29          6           0        0.514964    4.370356    0.745480
     30          7           0       -1.105727    3.066641   -0.515663
     31          1           0        0.149601    4.520133   -1.387540
     32          7           0        1.318855    3.186136    0.648275
     33          6           0       -0.302534    4.222654    2.033609
     34          8           0        7.175539    1.565696   -1.328900
     35          6           0        2.573231   -4.196673    0.751995
     36          6           0        1.713777   -4.547731   -0.505543
     37          7           0        3.146050   -2.908036    0.491424
     38          6           0        3.744660   -5.179930    0.837426
     39          7           0        0.584661   -3.686514   -0.536880
     40          1           0        1.363808   -5.576756   -0.405407
     41          6           0       -6.070699   -0.761794    0.945676
     42          6           0       -7.155021   -0.311860   -0.079679
     43          7           0       -4.780568   -0.390898    0.476513
     44          1           0       -6.164886   -1.844397    1.135889
     45          7           0       -7.052078    1.100799   -0.396921
     46          6           0       -8.538776   -0.574394    0.516176
     47          1           0        0.354052    2.275471   -1.755149
     48          1           0       -4.075271   -2.338011    0.422754
     49          1           0       -6.125114    1.298263   -0.758874
     50          1           0        6.975864   -0.424434   -1.088560
     51          1           0       -1.198287    5.116119   -0.363448
     52          6           0        1.269886    5.703487    0.740283
     53          6           0        1.705238   -4.290235    2.011002
     54          1           0        2.356888   -4.450348   -1.393277
     55          1           0       -6.244081   -0.220755    1.882463
     56          6           0       -6.984909   -1.100764   -1.379543
     57          1           0        3.384352   -6.203394    0.895150
     58          1           0        4.337381   -4.964184    1.723034
     59          1           0        4.381191   -5.074553   -0.036713
     60          1           0        0.563961    6.520324    0.862647
     61          1           0        1.804510    5.853122   -0.195920
     62          1           0        1.981532    5.734489    1.563355
     63          1           0       -7.127648   -2.164360   -1.205303
     64          1           0       -5.989378   -0.942278   -1.788489
     65          1           0       -7.715720   -0.758509   -2.106600
     66          1           0       -7.177523    1.660027    0.440287
     67          1           0        1.458731   -5.330452    2.205296
     68          1           0        0.777959   -3.738711    1.882800
     69          1           0        2.248756   -3.891803    2.865832
     70          1           0       -8.676894   -1.633385    0.717780
     71          1           0       -9.299743   -0.245281   -0.185716
     72          1           0       -8.666818   -0.023712    1.445764
     73          1           0        0.361258    4.206331    2.895036
     74          1           0       -0.860298    3.291865    1.995860
     75          1           0       -0.997449    5.051284    2.135799
 ---------------------------------------------------------------------

 SCF Done:  E(RPBE1PBE) =  -1568.52257059     a.u. after    6 cycles
 SCF Done:  E(RPBE1PBE) =  -1568.52258944     A.U. after    9 cycles

 The electronic state is 1-A.
 Alpha  occ. eigenvalues --  -19.21328 -14.38078 -14.38032 -14.38001 -14.37964
 Alpha  occ. eigenvalues --  -14.37420 -14.35236 -10.31787 -10.27359 -10.27313
 Alpha  occ. eigenvalues --  -10.27165 -10.26978 -10.26920 -10.26781 -10.26500
 Alpha  occ. eigenvalues --  -10.25747 -10.25319 -10.25298 -10.25134 -10.25091
 Alpha  occ. eigenvalues --  -10.25077 -10.25047 -10.25036 -10.24780 -10.24642
 Alpha  occ. eigenvalues --  -10.24543 -10.24482 -10.24402 -10.24092 -10.24065
 Alpha  occ. eigenvalues --  -10.23659 -10.21229 -10.20760 -10.20734 -10.20401
 Alpha  occ. eigenvalues --  -10.20391 -10.20103  -1.09082  -0.98453  -0.98037
 Alpha  occ. eigenvalues --   -0.96732  -0.95518  -0.95077  -0.91657  -0.91163
 Alpha  occ. eigenvalues --   -0.89941  -0.84462  -0.83302  -0.81373  -0.80864
 Alpha  occ. eigenvalues --   -0.80226  -0.78758  -0.78027  -0.72943  -0.72295
 Alpha  occ. eigenvalues --   -0.71868  -0.71569  -0.71556  -0.70910  -0.69137
 Alpha  occ. eigenvalues --   -0.68893  -0.67693  -0.66999  -0.65155  -0.62545
 Alpha  occ. eigenvalues --   -0.61702  -0.59796  -0.57934  -0.57159  -0.56375
 Alpha  occ. eigenvalues --   -0.55682  -0.55006  -0.54552  -0.53351  -0.52663
 Alpha  occ. eigenvalues --   -0.51998  -0.50986  -0.50411  -0.50114  -0.49721
 Alpha  occ. eigenvalues --   -0.49514  -0.48848  -0.48454  -0.48226  -0.47833
 Alpha  occ. eigenvalues --   -0.47241  -0.47182  -0.47018  -0.46438  -0.45941
 Alpha  occ. eigenvalues --   -0.45406  -0.44947  -0.44538  -0.44332  -0.42862
 Alpha  occ. eigenvalues --   -0.42260  -0.42082  -0.41695  -0.41337  -0.41072
 Alpha  occ. eigenvalues --   -0.40742  -0.40149  -0.40052  -0.39909  -0.39527
 Alpha  occ. eigenvalues --   -0.39006  -0.38875  -0.38807  -0.38514  -0.37958
 Alpha  occ. eigenvalues --   -0.37831  -0.37673  -0.37062  -0.36743  -0.36604
 Alpha  occ. eigenvalues --   -0.36391  -0.35926  -0.35155  -0.34706  -0.33880
 Alpha  occ. eigenvalues --   -0.33807  -0.33029  -0.30571  -0.28634  -0.27990
 Alpha  occ. eigenvalues --   -0.27482  -0.27263  -0.27182  -0.26805  -0.26685
 Alpha  occ. eigenvalues --   -0.26498  -0.26317  -0.25255  -0.24733
 Alpha virt. eigenvalues --   -0.07878  -0.06767  -0.06471  -0.05551  -0.03157
 Alpha virt. eigenvalues --   -0.01979   0.04009   0.04480   0.04605   0.05044
 Alpha virt. eigenvalues --    0.05157   0.05222   0.05845   0.06111   0.06343

 Mulliken charges:
               1
     1  C    0.374118
     2  C   -0.169205
     3  C   -0.341787
     4  C    0.244496
     5  H    0.138006
     6  C   -0.326900
     7  C    0.383265
     8  H    0.138791
     9  C   -0.376131
    10  C   -0.176337
    11  H    0.149009
    12  C    0.066473
    13  H    0.115852
    14  H    0.107490
    15  C    0.347763
    16  C   -0.112693
    17  C   -0.317950
    18  C    0.299476
    19  H    0.146349
    20  C   -0.371096
    21  C    0.408760
    22  H    0.124502
    23  C   -0.401875
    24  C   -0.175493
    25  H    0.123254
    26  C   -0.130909
    27  H    0.107286
    28  C   -0.072573
    29  C    0.152191
    30  N   -0.208262
    31  H    0.093542
    32  N   -0.204697
    33  C   -0.409480
    34  O   -0.319912
    35  C    0.120734
    36  C   -0.087758
    37  N   -0.194063
    38  C   -0.354076
    39  N   -0.227384
    40  H    0.124717
    41  C   -0.131122
    42  C    0.151654
    43  N   -0.182712
    44  H    0.079947
    45  N   -0.540816
    46  C   -0.370049
    47  H    0.085036
    48  H    0.085140
    49  H    0.231785
    50  H    0.095993
    51  H    0.123740
    52  C   -0.401484
    53  C   -0.410750
    54  H    0.097124
    55  H    0.121734
    56  C   -0.385211
    57  H    0.123062
    58  H    0.127602
    59  H    0.126004
    60  H    0.141339
    61  H    0.134410
    62  H    0.139771
    63  H    0.116428
    64  H    0.132553
    65  H    0.127364
    66  H    0.220635
    67  H    0.132323
    68  H    0.145303
    69  H    0.133774
    70  H    0.120398
    71  H    0.129651
    72  H    0.122969
    73  H    0.124322
    74  H    0.144895
    75  H    0.119694
 Sum of Mulliken charges =   0.00000

 Dipole moment (field-independent basis, Debye):
    X=              0.1518    Y=             -1.8061    Z=              1.7344  Tot=              2.5086
 Quadrupole moment (field-independent basis, Debye-Ang):
   XX=           -261.6112   YY=           -199.5951   ZZ=           -222.3736
   XY=             -1.1168   XZ=             -4.5285   YZ=              2.5878

 Normal termination of Gaussian 16 at Mon Oct 18 01:28:00 2021.
