 Gaussian 16, Revision C.01,
 Gaussian 16:  ES64L-G16RevC.01  3-Jul-2019

 ----------------------------------------------------------------------
 #P PBE1PBE/Def2TZVP SP SCF=(YQC,MaxCycle=900) int=(Grid=Superfinegrid)
  EmpiricalDispersion=GD3 SCRF=(PCM,Solvent=Chloroform)
 ----------------------------------------------------------------------

 -------------------------
 _2_alde1_4_ami1_1_opt_cfm
 -------------------------
 Symbolic Z-matrix:
 Charge =  0 Multiplicity = 1

                         Standard orientation:
 ---------------------------------------------------------------------
 Center     Atomic      Atomic             Coordinates (Angstroms)
 Number     Number       Type             X           Y           Z
 ---------------------------------------------------------------------
      1          6           0       -2.761574    1.500322   -0.754176
      2          6           0       -3.510420    1.671039    0.480374
      3          6           0       -3.085670    0.486344   -1.657005
      4          6           0       -2.307849    0.272450   -2.780861
      5          1           0       -3.938590   -0.142318   -1.461375
      6          6           0       -1.186321    1.060918   -2.999031
      7          6           0       -0.832125    2.059353   -2.095406
      8          1           0       -0.575458    0.876547   -3.870162
      9          6           0       -1.646322    2.294237   -0.990495
     10          6           0        0.431669    2.764041   -2.243711
     11          1           0       -1.366418    3.080474   -0.307144
     12          6           0       -2.646496   -0.825211   -3.771058
     13          1           0        1.128251    2.329488   -2.979236
     14          1           0       -3.234690    2.549726    1.084296
     15          6           0       -0.526877   -0.242728    2.187390
     16          6           0       -1.912557   -0.543771    2.520567
     17          6           0       -0.155495    1.055750    1.855357
     18          6           0        1.135495    1.337455    1.423567
     19          1           0       -0.903229    1.830289    1.911944
     20          6           0        2.080223    0.312662    1.388781
     21          6           0        1.739415   -0.972504    1.781603
     22          1           0        3.087961    0.533382    1.074338
     23          6           0        0.431260   -1.253166    2.149752
     24          6           0        2.777948   -2.063115    1.764933
     25          1           0        0.156556   -2.262745    2.422397
     26          6           0        1.451303    2.687232    0.982333
     27          1           0        0.698777    3.448800    1.236284
     28          6           0       -4.101912    0.028655    3.101485
     29          6           0       -4.922116    0.982146    2.187452
     30          7           0       -2.723050    0.349954    2.881978
     31          1           0       -4.314742   -1.009627    2.793899
     32          6           0       -4.437373    0.171408    4.600562
     33          7           0       -4.372234    0.837470    0.871177
     34          1           0       -4.763853    2.006736    2.565250
     35          6           0       -6.430899    0.686587    2.150727
     36          1           0       -5.514879    0.019464    4.719558
     37          6           0       -4.058872    1.544472    5.149073
     38          6           0       -3.714324   -0.922280    5.387002
     39          1           0       -6.825295    0.765966    3.169258
     40          6           0       -6.728037   -0.705128    1.599179
     41          6           0       -7.115166    1.747222    1.287902
     42          1           0       -3.984809   -0.871546    6.439349
     43          1           0       -2.636621   -0.798425    5.301402
     44          1           0       -3.980421   -1.908961    5.012413
     45          1           0       -4.684702    2.324575    4.724106
     46          1           0       -3.020610    1.760483    4.912090
     47          1           0       -4.185510    1.561034    6.229532
     48          1           0       -6.739909    1.691047    0.268696
     49          1           0       -6.918011    2.745429    1.674030
     50          1           0       -8.191482    1.590644    1.273926
     51          1           0       -6.193477   -0.844982    0.663948
     52          1           0       -7.794980   -0.814726    1.417551
     53          1           0       -6.423617   -1.479772    2.298346
     54          6           0       -1.338019   -2.612951   -3.088890
     55          6           0       -2.807160   -2.865739   -2.622152
     56          7           0       -1.439483   -1.572792   -4.111844
     57          1           0       -0.898448   -3.510241   -3.531795
     58          6           0       -0.408800   -2.159847   -1.945764
     59          7           0       -3.593226   -1.770283   -3.192348
     60          1           0       -2.857466   -2.768178   -1.531151
     61          6           0       -3.400037   -4.233300   -3.009089
     62          1           0       -0.883546   -1.326183   -1.420341
     63          6           0        0.922451   -1.676971   -2.516723
     64          6           0       -0.149745   -3.289358   -0.952482
     65          1           0       -4.470713   -4.173615   -2.775026
     66          6           0       -2.799728   -5.362217   -2.176398
     67          6           0       -3.259559   -4.552431   -4.498872
     68          1           0        0.226778   -4.170594   -1.469176
     69          1           0       -1.054244   -3.565294   -0.417446
     70          1           0        0.602330   -2.978308   -0.231239
     71          1           0        1.500751   -2.519331   -2.891739
     72          1           0        1.492528   -1.173201   -1.740518
     73          1           0        0.751110   -0.984102   -3.333798
     74          1           0       -3.837818   -5.441236   -4.742085
     75          1           0       -2.222087   -4.746587   -4.762865
     76          1           0       -3.626612   -3.737924   -5.122112
     77          1           0       -2.949092   -5.177149   -1.115637
     78          1           0       -1.732990   -5.455273   -2.362060
     79          1           0       -3.275594   -6.307227   -2.429560
     80          6           0        2.057032    4.319285   -1.623118
     81          6           0        2.631921    4.308788   -0.178199
     82          7           0        0.741050    3.760166   -1.536177
     83          1           0        2.707104    3.692118   -2.257455
     84          6           0        1.985159    5.729388   -2.245530
     85          7           0        2.486443    2.969669    0.319404
     86          1           0        2.017108    5.007617    0.413191
     87          6           0        4.108165    4.728455   -0.077888
     88          1           0        2.987448    6.167521   -2.204165
     89          6           0        1.007346    6.638470   -1.506089
     90          6           0        1.579341    5.612213   -3.714909
     91          1           0        4.211372    5.738820   -0.487064
     92          6           0        5.025503    3.777059   -0.841177
     93          6           0        4.506383    4.766428    1.397758
     94          1           0        0.581081    5.187594   -3.797738
     95          1           0        2.273314    4.973858   -4.258533
     96          1           0        1.577181    6.593298   -4.184687
     97          1           0        0.885134    7.572954   -2.049536
     98          1           0        1.365618    6.873484   -0.507380
     99          1           0        0.040777    6.148481   -1.425510
    100          1           0        3.866083    5.449139    1.952981
    101          1           0        5.536915    5.097290    1.506056
    102          1           0        4.409635    3.773750    1.831113
    103          1           0        6.065837    3.994185   -0.608887
    104          1           0        4.891563    3.876606   -1.915280
    105          1           0        4.804202    2.753638   -0.552543
    106          6           0        5.099438   -2.424004    1.554946
    107          6           0        4.296176   -3.220560    0.486534
    108          7           0        4.094510   -1.559015    2.159917
    109          1           0        5.836910   -1.777730    1.057952
    110          6           0        5.881125   -3.332296    2.526562
    111          7           0        2.982221   -2.590966    0.429173
    112          1           0        4.137066   -4.240338    0.861632
    113          6           0        4.982801   -3.332048   -0.880074
    114          1           0        6.415577   -4.064507    1.909164
    115          6           0        4.982981   -4.091291    3.502345
    116          6           0        6.914217   -2.512928    3.299832
    117          1           0        6.003740   -3.684584   -0.689923
    118          6           0        5.063544   -2.003244   -1.632631
    119          6           0        4.255089   -4.368165   -1.735251
    120          1           0        7.479147   -3.152166    3.974803
    121          1           0        6.427855   -1.737778    3.888687
    122          1           0        7.611710   -2.032772    2.617106
    123          1           0        4.467820   -3.406519    4.173935
    124          1           0        5.584086   -4.764734    4.109588
    125          1           0        4.237472   -4.684138    2.977328
    126          1           0        4.308643   -5.353104   -1.277203
    127          1           0        4.699195   -4.424289   -2.726553
    128          1           0        3.208542   -4.090751   -1.830688
    129          1           0        5.759180   -2.095695   -2.463789
    130          1           0        5.411854   -1.199850   -0.987785
    131          1           0        4.093182   -1.729356   -2.040644
    132          1           0       -2.209509   -1.599401    2.409233
    133          1           0        4.195622   -1.466536    3.161613
    134          1           0        2.438145   -2.902568    2.402333
    135          1           0        3.023728   -1.803724   -0.211928
    136          1           0       -4.232728   -2.118261   -3.897134
    137          1           0       -1.545990   -2.000598   -5.026240
    138          1           0       -3.065557   -0.349679   -4.667384
 ---------------------------------------------------------------------

 SCF Done:  E(RPBE1PBE) =  -2389.59481386     a.u. after    7 cycles
 SCF Done:  E(RPBE1PBE) =  -2389.59484422     A.U. after    7 cycles

 The electronic state is 1-A.
 Alpha  occ. eigenvalues --  -14.37241 -14.37059 -14.36808 -14.36795 -14.36678
 Alpha  occ. eigenvalues --  -14.36589 -14.36364 -14.36320 -10.27618 -10.27596
 Alpha  occ. eigenvalues --  -10.26273 -10.26103 -10.25771 -10.25708 -10.24786
 Alpha  occ. eigenvalues --  -10.24754 -10.24460 -10.24443 -10.24350 -10.24105
 Alpha  occ. eigenvalues --  -10.24066 -10.24053 -10.23668 -10.23522 -10.23511
 Alpha  occ. eigenvalues --  -10.23356 -10.23326 -10.23201 -10.22976 -10.22909
 Alpha  occ. eigenvalues --  -10.22713 -10.22681 -10.22660 -10.22658 -10.22638
 Alpha  occ. eigenvalues --  -10.22483 -10.22445 -10.22429 -10.22070 -10.22033
 Alpha  occ. eigenvalues --  -10.21992 -10.20973 -10.20828 -10.20618 -10.20562
 Alpha  occ. eigenvalues --  -10.20460 -10.20430 -10.20200 -10.20147 -10.20136
 Alpha  occ. eigenvalues --  -10.19886 -10.19858 -10.19856 -10.19841 -10.19599
 Alpha  occ. eigenvalues --  -10.19582 -10.18991 -10.18925  -0.99316  -0.99027
 Alpha  occ. eigenvalues --   -0.97478  -0.97334  -0.94552  -0.94225  -0.89724
 Alpha  occ. eigenvalues --   -0.88941  -0.88318  -0.88040  -0.84445  -0.84160
 Alpha  occ. eigenvalues --   -0.83588  -0.83129  -0.81970  -0.81475  -0.80829
 Alpha  occ. eigenvalues --   -0.80537  -0.79481  -0.79357  -0.78917  -0.78696
 Alpha  occ. eigenvalues --   -0.74406  -0.73547  -0.73054  -0.72867  -0.70763
 Alpha  occ. eigenvalues --   -0.70747  -0.70436  -0.70235  -0.70204  -0.69844
 Alpha  occ. eigenvalues --   -0.69826  -0.69137  -0.68588  -0.68472  -0.66748
 Alpha  occ. eigenvalues --   -0.66407  -0.65545  -0.64443  -0.64168  -0.64065
 Alpha  occ. eigenvalues --   -0.63078  -0.62271  -0.59928  -0.59532  -0.58853
 Alpha  occ. eigenvalues --   -0.58246  -0.57985  -0.57384  -0.57212  -0.56915
 Alpha  occ. eigenvalues --   -0.56645  -0.55937  -0.54800  -0.54325  -0.53684
 Alpha  occ. eigenvalues --   -0.53354  -0.52930  -0.52211  -0.51343  -0.50919
 Alpha  occ. eigenvalues --   -0.50421  -0.49949  -0.49751  -0.49186  -0.48748
 Alpha  occ. eigenvalues --   -0.48618  -0.48214  -0.47913  -0.47654  -0.47321
 Alpha  occ. eigenvalues --   -0.46735  -0.46219  -0.46027  -0.45922  -0.45730
 Alpha  occ. eigenvalues --   -0.45528  -0.45170  -0.45035  -0.44817  -0.44748
 Alpha  occ. eigenvalues --   -0.44699  -0.44010  -0.43722  -0.43364  -0.43165
 Alpha  occ. eigenvalues --   -0.42954  -0.42784  -0.42685  -0.42663  -0.42433
 Alpha  occ. eigenvalues --   -0.41883  -0.41835  -0.41737  -0.41497  -0.41076
 Alpha  occ. eigenvalues --   -0.40864  -0.40348  -0.40044  -0.40008  -0.39936
 Alpha  occ. eigenvalues --   -0.39788  -0.39684  -0.39485  -0.39257  -0.39129
 Alpha  occ. eigenvalues --   -0.38838  -0.38792  -0.38573  -0.38454  -0.38204
 Alpha  occ. eigenvalues --   -0.37979  -0.37822  -0.37662  -0.37486  -0.37247
 Alpha  occ. eigenvalues --   -0.36994  -0.36420  -0.36200  -0.36182  -0.35760
 Alpha  occ. eigenvalues --   -0.35584  -0.35259  -0.35061  -0.34809  -0.34748
 Alpha  occ. eigenvalues --   -0.34730  -0.34664  -0.34486  -0.34436  -0.34270
 Alpha  occ. eigenvalues --   -0.34102  -0.34033  -0.33724  -0.33632  -0.33398
 Alpha  occ. eigenvalues --   -0.33242  -0.33161  -0.32844  -0.32696  -0.32272
 Alpha  occ. eigenvalues --   -0.32046  -0.32024  -0.31678  -0.31601  -0.30810
 Alpha  occ. eigenvalues --   -0.29919  -0.26794  -0.26674  -0.26275  -0.26125
 Alpha  occ. eigenvalues --   -0.26078  -0.25891  -0.25361  -0.25227  -0.24850
 Alpha  occ. eigenvalues --   -0.24647  -0.23542  -0.23367
 Alpha virt. eigenvalues --   -0.05630  -0.05130  -0.03772  -0.03469   0.01472
 Alpha virt. eigenvalues --    0.02032   0.03254   0.03702   0.04185   0.04348
 Alpha virt. eigenvalues --    0.04579   0.04810   0.05319   0.05532   0.05597

 Mulliken charges:
               1
     1  C    0.386446
     2  C   -0.196285
     3  C   -0.334735
     4  C    0.063284
     5  H    0.154782
     6  C   -0.362330
     7  C    0.329163
     8  H    0.130418
     9  C   -0.342105
    10  C   -0.178631
    11  H    0.136490
    12  C    0.179215
    13  H    0.083435
    14  H    0.091264
    15  C    0.337583
    16  C   -0.182273
    17  C   -0.297590
    18  C    0.406991
    19  H    0.130804
    20  C   -0.387475
    21  C    0.329707
    22  H    0.136446
    23  C   -0.399165
    24  C   -0.086030
    25  H    0.121564
    26  C   -0.205734
    27  H    0.094129
    28  C    0.095839
    29  C    0.105348
    30  N   -0.259292
    31  H    0.085504
    32  C   -0.016808
    33  N   -0.264771
    34  H    0.081216
    35  C    0.003452
    36  H    0.084172
    37  C   -0.419614
    38  C   -0.396518
    39  H    0.081550
    40  C   -0.426715
    41  C   -0.402865
    42  H    0.128839
    43  H    0.126326
    44  H    0.118878
    45  H    0.124351
    46  H    0.133093
    47  H    0.122979
    48  H    0.129306
    49  H    0.117759
    50  H    0.125692
    51  H    0.138644
    52  H    0.120840
    53  H    0.122395
    54  C    0.022769
    55  C   -0.039026
    56  N   -0.340750
    57  H    0.104188
    58  C   -0.092484
    59  N   -0.314014
    60  H    0.088010
    61  C   -0.062509
    62  H    0.107450
    63  C   -0.409074
    64  C   -0.377170
    65  H    0.094043
    66  C   -0.375409
    67  C   -0.406000
    68  H    0.106677
    69  H    0.109538
    70  H    0.149324
    71  H    0.107677
    72  H    0.125903
    73  H    0.126513
    74  H    0.136932
    75  H    0.124305
    76  H    0.117060
    77  H    0.122814
    78  H    0.118984
    79  H    0.130712
    80  C    0.099269
    81  C    0.102946
    82  N   -0.257178
    83  H    0.085285
    84  C   -0.023541
    85  N   -0.264788
    86  H    0.082917
    87  C    0.010957
    88  H    0.083603
    89  C   -0.419428
    90  C   -0.394729
    91  H    0.081322
    92  C   -0.427087
    93  C   -0.405294
    94  H    0.126629
    95  H    0.118820
    96  H    0.128415
    97  H    0.123062
    98  H    0.124232
    99  H    0.133434
   100  H    0.117590
   101  H    0.125400
   102  H    0.130938
   103  H    0.121121
   104  H    0.122541
   105  H    0.136765
   106  C    0.139269
   107  C   -0.051948
   108  N   -0.307328
   109  H    0.049990
   110  C   -0.117933
   111  N   -0.256380
   112  H    0.056201
   113  C   -0.012820
   114  H    0.075207
   115  C   -0.388373
   116  C   -0.361079
   117  H    0.079377
   118  C   -0.437149
   119  C   -0.383765
   120  H    0.126275
   121  H    0.114959
   122  H    0.126056
   123  H    0.109545
   124  H    0.134605
   125  H    0.128737
   126  H    0.121333
   127  H    0.124535
   128  H    0.129558
   129  H    0.132878
   130  H    0.137209
   131  H    0.133153
   132  H    0.084684
   133  H    0.196645
   134  H    0.083012
   135  H    0.176274
   136  H    0.195340
   137  H    0.201183
   138  H    0.122123
 Sum of Mulliken charges =   0.00000

 Dipole moment (field-independent basis, Debye):
    X=              1.1657    Y=             -3.8595    Z=             -1.3873  Tot=              4.2637
 Quadrupole moment (field-independent basis, Debye-Ang):
   XX=           -348.1139   YY=           -346.5503   ZZ=           -338.8634
   XY=              1.5780   XZ=              3.4129   YZ=              2.2050

 Normal termination of Gaussian 16 at Mon Oct 18 15:52:23 2021.
