 Gaussian 16, Revision C.01,
 Gaussian 16:  ES64L-G16RevC.01  3-Jul-2019

 ----------------------------------------------------------------------
 #P MP2/aug-cc-pVDZ SP SCF=(YQC,MaxCycle=900) int=(Grid=Superfinegrid)
 SCRF=(PCM,Solvent=Dichloromethane)
 ----------------------------------------------------------------------

 -----------------------------
 _2_alde1_3_ami3_1_opt_dcm_mp2
 -----------------------------
 Symbolic Z-matrix:
 Charge =  0 Multiplicity = 1

                         Standard orientation:
 ---------------------------------------------------------------------
 Center     Atomic      Atomic             Coordinates (Angstroms)
 Number     Number       Type             X           Y           Z
 ---------------------------------------------------------------------
      1          6           0        3.120299   -1.049935    0.823595
      2          6           0        3.083598   -2.051722   -0.230498
      3          6           0        3.178659   -1.412313    2.167879
      4          6           0        3.098528   -0.439216    3.158414
      5          1           0        3.275014   -2.457693    2.418518
      6          6           0        2.917288    0.899417    2.806128
      7          6           0        2.865354    1.274826    1.469193
      8          1           0        2.822028    1.632226    3.594644
      9          6           0        2.995955    0.294528    0.486839
     10          6           0        2.576073    2.652430    1.090511
     11          1           0        2.960272    0.604808   -0.545734
     12          6           0        3.172146   -0.813586    4.577529
     13          1           0        2.126504    3.273581    1.880656
     14          1           0        3.107242   -1.654868   -1.256071
     15          6           0       -0.766808   -1.276636   -0.443808
     16          6           0       -0.277190   -2.646689   -0.470264
     17          6           0       -0.068313   -0.272609   -1.106850
     18          6           0       -0.431287    1.060805   -0.953221
     19          1           0        0.783023   -0.551793   -1.707269
     20          6           0       -1.546877    1.381246   -0.180005
     21          6           0       -2.284451    0.382826    0.439656
     22          1           0       -1.817780    2.419423   -0.065741
     23          6           0       -1.875981   -0.938334    0.329490
     24          6           0       -3.515409    0.753623    1.236949
     25          1           0       -2.433931   -1.699384    0.853765
     26          6           0        0.425421    2.092025   -1.513274
     27          1           0        1.236479    1.723844   -2.161161
     28          6           0        1.156289   -4.345156   -1.170446
     29          6           0        2.693528   -4.155728   -1.099050
     30          7           0        0.577808   -3.045662   -1.307680
     31          1           0        0.822494   -4.841562   -0.240960
     32          6           0        0.823553   -5.234739   -2.368603
     33          7           0        2.954050   -3.285089    0.005087
     34          1           0        3.008268   -3.699714   -2.054261
     35          6           0        3.364512   -5.513045   -0.918166
     36          6           0        1.506260   -6.591005   -2.222018
     37          6           0        3.018073   -6.428990   -2.087958
     38          8           0        3.099267   -0.048699    5.504833
     39          6           0        2.309162    4.385962   -0.441362
     40          6           0        1.350765    4.204399   -1.646060
     41          7           0        2.774556    3.085533   -0.076372
     42          1           0        1.746377    4.860402    0.382511
     43          6           0        3.465322    5.294539   -0.859454
     44          7           0        0.312329    3.315560   -1.224038
     45          1           0        1.943645    3.769382   -2.470820
     46          6           0        0.796047    5.563426   -2.059501
     47          6           0        2.930311    6.652866   -1.302072
     48          6           0        1.935694    6.499540   -2.449866
     49          6           0       -5.341052   -0.570746    0.778415
     50          6           0       -5.731042    0.893721    0.514249
     51          7           0       -4.226089   -0.443382    1.706052
     52          1           0       -4.929374   -0.995724   -0.148716
     53          6           0       -6.552261   -1.374538    1.202611
     54          7           0       -4.444720    1.568533    0.414531
     55          1           0       -6.229207    1.290231    1.412457
     56          6           0       -6.687524    0.978979   -0.657834
     57          6           0       -7.575525   -1.294548    0.064678
     58          6           0       -7.926509    0.150779   -0.301367
     59          1           0       -0.664673   -3.300476    0.327432
     60          1           0       -4.584311   -0.290723    2.644022
     61          1           0       -3.202153    1.357142    2.100373
     62          1           0       -4.128146    1.571534   -0.551369
     63          1           0        3.308003   -1.900998    4.742407
     64          1           0        3.761044    7.289661   -1.612940
     65          1           0        2.435006    7.136897   -0.457141
     66          1           0        1.532867    7.476562   -2.723673
     67          1           0        2.451983    6.093651   -3.323022
     68          1           0        0.110603    5.429303   -2.898486
     69          1           0        0.228618    5.979800   -1.225822
     70          1           0        4.149216    5.412456   -0.016102
     71          1           0        4.013433    4.817245   -1.673442
     72          1           0       -6.969218    2.014424   -0.855428
     73          1           0       -6.210647    0.576451   -1.555356
     74          1           0       -8.620986    0.149093   -1.143556
     75          1           0       -8.431890    0.621401    0.545208
     76          1           0       -8.486039   -1.823370    0.352493
     77          1           0       -7.163098   -1.795941   -0.814069
     78          1           0       -6.975049   -0.954755    2.118795
     79          1           0       -6.282199   -2.413798    1.396570
     80          1           0        3.025248   -5.951047    0.021951
     81          1           0        4.445143   -5.372534   -0.853150
     82          1           0        1.156409   -4.737227   -3.281127
     83          1           0       -0.259887   -5.359588   -2.428940
     84          1           0        1.274924   -7.212994   -3.089117
     85          1           0        1.116985   -7.095434   -1.334491
     86          1           0        3.483888   -7.405448   -1.941917
     87          1           0        3.418550   -6.001715   -3.010396
 ---------------------------------------------------------------------

 SCF Done:  E(RHF) =  -1790.63008083     a.u. after    7 cycles
 SCF Done:  E(RHF) =  -1790.63012261     A.U. after   21 cycles
 E2 =    -0.6271446387D+01 EUMP2 =    -0.17969015689981D+04

 The electronic state is 1-A.
 Alpha  occ. eigenvalues --  -20.57470 -15.56388 -15.56096 -15.56001 -15.55775
 Alpha  occ. eigenvalues --  -15.55251 -15.55007 -11.34943 -11.29235 -11.28950
 Alpha  occ. eigenvalues --  -11.28787 -11.28581 -11.28402 -11.26785 -11.26615
 Alpha  occ. eigenvalues --  -11.26504 -11.25805 -11.25793 -11.25757 -11.25702
 Alpha  occ. eigenvalues --  -11.25670 -11.25532 -11.25467 -11.24848 -11.24843
 Alpha  occ. eigenvalues --  -11.24770 -11.24739 -11.24598 -11.24553 -11.24333
 Alpha  occ. eigenvalues --  -11.24285 -11.22322 -11.22281 -11.22248 -11.22199
 Alpha  occ. eigenvalues --  -11.22086 -11.22079 -11.21988 -11.21961 -11.21934
 Alpha  occ. eigenvalues --  -11.21892 -11.21874 -11.21803  -1.41197  -1.27995
 Alpha  occ. eigenvalues --   -1.26898  -1.26711  -1.23780  -1.23296  -1.18496
 Alpha  occ. eigenvalues --   -1.16929  -1.14936  -1.11851  -1.11440  -1.10843
 Alpha  occ. eigenvalues --   -1.06866  -1.06581  -1.05601  -1.05257  -1.00655
 Alpha  occ. eigenvalues --   -1.00272  -0.99984  -0.99926  -0.98956  -0.97843
 Alpha  occ. eigenvalues --   -0.90768  -0.90562  -0.89473  -0.88597  -0.87946
 Alpha  occ. eigenvalues --   -0.86560  -0.83270  -0.83030  -0.82372  -0.81821
 Alpha  occ. eigenvalues --   -0.81715  -0.80907  -0.77968  -0.77374  -0.77059
 Alpha  occ. eigenvalues --   -0.76515  -0.75977  -0.75446  -0.74359  -0.71820
 Alpha  occ. eigenvalues --   -0.70434  -0.69851  -0.69035  -0.67433  -0.67151
 Alpha  occ. eigenvalues --   -0.67045  -0.66057  -0.65553  -0.65334  -0.64358
 Alpha  occ. eigenvalues --   -0.63666  -0.63277  -0.63043  -0.62916  -0.62492
 Alpha  occ. eigenvalues --   -0.61783  -0.60908  -0.60397  -0.60279  -0.59730
 Alpha  occ. eigenvalues --   -0.59383  -0.59039  -0.58899  -0.57900  -0.57826
 Alpha  occ. eigenvalues --   -0.56811  -0.56070  -0.56055  -0.55394  -0.54779
 Alpha  occ. eigenvalues --   -0.54388  -0.54125  -0.53987  -0.53392  -0.53052
 Alpha  occ. eigenvalues --   -0.52955  -0.52344  -0.51680  -0.50619  -0.49980
 Alpha  occ. eigenvalues --   -0.49591  -0.49138  -0.48983  -0.48880  -0.48684
 Alpha  occ. eigenvalues --   -0.48134  -0.47374  -0.47154  -0.46646  -0.46509
 Alpha  occ. eigenvalues --   -0.46355  -0.45871  -0.45503  -0.45040  -0.44816
 Alpha  occ. eigenvalues --   -0.43835  -0.43572  -0.42728  -0.41767  -0.41140
 Alpha  occ. eigenvalues --   -0.40931  -0.40673  -0.40035  -0.39810  -0.38074
 Alpha  occ. eigenvalues --   -0.37280  -0.34755  -0.33010  -0.32637  -0.32029
 Alpha virt. eigenvalues --    0.03321   0.03513   0.03630   0.03679   0.04118
 Alpha virt. eigenvalues --    0.04194   0.04296   0.04391   0.04540   0.05032
 Alpha virt. eigenvalues --    0.05159   0.05307   0.05494   0.05667   0.05737

 Mulliken charges:
               1
     1  C    0.987401
     2  C    0.620278
     3  C    1.150266
     4  C   -0.036611
     5  H   -0.852676
     6  C    0.325615
     7  C    0.783447
     8  H   -0.763364
     9  C    0.726115
    10  C    0.458829
    11  H   -1.088870
    12  C    1.302591
    13  H   -0.758084
    14  H   -0.739126
    15  C    1.122283
    16  C    0.375301
    17  C   -0.271820
    18  C    1.311682
    19  H   -1.088506
    20  C    0.280290
    21  C    0.286862
    22  H   -1.253668
    23  C    1.080667
    24  C    0.842146
    25  H   -0.979428
    26  C    0.300044
    27  H   -0.722858
    28  C   -0.447636
    29  C    0.012634
    30  N   -0.454825
    31  H   -0.304266
    32  C    0.786475
    33  N   -0.733123
    34  H   -0.357195
    35  C    0.755725
    36  C    0.582716
    37  C    0.495275
    38  O   -0.871788
    39  C   -0.321539
    40  C   -0.124653
    41  N   -0.411361
    42  H   -0.299693
    43  C    0.794191
    44  N   -0.529266
    45  H   -0.382515
    46  C    0.820389
    47  C    0.513933
    48  C    0.549166
    49  C    0.290417
    50  C   -0.069708
    51  N   -0.790631
    52  H   -0.342123
    53  C    0.800898
    54  N   -0.576007
    55  H   -0.417980
    56  C    0.706912
    57  C    0.388032
    58  C    0.465601
    59  H   -0.770770
    60  H    0.105304
    61  H   -0.180511
    62  H    0.225077
    63  H   -0.297883
    64  H   -0.143277
    65  H   -0.074710
    66  H   -0.146761
    67  H   -0.081770
    68  H   -0.205892
    69  H   -0.119403
    70  H   -0.221352
    71  H   -0.109900
    72  H   -0.127351
    73  H   -0.041487
    74  H   -0.135561
    75  H   -0.100200
    76  H   -0.148505
    77  H   -0.099725
    78  H   -0.032066
    79  H   -0.121937
    80  H   -0.101617
    81  H   -0.195704
    82  H   -0.124745
    83  H   -0.226467
    84  H   -0.137922
    85  H   -0.084022
    86  H   -0.145964
    87  H   -0.081739
 Sum of Mulliken charges =   0.00000

 Dipole moment (field-independent basis, Debye):
    X=             -2.8420    Y=             -2.1114    Z=             -3.3476  Tot=              4.8725
 Quadrupole moment (field-independent basis, Debye-Ang):
   XX=           -243.8917   YY=           -243.9952   ZZ=           -279.9799
   XY=              6.2048   XZ=            -19.2178   YZ=             -3.1739

 Normal termination of Gaussian 16 at Mon Nov  8 23:33:26 2021.
