 Gaussian 16, Revision C.01,
 Gaussian 16:  ES64L-G16RevC.01  3-Jul-2019

 ----------------------------------------------------------------------
 #P PBE1PBE/Def2TZVP SP SCF=(YQC,MaxCycle=900) int=(Grid=Superfinegrid)
  EmpiricalDispersion=GD3
 ----------------------------------------------------------------------

 -------------------------
 _2_alde1_4_ami1_1_opt_gas
 -------------------------
 Symbolic Z-matrix:
 Charge =  0 Multiplicity = 1

                         Standard orientation:
 ---------------------------------------------------------------------
 Center     Atomic      Atomic             Coordinates (Angstroms)
 Number     Number       Type             X           Y           Z
 ---------------------------------------------------------------------
      1          6           0       -2.761574    1.500322   -0.754176
      2          6           0       -3.510420    1.671039    0.480374
      3          6           0       -3.085670    0.486344   -1.657005
      4          6           0       -2.307849    0.272450   -2.780861
      5          1           0       -3.938590   -0.142318   -1.461375
      6          6           0       -1.186321    1.060918   -2.999031
      7          6           0       -0.832125    2.059353   -2.095406
      8          1           0       -0.575458    0.876547   -3.870162
      9          6           0       -1.646322    2.294237   -0.990495
     10          6           0        0.431669    2.764041   -2.243711
     11          1           0       -1.366418    3.080474   -0.307144
     12          6           0       -2.646496   -0.825211   -3.771058
     13          1           0        1.128251    2.329488   -2.979236
     14          1           0       -3.234690    2.549726    1.084296
     15          6           0       -0.526877   -0.242728    2.187390
     16          6           0       -1.912557   -0.543771    2.520567
     17          6           0       -0.155495    1.055750    1.855357
     18          6           0        1.135495    1.337455    1.423567
     19          1           0       -0.903229    1.830289    1.911944
     20          6           0        2.080223    0.312662    1.388781
     21          6           0        1.739415   -0.972504    1.781603
     22          1           0        3.087961    0.533382    1.074338
     23          6           0        0.431260   -1.253166    2.149752
     24          6           0        2.777948   -2.063115    1.764933
     25          1           0        0.156556   -2.262745    2.422397
     26          6           0        1.451303    2.687232    0.982333
     27          1           0        0.698777    3.448800    1.236284
     28          6           0       -4.101912    0.028655    3.101485
     29          6           0       -4.922116    0.982146    2.187452
     30          7           0       -2.723050    0.349954    2.881978
     31          1           0       -4.314742   -1.009627    2.793899
     32          6           0       -4.437373    0.171408    4.600562
     33          7           0       -4.372234    0.837470    0.871177
     34          1           0       -4.763853    2.006736    2.565250
     35          6           0       -6.430899    0.686587    2.150727
     36          1           0       -5.514879    0.019464    4.719558
     37          6           0       -4.058872    1.544472    5.149073
     38          6           0       -3.714324   -0.922280    5.387002
     39          1           0       -6.825295    0.765966    3.169258
     40          6           0       -6.728037   -0.705128    1.599179
     41          6           0       -7.115166    1.747222    1.287902
     42          1           0       -3.984809   -0.871546    6.439349
     43          1           0       -2.636621   -0.798425    5.301402
     44          1           0       -3.980421   -1.908961    5.012413
     45          1           0       -4.684702    2.324575    4.724106
     46          1           0       -3.020610    1.760483    4.912090
     47          1           0       -4.185510    1.561034    6.229532
     48          1           0       -6.739909    1.691047    0.268696
     49          1           0       -6.918011    2.745429    1.674030
     50          1           0       -8.191482    1.590644    1.273926
     51          1           0       -6.193477   -0.844982    0.663948
     52          1           0       -7.794980   -0.814726    1.417551
     53          1           0       -6.423617   -1.479772    2.298346
     54          6           0       -1.338019   -2.612951   -3.088890
     55          6           0       -2.807160   -2.865739   -2.622152
     56          7           0       -1.439483   -1.572792   -4.111844
     57          1           0       -0.898448   -3.510241   -3.531795
     58          6           0       -0.408800   -2.159847   -1.945764
     59          7           0       -3.593226   -1.770283   -3.192348
     60          1           0       -2.857466   -2.768178   -1.531151
     61          6           0       -3.400037   -4.233300   -3.009089
     62          1           0       -0.883546   -1.326183   -1.420341
     63          6           0        0.922451   -1.676971   -2.516723
     64          6           0       -0.149745   -3.289358   -0.952482
     65          1           0       -4.470713   -4.173615   -2.775026
     66          6           0       -2.799728   -5.362217   -2.176398
     67          6           0       -3.259559   -4.552431   -4.498872
     68          1           0        0.226778   -4.170594   -1.469176
     69          1           0       -1.054244   -3.565294   -0.417446
     70          1           0        0.602330   -2.978308   -0.231239
     71          1           0        1.500751   -2.519331   -2.891739
     72          1           0        1.492528   -1.173201   -1.740518
     73          1           0        0.751110   -0.984102   -3.333798
     74          1           0       -3.837818   -5.441236   -4.742085
     75          1           0       -2.222087   -4.746587   -4.762865
     76          1           0       -3.626612   -3.737924   -5.122112
     77          1           0       -2.949092   -5.177149   -1.115637
     78          1           0       -1.732990   -5.455273   -2.362060
     79          1           0       -3.275594   -6.307227   -2.429560
     80          6           0        2.057032    4.319285   -1.623118
     81          6           0        2.631921    4.308788   -0.178199
     82          7           0        0.741050    3.760166   -1.536177
     83          1           0        2.707104    3.692118   -2.257455
     84          6           0        1.985159    5.729388   -2.245530
     85          7           0        2.486443    2.969669    0.319404
     86          1           0        2.017108    5.007617    0.413191
     87          6           0        4.108165    4.728455   -0.077888
     88          1           0        2.987448    6.167521   -2.204165
     89          6           0        1.007346    6.638470   -1.506089
     90          6           0        1.579341    5.612213   -3.714909
     91          1           0        4.211372    5.738820   -0.487064
     92          6           0        5.025503    3.777059   -0.841177
     93          6           0        4.506383    4.766428    1.397758
     94          1           0        0.581081    5.187594   -3.797738
     95          1           0        2.273314    4.973858   -4.258533
     96          1           0        1.577181    6.593298   -4.184687
     97          1           0        0.885134    7.572954   -2.049536
     98          1           0        1.365618    6.873484   -0.507380
     99          1           0        0.040777    6.148481   -1.425510
    100          1           0        3.866083    5.449139    1.952981
    101          1           0        5.536915    5.097290    1.506056
    102          1           0        4.409635    3.773750    1.831113
    103          1           0        6.065837    3.994185   -0.608887
    104          1           0        4.891563    3.876606   -1.915280
    105          1           0        4.804202    2.753638   -0.552543
    106          6           0        5.099438   -2.424004    1.554946
    107          6           0        4.296176   -3.220560    0.486534
    108          7           0        4.094510   -1.559015    2.159917
    109          1           0        5.836910   -1.777730    1.057952
    110          6           0        5.881125   -3.332296    2.526562
    111          7           0        2.982221   -2.590966    0.429173
    112          1           0        4.137066   -4.240338    0.861632
    113          6           0        4.982801   -3.332048   -0.880074
    114          1           0        6.415577   -4.064507    1.909164
    115          6           0        4.982981   -4.091291    3.502345
    116          6           0        6.914217   -2.512928    3.299832
    117          1           0        6.003740   -3.684584   -0.689923
    118          6           0        5.063544   -2.003244   -1.632631
    119          6           0        4.255089   -4.368165   -1.735251
    120          1           0        7.479147   -3.152166    3.974803
    121          1           0        6.427855   -1.737778    3.888687
    122          1           0        7.611710   -2.032772    2.617106
    123          1           0        4.467820   -3.406519    4.173935
    124          1           0        5.584086   -4.764734    4.109588
    125          1           0        4.237472   -4.684138    2.977328
    126          1           0        4.308643   -5.353104   -1.277203
    127          1           0        4.699195   -4.424289   -2.726553
    128          1           0        3.208542   -4.090751   -1.830688
    129          1           0        5.759180   -2.095695   -2.463789
    130          1           0        5.411854   -1.199850   -0.987785
    131          1           0        4.093182   -1.729356   -2.040644
    132          1           0       -2.209509   -1.599401    2.409233
    133          1           0        4.195622   -1.466536    3.161613
    134          1           0        2.438145   -2.902568    2.402333
    135          1           0        3.023728   -1.803724   -0.211928
    136          1           0       -4.232728   -2.118261   -3.897134
    137          1           0       -1.545990   -2.000598   -5.026240
    138          1           0       -3.065557   -0.349679   -4.667384
 ---------------------------------------------------------------------

 SCF Done:  E(RPBE1PBE) =  -2389.58520383     a.u. after    8 cycles
 SCF Done:  E(RPBE1PBE) =  -2389.58520465     A.U. after    7 cycles

 The electronic state is 1-A.
 Alpha  occ. eigenvalues --  -14.36868 -14.36743 -14.36722 -14.36621 -14.36431
 Alpha  occ. eigenvalues --  -14.36375 -14.36298 -14.36153 -10.27707 -10.27577
 Alpha  occ. eigenvalues --  -10.25980 -10.25734 -10.25319 -10.25238 -10.24525
 Alpha  occ. eigenvalues --  -10.24505 -10.24453 -10.24254 -10.24251 -10.24201
 Alpha  occ. eigenvalues --  -10.24127 -10.24106 -10.23282 -10.23170 -10.23063
 Alpha  occ. eigenvalues --  -10.23052 -10.23036 -10.22891 -10.22847 -10.22832
 Alpha  occ. eigenvalues --  -10.22682 -10.22556 -10.22514 -10.22301 -10.22298
 Alpha  occ. eigenvalues --  -10.22246 -10.22219 -10.22217 -10.21763 -10.21733
 Alpha  occ. eigenvalues --  -10.21486 -10.21470 -10.21122 -10.20891 -10.20833
 Alpha  occ. eigenvalues --  -10.20811 -10.20742 -10.20254 -10.20095 -10.19973
 Alpha  occ. eigenvalues --  -10.19584 -10.19533 -10.19530 -10.19517 -10.19228
 Alpha  occ. eigenvalues --  -10.19222 -10.18843 -10.18730  -0.99331  -0.99130
 Alpha  occ. eigenvalues --   -0.97068  -0.96906  -0.94103  -0.93778  -0.89319
 Alpha  occ. eigenvalues --   -0.88519  -0.88387  -0.88156  -0.84209  -0.84085
 Alpha  occ. eigenvalues --   -0.83683  -0.83032  -0.81650  -0.81203  -0.81094
 Alpha  occ. eigenvalues --   -0.80597  -0.79174  -0.79019  -0.78624  -0.78299
 Alpha  occ. eigenvalues --   -0.74154  -0.73309  -0.72973  -0.72861  -0.71223
 Alpha  occ. eigenvalues --   -0.71132  -0.70637  -0.69998  -0.69925  -0.69491
 Alpha  occ. eigenvalues --   -0.69484  -0.68973  -0.68216  -0.68081  -0.66557
 Alpha  occ. eigenvalues --   -0.66170  -0.65328  -0.64476  -0.64227  -0.63976
 Alpha  occ. eigenvalues --   -0.62813  -0.62001  -0.59770  -0.59239  -0.58773
 Alpha  occ. eigenvalues --   -0.58407  -0.57967  -0.57270  -0.56962  -0.56868
 Alpha  occ. eigenvalues --   -0.56558  -0.55639  -0.54520  -0.54036  -0.53774
 Alpha  occ. eigenvalues --   -0.53131  -0.52752  -0.52004  -0.51026  -0.50669
 Alpha  occ. eigenvalues --   -0.50309  -0.49693  -0.49452  -0.48917  -0.48748
 Alpha  occ. eigenvalues --   -0.48570  -0.47981  -0.47933  -0.47430  -0.47172
 Alpha  occ. eigenvalues --   -0.46830  -0.46096  -0.46060  -0.45841  -0.45765
 Alpha  occ. eigenvalues --   -0.45591  -0.45208  -0.44952  -0.44804  -0.44508
 Alpha  occ. eigenvalues --   -0.44443  -0.43934  -0.43612  -0.43323  -0.43074
 Alpha  occ. eigenvalues --   -0.42934  -0.42567  -0.42452  -0.42353  -0.42293
 Alpha  occ. eigenvalues --   -0.41668  -0.41586  -0.41530  -0.41329  -0.41120
 Alpha  occ. eigenvalues --   -0.40699  -0.40430  -0.40280  -0.39883  -0.39741
 Alpha  occ. eigenvalues --   -0.39652  -0.39533  -0.39334  -0.39229  -0.38917
 Alpha  occ. eigenvalues --   -0.38624  -0.38511  -0.38458  -0.38304  -0.38159
 Alpha  occ. eigenvalues --   -0.38030  -0.37719  -0.37625  -0.37233  -0.37100
 Alpha  occ. eigenvalues --   -0.36694  -0.36316  -0.36101  -0.35944  -0.35777
 Alpha  occ. eigenvalues --   -0.35486  -0.35323  -0.35073  -0.34786  -0.34658
 Alpha  occ. eigenvalues --   -0.34610  -0.34573  -0.34413  -0.34352  -0.34212
 Alpha  occ. eigenvalues --   -0.34131  -0.34077  -0.33667  -0.33382  -0.33299
 Alpha  occ. eigenvalues --   -0.33098  -0.32910  -0.32540  -0.32384  -0.32218
 Alpha  occ. eigenvalues --   -0.32011  -0.31921  -0.31644  -0.31378  -0.30461
 Alpha  occ. eigenvalues --   -0.29591  -0.26330  -0.26259  -0.25950  -0.25872
 Alpha  occ. eigenvalues --   -0.25630  -0.25522  -0.25166  -0.24823  -0.24511
 Alpha  occ. eigenvalues --   -0.24190  -0.23481  -0.23322
 Alpha virt. eigenvalues --   -0.05186  -0.04655  -0.03325  -0.03012   0.01488
 Alpha virt. eigenvalues --    0.02235   0.03109   0.03408   0.04092   0.04230
 Alpha virt. eigenvalues --    0.04673   0.04782   0.05014   0.05329   0.05649

 Mulliken charges:
               1
     1  C    0.402658
     2  C   -0.192016
     3  C   -0.323608
     4  C    0.053779
     5  H    0.168756
     6  C   -0.358403
     7  C    0.335954
     8  H    0.125142
     9  C   -0.334290
    10  C   -0.170778
    11  H    0.128324
    12  C    0.164197
    13  H    0.069596
    14  H    0.079614
    15  C    0.340927
    16  C   -0.176349
    17  C   -0.287285
    18  C    0.422853
    19  H    0.123244
    20  C   -0.376455
    21  C    0.329111
    22  H    0.140755
    23  C   -0.391690
    24  C   -0.099923
    25  H    0.106706
    26  C   -0.201648
    27  H    0.083548
    28  C    0.103476
    29  C    0.107233
    30  N   -0.254164
    31  H    0.075689
    32  C   -0.019672
    33  N   -0.257475
    34  H    0.072198
    35  C    0.002438
    36  H    0.077363
    37  C   -0.404581
    38  C   -0.383796
    39  H    0.073606
    40  C   -0.412032
    41  C   -0.389607
    42  H    0.122554
    43  H    0.127321
    44  H    0.111652
    45  H    0.117763
    46  H    0.139431
    47  H    0.115633
    48  H    0.133681
    49  H    0.110849
    50  H    0.118732
    51  H    0.145928
    52  H    0.113698
    53  H    0.113576
    54  C    0.021465
    55  C   -0.029512
    56  N   -0.317961
    57  H    0.091498
    58  C   -0.102918
    59  N   -0.289235
    60  H    0.087064
    61  C   -0.072412
    62  H    0.112793
    63  C   -0.393827
    64  C   -0.359879
    65  H    0.094409
    66  C   -0.359102
    67  C   -0.393728
    68  H    0.098450
    69  H    0.100326
    70  H    0.157546
    71  H    0.100960
    72  H    0.122923
    73  H    0.129029
    74  H    0.133070
    75  H    0.120164
    76  H    0.106443
    77  H    0.119602
    78  H    0.115546
    79  H    0.124904
    80  C    0.106939
    81  C    0.104850
    82  N   -0.254562
    83  H    0.076407
    84  C   -0.025972
    85  N   -0.256955
    86  H    0.073936
    87  C    0.009182
    88  H    0.076633
    89  C   -0.404234
    90  C   -0.382163
    91  H    0.073768
    92  C   -0.411576
    93  C   -0.391266
    94  H    0.128241
    95  H    0.111840
    96  H    0.121971
    97  H    0.115848
    98  H    0.117307
    99  H    0.139292
   100  H    0.110790
   101  H    0.118461
   102  H    0.134595
   103  H    0.114109
   104  H    0.114779
   105  H    0.141543
   106  C    0.153180
   107  C   -0.048438
   108  N   -0.282286
   109  H    0.043907
   110  C   -0.126759
   111  N   -0.242418
   112  H    0.045554
   113  C   -0.017537
   114  H    0.069868
   115  C   -0.372576
   116  C   -0.341718
   117  H    0.071622
   118  C   -0.428855
   119  C   -0.367720
   120  H    0.121452
   121  H    0.108647
   122  H    0.123017
   123  H    0.101386
   124  H    0.129889
   125  H    0.125723
   126  H    0.114172
   127  H    0.118613
   128  H    0.133945
   129  H    0.126182
   130  H    0.136145
   131  H    0.134922
   132  H    0.068267
   133  H    0.181756
   134  H    0.070463
   135  H    0.170732
   136  H    0.179374
   137  H    0.185316
   138  H    0.108584
 Sum of Mulliken charges =   0.00000

 Dipole moment (field-independent basis, Debye):
    X=              0.9958    Y=             -3.2195    Z=             -1.1492  Tot=              3.5605
 Quadrupole moment (field-independent basis, Debye-Ang):
   XX=           -351.6016   YY=           -350.7979   ZZ=           -344.2350
   XY=              0.5911   XZ=              4.1853   YZ=              2.2660

 Normal termination of Gaussian 16 at Mon Oct 18 11:08:20 2021.
