 Gaussian 16, Revision C.01,
 Gaussian 16:  ES64L-G16RevC.01  3-Jul-2019

 ----------------------------------------------------------------------
 #P MP2/aug-cc-pVDZ SP SCF=(YQC,MaxCycle=900) int=(Grid=Superfinegrid)
 SCRF=(PCM,Solvent=Dichloromethane)
 ----------------------------------------------------------------------

 -----------------------------
 _2_alde1_3_ami2_1_opt_dcm_mp2
 -----------------------------
 Symbolic Z-matrix:
 Charge =  0 Multiplicity = 1

                         Standard orientation:
 ---------------------------------------------------------------------
 Center     Atomic      Atomic             Coordinates (Angstroms)
 Number     Number       Type             X           Y           Z
 ---------------------------------------------------------------------
      1          6           0        4.565329    1.026182   -0.050054
      2          6           0        3.990631    2.362203    0.092482
      3          6           0        5.915128    0.883239   -0.359853
      4          6           0        6.476311   -0.383673   -0.500366
      5          1           0        6.537135    1.758635   -0.492314
      6          6           0        5.677098   -1.513775   -0.332793
      7          6           0        4.327046   -1.385635   -0.023428
      8          1           0        6.134195   -2.486577   -0.448608
      9          6           0        3.778344   -0.112080    0.115770
     10          6           0        3.504248   -2.581558    0.145613
     11          1           0        2.730995   -0.005164    0.347488
     12          6           0        7.898657   -0.537265   -0.824256
     13          1           0        4.025418   -3.527257   -0.057592
     14          1           0        4.685188    3.185498   -0.128441
     15          6           0       -1.832403    1.646987   -0.484180
     16          6           0       -0.978796    2.826444   -0.495509
     17          6           0       -1.263213    0.378045   -0.497126
     18          6           0       -2.068177   -0.755394   -0.458894
     19          1           0       -0.191291    0.272858   -0.529108
     20          6           0       -3.453680   -0.609708   -0.411149
     21          6           0       -4.031347    0.651322   -0.411463
     22          1           0       -4.098579   -1.476211   -0.387396
     23          6           0       -3.220392    1.775654   -0.441856
     24          6           0       -5.528187    0.794395   -0.321096
     25          1           0       -3.672112    2.757762   -0.428474
     26          6           0       -1.461676   -2.079199   -0.445883
     27          1           0       -2.154152   -2.931117   -0.333123
     28          6           0        1.111433    3.865156   -0.577773
     29          6           0        2.124162    3.765146    0.597315
     30          7           0        0.270784    2.722128   -0.612651
     31          1           0        1.681989    3.881407   -1.512720
     32          7           0        2.794121    2.507924    0.448533
     33          6           0        1.358203    3.685572    1.923583
     34          8           0        8.474905   -1.586222   -0.964090
     35          6           0        1.401831   -3.583849    0.674529
     36          6           0        0.386718   -3.506480   -0.500144
     37          7           0        2.302981   -2.483580    0.502910
     38          6           0        2.031606   -4.983791    0.682216
     39          7           0       -0.215480   -2.222684   -0.557049
     40          1           0       -0.347107   -4.325497   -0.388795
     41          6           0       -7.372279    0.484720    0.994575
     42          6           0       -7.493729   -0.535756   -0.170562
     43          7           0       -5.968919    0.858303    1.063873
     44          1           0       -7.719826    0.086325    1.945828
     45          7           0       -6.224033   -0.364224   -0.882214
     46          1           0       -1.490560    3.798997   -0.394396
     47          1           0       -5.452869    0.162754    1.596365
     48          1           0       -5.839439    1.741541   -0.803139
     49          1           0       -6.336171   -0.304106   -1.885412
     50          1           0        8.436314    0.426486   -0.937264
     51          1           0        0.551279    4.813072   -0.481878
     52          6           0        3.014029    5.015969    0.580113
     53          6           0        0.668726   -3.331968    1.997860
     54          1           0        0.941811   -3.649897   -1.433439
     55          1           0       -7.946273    1.387035    0.760526
     56          6           0       -7.564184   -1.972786    0.357401
     57          1           0        1.268367   -5.725855    0.901662
     58          1           0        2.801182   -5.044229    1.449308
     59          1           0        2.472903   -5.224036   -0.282902
     60          1           0        3.491886    5.148124   -0.388641
     61          1           0        3.781906    4.940180    1.347762
     62          1           0        2.409836    5.896025    0.784184
     63          1           0       -7.520591   -2.674949   -0.471701
     64          1           0       -8.489129   -2.132861    0.905830
     65          1           0       -6.722316   -2.170472    1.016552
     66          6           0       -8.707083   -0.238331   -1.051852
     67          1           0       -9.620881   -0.289862   -0.464451
     68          1           0       -8.774083   -0.964487   -1.859911
     69          1           0       -8.629391    0.758316   -1.483742
     70          1           0        2.058867    3.666346    2.754954
     71          1           0        0.769119    2.773188    1.942382
     72          1           0        0.699150    4.543069    2.036267
     73          1           0       -0.144570   -4.042631    2.125390
     74          1           0        0.268933   -2.321987    1.998747
     75          1           0        1.361312   -3.434424    2.829784
 ---------------------------------------------------------------------

 SCF Done:  E(RHF) =  -1559.87233547     a.u. after    7 cycles
 SCF Done:  E(RHF) =  -1559.87236558     A.U. after   17 cycles
 E2 =    -0.5423621426D+01 EUMP2 =    -0.15652959870071D+04

 The electronic state is 1-A.
 Alpha  occ. eigenvalues --  -20.57331 -15.55704 -15.55695 -15.55685 -15.55652
 Alpha  occ. eigenvalues --  -15.55581 -15.54232 -11.34872 -11.29102 -11.28498
 Alpha  occ. eigenvalues --  -11.28418 -11.28261 -11.28211 -11.26772 -11.26750
 Alpha  occ. eigenvalues --  -11.26737 -11.26272 -11.26071 -11.25608 -11.25499
 Alpha  occ. eigenvalues --  -11.25440 -11.25408 -11.25400 -11.25352 -11.24938
 Alpha  occ. eigenvalues --  -11.24669 -11.24458 -11.24406 -11.24313 -11.24155
 Alpha  occ. eigenvalues --  -11.23689 -11.21811 -11.21754 -11.21716 -11.21111
 Alpha  occ. eigenvalues --  -11.21107 -11.21107  -1.41045  -1.28188  -1.26208
 Alpha  occ. eigenvalues --   -1.25973  -1.23904  -1.23395  -1.18142  -1.16614
 Alpha  occ. eigenvalues --   -1.14938  -1.09416  -1.08489  -1.06982  -1.05531
 Alpha  occ. eigenvalues --   -1.04349  -1.03230  -1.02237  -0.94896  -0.94715
 Alpha  occ. eigenvalues --   -0.94003  -0.93932  -0.93630  -0.92071  -0.90987
 Alpha  occ. eigenvalues --   -0.89606  -0.88188  -0.87073  -0.85380  -0.83694
 Alpha  occ. eigenvalues --   -0.80277  -0.79102  -0.76610  -0.76299  -0.75920
 Alpha  occ. eigenvalues --   -0.74639  -0.73117  -0.70497  -0.70027  -0.69678
 Alpha  occ. eigenvalues --   -0.68191  -0.67384  -0.66942  -0.66373  -0.65819
 Alpha  occ. eigenvalues --   -0.65453  -0.64505  -0.64068  -0.63244  -0.61922
 Alpha  occ. eigenvalues --   -0.61467  -0.61255  -0.61180  -0.60444  -0.60358
 Alpha  occ. eigenvalues --   -0.60006  -0.59605  -0.58246  -0.58010  -0.57089
 Alpha  occ. eigenvalues --   -0.56886  -0.56359  -0.55188  -0.54787  -0.54706
 Alpha  occ. eigenvalues --   -0.54327  -0.53744  -0.53504  -0.53184  -0.52917
 Alpha  occ. eigenvalues --   -0.52903  -0.52471  -0.51659  -0.51547  -0.51027
 Alpha  occ. eigenvalues --   -0.50980  -0.50814  -0.50322  -0.49654  -0.49464
 Alpha  occ. eigenvalues --   -0.47900  -0.47101  -0.46944  -0.46811  -0.46594
 Alpha  occ. eigenvalues --   -0.43561  -0.43472  -0.43121  -0.41318  -0.41277
 Alpha  occ. eigenvalues --   -0.40449  -0.38803  -0.38212  -0.38148  -0.36683
 Alpha  occ. eigenvalues --   -0.33931  -0.33204  -0.32265  -0.31865
 Alpha virt. eigenvalues --    0.03351   0.03521   0.03690   0.04143   0.04239
 Alpha virt. eigenvalues --    0.04443   0.04827   0.04871   0.04966   0.05206
 Alpha virt. eigenvalues --    0.05277   0.05441   0.05986   0.06050   0.06377

 Mulliken charges:
               1
     1  C    0.863936
     2  C   -0.017497
     3  C    0.647005
     4  C    0.057760
     5  H   -0.686978
     6  C   -0.034269
     7  C    1.019096
     8  H   -0.748203
     9  C    0.206406
    10  C    0.019096
    11  H   -0.880082
    12  C    1.294844
    13  H   -0.711694
    14  H   -0.735001
    15  C    0.729929
    16  C    0.517747
    17  C   -0.058519
    18  C    0.952956
    19  H   -1.072321
    20  C    0.586183
    21  C    0.447378
    22  H   -0.818332
    23  C    0.457577
    24  C    0.516424
    25  H   -0.765136
    26  C    0.406981
    27  H   -0.602359
    28  C    1.604373
    29  C   -3.874904
    30  N   -0.317529
    31  H   -0.281157
    32  N    0.480334
    33  C    1.705483
    34  O   -0.853585
    35  C   -3.862873
    36  C    1.517884
    37  N    0.461594
    38  C    1.532812
    39  N   -0.310658
    40  H   -0.118760
    41  C    1.376046
    42  C   -2.280927
    43  N   -0.622481
    44  H   -0.199967
    45  N   -0.343521
    46  H   -0.608381
    47  H    0.096835
    48  H   -0.288595
    49  H   -0.038124
    50  H   -0.312119
    51  H   -0.110617
    52  C    1.520586
    53  C    1.679381
    54  H   -0.281145
    55  H   -0.289118
    56  C    1.118008
    57  H   -0.187801
    58  H    0.084790
    59  H    0.046479
    60  H    0.046873
    61  H    0.084886
    62  H   -0.191024
    63  H   -0.077401
    64  H   -0.014774
    65  H   -0.072388
    66  C    0.990044
    67  H   -0.032287
    68  H   -0.015077
    69  H   -0.032539
    70  H   -0.148641
    71  H   -0.036484
    72  H    0.023005
    73  H    0.027695
    74  H   -0.033939
    75  H   -0.153217
 Sum of Mulliken charges =   0.00000

 Dipole moment (field-independent basis, Debye):
    X=             -5.7348    Y=              2.4908    Z=             -0.2768  Tot=              6.2585
 Quadrupole moment (field-independent basis, Debye-Ang):
   XX=           -217.8444   YY=           -192.7243   ZZ=           -228.8814
   XY=             30.9786   XZ=              9.2284   YZ=             -6.8855

 Normal termination of Gaussian 16 at Mon Nov 15 21:24:02 2021.
