 Gaussian 16, Revision C.01,
 Gaussian 16:  ES64L-G16RevC.01  3-Jul-2019

 ----------------------------------------------------------------------
 #P PBE1PBE/Def2TZVP SP SCF=(YQC,MaxCycle=900) int=(Grid=Superfinegrid)
  EmpiricalDispersion=GD3 SCRF=(PCM,Solvent=Dichloromethane)
 ----------------------------------------------------------------------

 -------------------------
 _2_alde1_4_ami4_2_opt_dcm
 -------------------------
 Symbolic Z-matrix:
 Charge =  0 Multiplicity = 1

                         Standard orientation:
 ---------------------------------------------------------------------
 Center     Atomic      Atomic             Coordinates (Angstroms)
 Number     Number       Type             X           Y           Z
 ---------------------------------------------------------------------
      1          6           0        1.835827    2.034753    0.314493
      2          6           0        1.469435    3.399659   -0.028876
      3          6           0        2.686607    1.286280   -0.497701
      4          6           0        2.947952   -0.048215   -0.206480
      5          1           0        3.129514    1.765779   -1.357393
      6          6           0        2.315611   -0.648269    0.883759
      7          6           0        1.467349    0.086467    1.703190
      8          1           0        2.502444   -1.694292    1.073372
      9          6           0        1.254802    1.436343    1.426444
     10          6           0        0.733969   -0.560413    2.782965
     11          1           0        0.600648    1.993141    2.078695
     12          6           0        3.856963   -0.812213   -1.048796
     13          1           0        0.720419   -1.661063    2.754746
     14          1           0        0.869919    3.929118    0.726162
     15          1           0        4.286244   -0.269054   -1.905245
     16          6           0       -1.931724    1.855071   -1.258369
     17          6           0       -1.259167    2.888185   -2.033395
     18          6           0       -1.954845    1.926772    0.132138
     19          6           0       -2.469811    0.880233    0.891503
     20          1           0       -1.531894    2.800079    0.603247
     21          6           0       -3.022738   -0.223115    0.247324
     22          6           0       -3.051861   -0.287954   -1.143592
     23          1           0       -3.427789   -1.035875    0.827433
     24          6           0       -2.482514    0.743048   -1.888940
     25          6           0       -3.647335   -1.430766   -1.823952
     26          1           0       -2.471940    0.680304   -2.968844
     27          6           0       -2.331744    0.927923    2.339232
     28          1           0       -3.600983   -1.412083   -2.924739
     29          1           0       -1.985683    1.890176    2.746214
     30          6           0       -0.122559    4.909774   -2.276174
     31          6           0        1.161448    5.185118   -1.459729
     32          7           0       -0.927371    3.996210   -1.531617
     33          7           0        1.757935    3.924717   -1.140493
     34          6           0        5.058741   -2.727844   -1.630615
     35          6           0        6.287359   -3.129720   -0.780888
     36          7           0        4.132315   -2.020004   -0.810428
     37          7           0        5.984140   -3.955455    0.365134
     38          6           0       -0.727707   -0.568972    4.599929
     39          6           0       -2.150656    0.018278    4.454090
     40          7           0        0.117935    0.098486    3.663686
     41          7           0       -2.525729   -0.077152    3.077392
     42          6           0       -4.021856   -4.770114   -1.449738
     43          6           0       -4.745683   -3.490100   -1.883404
     44          7           0       -2.676743   -4.776127   -2.001909
     45          7           0       -4.188700   -2.375161   -1.188486
     46          1           0       -1.024159    2.622924   -3.076622
     47          1           0        5.326444   -3.466674    0.963930
     48          1           0        5.539405   -4.817986    0.067126
     49          1           0       -2.161837   -3.974857   -1.649082
     50          1           0       -2.181423   -5.612653   -1.713203
     51          1           0       -2.134533    1.059507    4.810791
     52          1           0       -2.845302   -0.572818    5.053907
     53          1           0       -0.756915   -1.658325    4.439775
     54          1           0       -0.368172   -0.357996    5.610818
     55          1           0        6.774502   -2.220372   -0.417902
     56          1           0        6.991961   -3.668524   -1.420241
     57          1           0        5.392665   -2.143645   -2.504807
     58          1           0        4.560634   -3.639671   -1.978209
     59          1           0        0.884333    5.754003   -0.559522
     60          1           0        1.857351    5.764075   -2.069983
     61          1           0        0.145824    4.521315   -3.271583
     62          1           0       -0.669442    5.850097   -2.387368
     63          1           0       -4.553531   -5.635612   -1.854098
     64          1           0       -4.046917   -4.823140   -0.349952
     65          1           0       -5.796503   -3.566829   -1.588581
     66          1           0       -4.676926   -3.388904   -2.978290
 ---------------------------------------------------------------------

 SCF Done:  E(RPBE1PBE) =  -1446.83161001     a.u. after    6 cycles
 SCF Done:  E(RPBE1PBE) =  -1446.83163029     A.U. after    9 cycles

 The electronic state is 1-A.
 Alpha  occ. eigenvalues --  -14.38249 -14.38210 -14.38161 -14.38130 -14.37899
 Alpha  occ. eigenvalues --  -14.37844 -14.36049 -14.35827 -10.27088 -10.27000
 Alpha  occ. eigenvalues --  -10.26896 -10.26894 -10.26733 -10.26661 -10.25220
 Alpha  occ. eigenvalues --  -10.25155 -10.24933 -10.24874 -10.24670 -10.24646
 Alpha  occ. eigenvalues --  -10.24645 -10.24633 -10.24582 -10.24557 -10.24529
 Alpha  occ. eigenvalues --  -10.24400 -10.24348 -10.24307 -10.24244 -10.24159
 Alpha  occ. eigenvalues --  -10.24147 -10.24143 -10.24136 -10.23793  -0.97956
 Alpha  occ. eigenvalues --   -0.97785  -0.96751  -0.96658  -0.95332  -0.94973
 Alpha  occ. eigenvalues --   -0.91065  -0.90867  -0.90144  -0.89697  -0.82631
 Alpha  occ. eigenvalues --   -0.81974  -0.81174  -0.80675  -0.77557  -0.76058
 Alpha  occ. eigenvalues --   -0.75105  -0.74756  -0.69973  -0.69861  -0.67908
 Alpha  occ. eigenvalues --   -0.67430  -0.66579  -0.64703  -0.63190  -0.62698
 Alpha  occ. eigenvalues --   -0.61425  -0.59911  -0.57935  -0.56601  -0.56342
 Alpha  occ. eigenvalues --   -0.55531  -0.54348  -0.53603  -0.52808  -0.52380
 Alpha  occ. eigenvalues --   -0.51633  -0.51320  -0.50700  -0.50454  -0.50228
 Alpha  occ. eigenvalues --   -0.49523  -0.49061  -0.48630  -0.48284  -0.47377
 Alpha  occ. eigenvalues --   -0.46835  -0.46569  -0.46209  -0.45479  -0.45160
 Alpha  occ. eigenvalues --   -0.44990  -0.44438  -0.44182  -0.42752  -0.42466
 Alpha  occ. eigenvalues --   -0.41799  -0.41007  -0.40972  -0.40564  -0.40355
 Alpha  occ. eigenvalues --   -0.39936  -0.39593  -0.39163  -0.38345  -0.37627
 Alpha  occ. eigenvalues --   -0.37129  -0.36650  -0.36372  -0.35927  -0.35609
 Alpha  occ. eigenvalues --   -0.35481  -0.35281  -0.35045  -0.31333  -0.30840
 Alpha  occ. eigenvalues --   -0.27824  -0.27676  -0.27466  -0.27427  -0.27383
 Alpha  occ. eigenvalues --   -0.27190  -0.26846  -0.26306  -0.26054  -0.25963
 Alpha  occ. eigenvalues --   -0.25431  -0.24885
 Alpha virt. eigenvalues --   -0.07168  -0.06323  -0.05806  -0.05583  -0.02830
 Alpha virt. eigenvalues --   -0.01603   0.04508   0.04879   0.05051   0.05446
 Alpha virt. eigenvalues --    0.05570   0.05940   0.06227   0.06749   0.06877

 Mulliken charges:
               1
     1  C    0.364926
     2  C   -0.163277
     3  C   -0.378592
     4  C    0.361394
     5  H    0.123276
     6  C   -0.360382
     7  C    0.318518
     8  H    0.131062
     9  C   -0.298619
    10  C   -0.152328
    11  H    0.136924
    12  C   -0.166212
    13  H    0.089019
    14  H    0.097670
    15  H    0.088508
    16  C    0.283212
    17  C   -0.151019
    18  C   -0.294139
    19  C    0.403150
    20  H    0.136411
    21  C   -0.400698
    22  C    0.373193
    23  H    0.113953
    24  C   -0.342510
    25  C   -0.172168
    26  H    0.135920
    27  C   -0.171679
    28  H    0.090625
    29  H    0.096935
    30  C   -0.092338
    31  C   -0.074362
    32  N   -0.200227
    33  N   -0.205286
    34  C   -0.117938
    35  C   -0.086338
    36  N   -0.191587
    37  N   -0.550409
    38  C   -0.092790
    39  C   -0.072707
    40  N   -0.201844
    41  N   -0.199706
    42  C   -0.101257
    43  C   -0.060507
    44  N   -0.567852
    45  N   -0.201296
    46  H    0.087754
    47  H    0.235109
    48  H    0.228651
    49  H    0.237158
    50  H    0.235436
    51  H    0.090869
    52  H    0.125394
    53  H    0.085725
    54  H    0.127799
    55  H    0.112476
    56  H    0.117176
    57  H    0.081009
    58  H    0.122404
    59  H    0.092035
    60  H    0.125324
    61  H    0.084989
    62  H    0.127918
    63  H    0.110832
    64  H    0.099080
    65  H    0.124515
    66  H    0.071721
 Sum of Mulliken charges =   0.00000

 Dipole moment (field-independent basis, Debye):
    X=             -0.3894    Y=              0.7314    Z=             -2.1612  Tot=              2.3146
 Quadrupole moment (field-independent basis, Debye-Ang):
   XX=           -220.5584   YY=           -186.0571   ZZ=           -185.9987
   XY=              5.3138   XZ=             -8.9389   YZ=             -3.3627

 Normal termination of Gaussian 16 at Mon Oct 18 11:51:29 2021.
