 Gaussian 16, Revision C.01,
 Gaussian 16:  ES64L-G16RevC.01  3-Jul-2019

 ----------------------------------------------------------------------
 #P MP2/aug-cc-pVDZ SP SCF=(YQC,MaxCycle=900) int=(Grid=Superfinegrid)
 SCRF=(PCM,Solvent=Chloroform)
 ----------------------------------------------------------------------

 -----------------------------
 _2_alde1_3_ami2_2_opt_cfm_mp2
 -----------------------------
 Symbolic Z-matrix:
 Charge =  0 Multiplicity = 1

                         Standard orientation:
 ---------------------------------------------------------------------
 Center     Atomic      Atomic             Coordinates (Angstroms)
 Number     Number       Type             X           Y           Z
 ---------------------------------------------------------------------
      1          6           0        3.231124    1.864318    0.232485
      2          6           0        2.544822    3.148296    0.369751
      3          6           0        4.524160    1.828132   -0.274926
      4          6           0        5.182629    0.610621   -0.452097
      5          1           0        5.040897    2.737375   -0.548189
      6          6           0        4.543056   -0.574009   -0.108008
      7          6           0        3.251446   -0.554065    0.418739
      8          1           0        5.030550   -1.528815   -0.234060
      9          6           0        2.602593    0.666521    0.582841
     10          6           0        2.600405   -1.810301    0.792077
     11          1           0        1.598463    0.714168    0.978034
     12          6           0        6.547064    0.593245   -0.998163
     13          1           0        1.655805   -1.705105    1.338113
     14          1           0        3.176169    4.028209    0.189171
     15          6           0       -0.998421    0.747095   -1.025324
     16          6           0       -0.552091    2.125497   -1.146916
     17          6           0       -0.095170   -0.268164   -1.332024
     18          6           0       -0.398383   -1.594359   -1.044305
     19          1           0        0.876647   -0.017462   -1.735700
     20          6           0       -1.649414   -1.911646   -0.520909
     21          6           0       -2.587443   -0.912510   -0.274457
     22          1           0       -1.869904   -2.946247   -0.305533
     23          6           0       -2.244956    0.419436   -0.503902
     24          6           0       -3.901068   -1.264734    0.245743
     25          1           0       -2.946597    1.201213   -0.264379
     26          6           0        0.641513   -2.603365   -1.184411
     27          1           0        1.494820   -2.337068   -1.827008
     28          6           0       -0.448389    4.331736   -0.480615
     29          6           0        0.514964    4.370356    0.745480
     30          7           0       -1.105727    3.066641   -0.515663
     31          1           0        0.149601    4.520133   -1.387540
     32          7           0        1.318855    3.186136    0.648275
     33          6           0       -0.302534    4.222654    2.033609
     34          8           0        7.175539    1.565696   -1.328900
     35          6           0        2.573231   -4.196673    0.751995
     36          6           0        1.713777   -4.547731   -0.505543
     37          7           0        3.146050   -2.908036    0.491424
     38          6           0        3.744660   -5.179930    0.837426
     39          7           0        0.584661   -3.686514   -0.536880
     40          1           0        1.363808   -5.576756   -0.405407
     41          6           0       -6.070699   -0.761794    0.945676
     42          6           0       -7.155021   -0.311860   -0.079679
     43          7           0       -4.780568   -0.390898    0.476513
     44          1           0       -6.164886   -1.844397    1.135889
     45          7           0       -7.052078    1.100799   -0.396921
     46          6           0       -8.538776   -0.574394    0.516176
     47          1           0        0.354052    2.275471   -1.755149
     48          1           0       -4.075271   -2.338011    0.422754
     49          1           0       -6.125114    1.298263   -0.758874
     50          1           0        6.975864   -0.424434   -1.088560
     51          1           0       -1.198287    5.116119   -0.363448
     52          6           0        1.269886    5.703487    0.740283
     53          6           0        1.705238   -4.290235    2.011002
     54          1           0        2.356888   -4.450348   -1.393277
     55          1           0       -6.244081   -0.220755    1.882463
     56          6           0       -6.984909   -1.100764   -1.379543
     57          1           0        3.384352   -6.203394    0.895150
     58          1           0        4.337381   -4.964184    1.723034
     59          1           0        4.381191   -5.074553   -0.036713
     60          1           0        0.563961    6.520324    0.862647
     61          1           0        1.804510    5.853122   -0.195920
     62          1           0        1.981532    5.734489    1.563355
     63          1           0       -7.127648   -2.164360   -1.205303
     64          1           0       -5.989378   -0.942278   -1.788489
     65          1           0       -7.715720   -0.758509   -2.106600
     66          1           0       -7.177523    1.660027    0.440287
     67          1           0        1.458731   -5.330452    2.205296
     68          1           0        0.777959   -3.738711    1.882800
     69          1           0        2.248756   -3.891803    2.865832
     70          1           0       -8.676894   -1.633385    0.717780
     71          1           0       -9.299743   -0.245281   -0.185716
     72          1           0       -8.666818   -0.023712    1.445764
     73          1           0        0.361258    4.206331    2.895036
     74          1           0       -0.860298    3.291865    1.995860
     75          1           0       -0.997449    5.051284    2.135799
 ---------------------------------------------------------------------

 SCF Done:  E(RHF) =  -1559.85678189     a.u. after    7 cycles
 SCF Done:  E(RHF) =  -1559.85682428     A.U. after   21 cycles
 E2 =    -0.5438118819D+01 EUMP2 =    -0.15652949430997D+04

 The electronic state is 1-A.
 Alpha  occ. eigenvalues --  -20.57520 -15.56288 -15.56268 -15.56231 -15.56146
 Alpha  occ. eigenvalues --  -15.55607 -15.53820 -11.34999 -11.29250 -11.29141
 Alpha  occ. eigenvalues --  -11.29115 -11.28783 -11.28457 -11.27102 -11.27072
 Alpha  occ. eigenvalues --  -11.26753 -11.26658 -11.26596 -11.26099 -11.25981
 Alpha  occ. eigenvalues --  -11.25955 -11.25874 -11.25838 -11.25733 -11.25540
 Alpha  occ. eigenvalues --  -11.25494 -11.25376 -11.25302 -11.25227 -11.25012
 Alpha  occ. eigenvalues --  -11.24993 -11.22053 -11.21587 -11.21527 -11.21307
 Alpha  occ. eigenvalues --  -11.21127 -11.20980  -1.41225  -1.27207  -1.26743
 Alpha  occ. eigenvalues --   -1.25393  -1.23934  -1.23386  -1.19157  -1.18526
 Alpha  occ. eigenvalues --   -1.17103  -1.09912  -1.08639  -1.06565  -1.05871
 Alpha  occ. eigenvalues --   -1.05033  -1.03260  -1.02378  -0.95458  -0.94897
 Alpha  occ. eigenvalues --   -0.94427  -0.94135  -0.94073  -0.93504  -0.90908
 Alpha  occ. eigenvalues --   -0.90461  -0.88741  -0.88059  -0.85926  -0.82362
 Alpha  occ. eigenvalues --   -0.81154  -0.78980  -0.76935  -0.75615  -0.74863
 Alpha  occ. eigenvalues --   -0.73963  -0.72961  -0.72020  -0.70543  -0.69199
 Alpha  occ. eigenvalues --   -0.68920  -0.67226  -0.66913  -0.65946  -0.65821
 Alpha  occ. eigenvalues --   -0.65533  -0.65064  -0.64753  -0.63577  -0.63155
 Alpha  occ. eigenvalues --   -0.62894  -0.62709  -0.62275  -0.62007  -0.61290
 Alpha  occ. eigenvalues --   -0.61031  -0.59765  -0.59457  -0.57280  -0.56635
 Alpha  occ. eigenvalues --   -0.56343  -0.56232  -0.55402  -0.55165  -0.54776
 Alpha  occ. eigenvalues --   -0.54135  -0.53863  -0.53740  -0.53509  -0.53104
 Alpha  occ. eigenvalues --   -0.52829  -0.52671  -0.52271  -0.52143  -0.51597
 Alpha  occ. eigenvalues --   -0.51157  -0.50679  -0.49918  -0.49848  -0.49129
 Alpha  occ. eigenvalues --   -0.48831  -0.48454  -0.46650  -0.46337  -0.45160
 Alpha  occ. eigenvalues --   -0.44057  -0.43743  -0.42940  -0.40934  -0.40780
 Alpha  occ. eigenvalues --   -0.40419  -0.40160  -0.39634  -0.38879  -0.37861
 Alpha  occ. eigenvalues --   -0.34879  -0.33351  -0.32646  -0.32118
 Alpha virt. eigenvalues --    0.03295   0.03586   0.03643   0.04083   0.04283
 Alpha virt. eigenvalues --    0.04488   0.04576   0.04757   0.04974   0.05038
 Alpha virt. eigenvalues --    0.05234   0.05625   0.05783   0.05987   0.06151

 Mulliken charges:
               1
     1  C    0.964391
     2  C   -0.103464
     3  C   -0.148662
     4  C    0.473435
     5  H   -0.757876
     6  C    0.550360
     7  C    1.273998
     8  H   -0.825524
     9  C    0.279056
    10  C    0.119512
    11  H   -1.078641
    12  C    1.163068
    13  H   -0.832639
    14  H   -0.748515
    15  C    1.002521
    16  C    0.657161
    17  C    0.392533
    18  C    0.881009
    19  H   -0.966953
    20  C    0.595181
    21  C    0.865370
    22  H   -0.892964
    23  C   -0.026333
    24  C    0.540710
    25  H   -0.991827
    26  C    0.879639
    27  H   -0.577249
    28  C    1.371228
    29  C   -3.200029
    30  N   -0.619763
    31  H   -0.142243
    32  N    0.427906
    33  C    1.399953
    34  O   -0.859005
    35  C   -3.427983
    36  C    1.413315
    37  N   -0.326358
    38  C    1.498509
    39  N   -0.654706
    40  H   -0.263276
    41  C    1.583854
    42  C   -3.598628
    43  N   -0.389341
    44  H   -0.142736
    45  N   -0.079406
    46  C    1.446968
    47  H   -0.635825
    48  H   -0.686421
    49  H    0.023090
    50  H   -0.303925
    51  H   -0.242562
    52  C    1.527315
    53  C    1.522581
    54  H   -0.143745
    55  H   -0.264696
    56  C    1.438563
    57  H   -0.056779
    58  H   -0.006095
    59  H   -0.017567
    60  H   -0.174398
    61  H    0.016610
    62  H    0.087618
    63  H   -0.003191
    64  H   -0.011756
    65  H   -0.038453
    66  H   -0.000538
    67  H   -0.109304
    68  H    0.045537
    69  H    0.028706
    70  H    0.007227
    71  H    0.039059
    72  H   -0.047394
    73  H   -0.090009
    74  H   -0.004850
    75  H   -0.024352
 Sum of Mulliken charges =   0.00000

 Dipole moment (field-independent basis, Debye):
    X=              0.5848    Y=             -2.2609    Z=              1.5546  Tot=              2.8054
 Quadrupole moment (field-independent basis, Debye-Ang):
   XX=           -270.5497   YY=           -206.7745   ZZ=           -226.9283
   XY=              0.2277   XZ=             -5.2951   YZ=              2.6946

 Normal termination of Gaussian 16 at Fri Oct 29 14:18:58 2021.
