 Gaussian 16, Revision C.01,
 Gaussian 16:  ES64L-G16RevC.01  3-Jul-2019

 ----------------------------------------------------------------------
 #P PBE1PBE/Def2TZVP SP SCF=(YQC,MaxCycle=900) int=(Grid=Superfinegrid)
  EmpiricalDispersion=GD3 SCRF=(PCM,Solvent=Dichloromethane)
 ----------------------------------------------------------------------

 -------------------------
 _2_alde1_4_ami3_1_opt_dcm
 -------------------------
 Symbolic Z-matrix:
 Charge =  0 Multiplicity = 1

                         Standard orientation:
 ---------------------------------------------------------------------
 Center     Atomic      Atomic             Coordinates (Angstroms)
 Number     Number       Type             X           Y           Z
 ---------------------------------------------------------------------
      1          6           0        1.850040    1.154403   -1.930407
      2          6           0        2.751299    2.146725   -1.368995
      3          6           0        0.663136    1.522196   -2.563079
      4          6           0       -0.233611    0.555370   -2.995045
      5          1           0        0.449819    2.571043   -2.699353
      6          6           0        0.035609   -0.784404   -2.757720
      7          6           0        1.218443   -1.169613   -2.128508
      8          1           0       -0.682049   -1.524949   -3.077385
      9          6           0        2.132742   -0.194276   -1.743991
     10          6           0        1.448200   -2.563211   -1.776955
     11          1           0        3.045528   -0.510249   -1.264189
     12          6           0       -1.518658    0.990203   -3.662143
     13          1           0        0.552673   -3.206017   -1.785907
     14          1           0        3.692414    1.744827   -0.963119
     15          6           0        1.218165    1.169815    2.128516
     16          6           0        1.447609    2.563473    1.776882
     17          6           0        2.132655    0.194691    1.743876
     18          6           0        1.850184   -1.154052    1.930306
     19          1           0        3.045388    0.510753    1.264128
     20          6           0        0.663391   -1.522173    2.563040
     21          6           0       -0.233471   -0.555514    2.994959
     22          1           0        0.450233   -2.571030    2.699318
     23          6           0        0.035433    0.784311    2.757775
     24          6           0       -1.518471   -0.990520    3.662203
     25          1           0       -0.682394    1.524741    3.077435
     26          6           0        2.751726   -2.146168    1.368902
     27          1           0        3.692633   -1.744113    0.962971
     28          6           0        2.702833    4.325049    0.912894
     29          6           0        3.322787    4.210093   -0.503218
     30          7           0        2.578429    2.997392    1.426078
     31          7           0        2.458033    3.371046   -1.274739
     32          6           0       -3.436822   -0.159419   -3.066633
     33          6           0       -3.650815    1.339618   -2.794138
     34          7           0       -2.354662   -0.161579   -4.040028
     35          7           0       -2.296201    1.868684   -2.755693
     36          6           0        2.703775   -4.324576   -0.912840
     37          6           0        3.323659   -4.209488    0.503195
     38          7           0        2.579050   -2.996913   -1.425968
     39          7           0        2.458696   -3.370590    1.274740
     40          6           0       -3.650524   -1.340334    2.794076
     41          6           0       -3.436824    0.158812    3.066760
     42          7           0       -2.295870   -1.869135    2.755732
     43          7           0       -2.354698    0.160946    4.040140
     44          1           0        0.551935    3.206086    1.785827
     45          1           0       -1.919490   -1.798167    1.813807
     46          1           0       -1.264889   -1.570151    4.561026
     47          1           0       -2.735229    0.025159    4.971285
     48          1           0       -1.919805    1.797709   -1.813737
     49          1           0       -2.735236   -0.025933   -4.971274
     50          1           0       -1.265154    1.569786   -4.561102
     51          6           0       -4.747827    0.819612    3.439606
     52          6           0       -4.538997    1.528838   -1.581858
     53          6           0        3.620899    5.178329    1.788138
     54          6           0        3.450905   -5.600709    1.115020
     55          1           0        1.717793    4.818654    0.822556
     56          6           0        3.449689    5.601373   -1.114935
     57          1           0        4.322740    3.755801   -0.383258
     58          6           0        4.336453    6.481321   -0.239307
     59          1           0        2.453540    6.036521   -1.208221
     60          1           0        3.873233    5.513739   -2.117354
     61          6           0        3.782982    6.568117    1.180603
     62          1           0        4.405839    7.481468   -0.671741
     63          1           0        5.343790    6.059350   -0.208542
     64          1           0        2.810942    7.066711    1.159338
     65          1           0        4.451860    7.164915    1.804279
     66          1           0        4.589850    4.683210    1.870719
     67          1           0        3.192718    5.249450    2.790519
     68          1           0       -4.140789    1.788277   -3.671693
     69          6           0       -5.878324    0.847485   -1.881872
     70          1           0       -4.692167    2.588745   -1.371848
     71          1           0       -4.068197    1.071333   -0.707325
     72          6           0       -5.712752   -0.626540   -2.264951
     73          1           0       -6.362902    1.378102   -2.704727
     74          1           0       -6.531701    0.920853   -1.010159
     75          6           0       -4.747782   -0.820520   -3.439523
     76          1           0       -6.689435   -1.041662   -2.521236
     77          1           0       -5.332683   -1.181375   -1.404344
     78          1           0       -5.154066   -0.354965   -4.341125
     79          1           0       -4.605588   -1.883724   -3.639532
     80          1           0       -3.040811   -0.627615   -2.152960
     81          1           0       -3.040840    0.627087    2.153088
     82          6           0       -5.712759    0.625646    2.264928
     83          1           0       -4.605803    1.882943    3.639599
     84          1           0       -5.154083    0.353996    4.341035
     85          6           0       -5.878145   -0.848415    1.881844
     86          1           0       -5.332740    1.180508    1.404369
     87          1           0       -6.689509    1.040640    2.521201
     88          6           0       -4.538714   -1.529630    1.581749
     89          1           0       -6.531438   -0.921879    1.010001
     90          1           0       -6.362662   -1.379119    2.704652
     91          1           0       -4.691707   -2.589441    1.371756
     92          1           0       -4.067959   -1.071933    0.707349
     93          1           0       -4.140513   -1.789075    3.671602
     94          1           0        4.323547   -3.755016    0.383256
     95          6           0        3.621971   -5.177582   -1.788134
     96          1           0        1.718755   -4.818318   -0.822523
     97          6           0        3.784352   -6.567369   -1.180640
     98          1           0        4.590843   -4.682231   -1.870659
     99          1           0        3.193852   -5.248764   -2.790492
    100          6           0        4.337735   -6.480500    0.239361
    101          1           0        4.453317   -7.164038   -1.804254
    102          1           0        2.812437   -7.066219   -1.159283
    103          1           0        5.345068   -6.058233    0.208576
    104          1           0        4.407416   -7.480648    0.671823
    105          1           0        2.454777   -6.036193    1.208203
    106          1           0        3.874392   -5.513097    2.117345
 ---------------------------------------------------------------------

 SCF Done:  E(RPBE1PBE) =  -2070.57703216     a.u. after    6 cycles
 SCF Done:  E(RPBE1PBE) =  -2070.57706510     A.U. after    8 cycles

 The electronic state is 1-A.
 Alpha  occ. eigenvalues --  -14.37594 -14.37593 -14.37350 -14.37350 -14.37148
 Alpha  occ. eigenvalues --  -14.37147 -14.37015 -14.37013 -10.27978 -10.27977
 Alpha  occ. eigenvalues --  -10.26496 -10.26496 -10.26214 -10.26213 -10.25047
 Alpha  occ. eigenvalues --  -10.25047 -10.24820 -10.24819 -10.24246 -10.24246
 Alpha  occ. eigenvalues --  -10.24183 -10.24183 -10.23894 -10.23894 -10.23876
 Alpha  occ. eigenvalues --  -10.23876 -10.23789 -10.23788 -10.23207 -10.23206
 Alpha  occ. eigenvalues --  -10.23098 -10.23098 -10.23062 -10.23062 -10.21799
 Alpha  occ. eigenvalues --  -10.21798 -10.21742 -10.21742 -10.21714 -10.21713
 Alpha  occ. eigenvalues --  -10.21682 -10.21681 -10.21508 -10.21508 -10.21319
 Alpha  occ. eigenvalues --  -10.21318 -10.21251 -10.21250 -10.21208 -10.21208
 Alpha  occ. eigenvalues --   -0.99288  -0.99284  -0.97749  -0.97632  -0.94958
 Alpha  occ. eigenvalues --   -0.94626  -0.90110  -0.89409  -0.88218  -0.88215
 Alpha  occ. eigenvalues --   -0.85732  -0.85663  -0.85283  -0.84917  -0.80608
 Alpha  occ. eigenvalues --   -0.80414  -0.80343  -0.80151  -0.76610  -0.76244
 Alpha  occ. eigenvalues --   -0.76171  -0.76153  -0.75993  -0.75005  -0.74342
 Alpha  occ. eigenvalues --   -0.74302  -0.68235  -0.67929  -0.67036  -0.66881
 Alpha  occ. eigenvalues --   -0.66400  -0.65539  -0.62936  -0.62860  -0.62539
 Alpha  occ. eigenvalues --   -0.62231  -0.62201  -0.61940  -0.61702  -0.61041
 Alpha  occ. eigenvalues --   -0.59338  -0.59064  -0.58449  -0.58249  -0.57466
 Alpha  occ. eigenvalues --   -0.57305  -0.55994  -0.55604  -0.53661  -0.53128
 Alpha  occ. eigenvalues --   -0.52585  -0.52476  -0.51471  -0.51173  -0.50955
 Alpha  occ. eigenvalues --   -0.50430  -0.49665  -0.49177  -0.48344  -0.48316
 Alpha  occ. eigenvalues --   -0.48113  -0.48025  -0.47769  -0.47474  -0.47158
 Alpha  occ. eigenvalues --   -0.47125  -0.46610  -0.45911  -0.45753  -0.45290
 Alpha  occ. eigenvalues --   -0.44637  -0.44636  -0.44487  -0.44220  -0.43850
 Alpha  occ. eigenvalues --   -0.43765  -0.43503  -0.43463  -0.41951  -0.41912
 Alpha  occ. eigenvalues --   -0.41546  -0.41384  -0.41251  -0.41042  -0.40725
 Alpha  occ. eigenvalues --   -0.40504  -0.40102  -0.39941  -0.39914  -0.39806
 Alpha  occ. eigenvalues --   -0.38186  -0.37730  -0.37596  -0.37481  -0.37012
 Alpha  occ. eigenvalues --   -0.36943  -0.36482  -0.36298  -0.36152  -0.36112
 Alpha  occ. eigenvalues --   -0.35994  -0.35849  -0.35676  -0.35576  -0.35230
 Alpha  occ. eigenvalues --   -0.35210  -0.34244  -0.34017  -0.33937  -0.33609
 Alpha  occ. eigenvalues --   -0.33436  -0.33315  -0.33203  -0.33118  -0.32500
 Alpha  occ. eigenvalues --   -0.32450  -0.32128  -0.31564  -0.30910  -0.30203
 Alpha  occ. eigenvalues --   -0.27530  -0.27340  -0.26869  -0.26852  -0.26669
 Alpha  occ. eigenvalues --   -0.26293  -0.25302  -0.25174  -0.25032  -0.24777
 Alpha  occ. eigenvalues --   -0.24448  -0.24445
 Alpha virt. eigenvalues --   -0.06216  -0.05581  -0.04187  -0.03647   0.01526
 Alpha virt. eigenvalues --    0.02026   0.02305   0.04152   0.04640   0.04691
 Alpha virt. eigenvalues --    0.04944   0.04956   0.05250   0.05251   0.05682

 Mulliken charges:
               1
     1  C    0.381947
     2  C   -0.180974
     3  C   -0.406780
     4  C    0.124208
     5  H    0.118561
     6  C   -0.324429
     7  C    0.301985
     8  H    0.144630
     9  C   -0.293058
    10  C   -0.176402
    11  H    0.129178
    12  C    0.078104
    13  H    0.084221
    14  H    0.098585
    15  C    0.302000
    16  C   -0.176418
    17  C   -0.293081
    18  C    0.382062
    19  H    0.129183
    20  C   -0.406938
    21  C    0.124328
    22  H    0.118560
    23  C   -0.324473
    24  C    0.078166
    25  H    0.144639
    26  C   -0.180988
    27  H    0.098610
    28  C    0.026079
    29  C    0.043412
    30  N   -0.198939
    31  N   -0.205623
    32  C   -0.077715
    33  C   -0.060935
    34  N   -0.292209
    35  N   -0.296344
    36  C    0.026088
    37  C    0.043396
    38  N   -0.198947
    39  N   -0.205657
    40  C   -0.061015
    41  C   -0.077716
    42  N   -0.296340
    43  N   -0.292167
    44  H    0.084234
    45  H    0.212464
    46  H    0.100670
    47  H    0.206306
    48  H    0.212474
    49  H    0.206325
    50  H    0.100673
    51  C   -0.141649
    52  C   -0.196828
    53  C   -0.194630
    54  C   -0.173285
    55  H    0.054795
    56  C   -0.173327
    57  H    0.060148
    58  C   -0.193954
    59  H    0.100484
    60  H    0.108428
    61  C   -0.181058
    62  H    0.112711
    63  H    0.094565
    64  H    0.094161
    65  H    0.113104
    66  H    0.103923
    67  H    0.112108
    68  H    0.065390
    69  C   -0.197112
    70  H    0.110851
    71  H    0.094574
    72  C   -0.214722
    73  H    0.106518
    74  H    0.121377
    75  C   -0.141708
    76  H    0.115084
    77  H    0.105916
    78  H    0.099591
    79  H    0.109283
    80  H    0.073347
    81  H    0.073337
    82  C   -0.214757
    83  H    0.109253
    84  H    0.099609
    85  C   -0.197130
    86  H    0.105934
    87  H    0.115087
    88  C   -0.196784
    89  H    0.121363
    90  H    0.106528
    91  H    0.110861
    92  H    0.094559
    93  H    0.065371
    94  H    0.060158
    95  C   -0.194625
    96  H    0.054787
    97  C   -0.181047
    98  H    0.103921
    99  H    0.112117
   100  C   -0.194011
   101  H    0.113122
   102  H    0.094150
   103  H    0.094536
   104  H    0.112728
   105  H    0.100445
   106  H    0.108457
 Sum of Mulliken charges =   0.00000

 Dipole moment (field-independent basis, Debye):
    X=             -5.2237    Y=              0.0000    Z=             -0.0005  Tot=              5.2237
 Quadrupole moment (field-independent basis, Debye-Ang):
   XX=           -267.7459   YY=           -292.7911   ZZ=           -297.8899
   XY=              0.0020   XZ=             -0.0011   YZ=              8.8968

 Normal termination of Gaussian 16 at Mon Oct 18 13:16:07 2021.
