 Gaussian 16, Revision C.01,
 Gaussian 16:  ES64L-G16RevC.01  3-Jul-2019

 ----------------------------------------------------------------------
 #P MP2/aug-cc-pVDZ SP SCF=(YQC,MaxCycle=900) int=(Grid=Superfinegrid)
 SCRF=(PCM,Solvent=Chloroform)
 ----------------------------------------------------------------------

 -----------------------------
 _2_alde1_4_ami1_1_opt_cfm_mp2
 -----------------------------
 Symbolic Z-matrix:
 Charge =  0 Multiplicity = 1

                         Standard orientation:
 ---------------------------------------------------------------------
 Center     Atomic      Atomic             Coordinates (Angstroms)
 Number     Number       Type             X           Y           Z
 ---------------------------------------------------------------------
      1          6           0       -2.761574    1.500322   -0.754176
      2          6           0       -3.510420    1.671039    0.480374
      3          6           0       -3.085670    0.486344   -1.657005
      4          6           0       -2.307849    0.272450   -2.780861
      5          1           0       -3.938590   -0.142318   -1.461375
      6          6           0       -1.186321    1.060918   -2.999031
      7          6           0       -0.832125    2.059353   -2.095406
      8          1           0       -0.575458    0.876547   -3.870162
      9          6           0       -1.646322    2.294237   -0.990495
     10          6           0        0.431669    2.764041   -2.243711
     11          1           0       -1.366418    3.080474   -0.307144
     12          6           0       -2.646496   -0.825211   -3.771058
     13          1           0        1.128251    2.329488   -2.979236
     14          1           0       -3.234690    2.549726    1.084296
     15          6           0       -0.526877   -0.242728    2.187390
     16          6           0       -1.912557   -0.543771    2.520567
     17          6           0       -0.155495    1.055750    1.855357
     18          6           0        1.135495    1.337455    1.423567
     19          1           0       -0.903229    1.830289    1.911944
     20          6           0        2.080223    0.312662    1.388781
     21          6           0        1.739415   -0.972504    1.781603
     22          1           0        3.087961    0.533382    1.074338
     23          6           0        0.431260   -1.253166    2.149752
     24          6           0        2.777948   -2.063115    1.764933
     25          1           0        0.156556   -2.262745    2.422397
     26          6           0        1.451303    2.687232    0.982333
     27          1           0        0.698777    3.448800    1.236284
     28          6           0       -4.101912    0.028655    3.101485
     29          6           0       -4.922116    0.982146    2.187452
     30          7           0       -2.723050    0.349954    2.881978
     31          1           0       -4.314742   -1.009627    2.793899
     32          6           0       -4.437373    0.171408    4.600562
     33          7           0       -4.372234    0.837470    0.871177
     34          1           0       -4.763853    2.006736    2.565250
     35          6           0       -6.430899    0.686587    2.150727
     36          1           0       -5.514879    0.019464    4.719558
     37          6           0       -4.058872    1.544472    5.149073
     38          6           0       -3.714324   -0.922280    5.387002
     39          1           0       -6.825295    0.765966    3.169258
     40          6           0       -6.728037   -0.705128    1.599179
     41          6           0       -7.115166    1.747222    1.287902
     42          1           0       -3.984809   -0.871546    6.439349
     43          1           0       -2.636621   -0.798425    5.301402
     44          1           0       -3.980421   -1.908961    5.012413
     45          1           0       -4.684702    2.324575    4.724106
     46          1           0       -3.020610    1.760483    4.912090
     47          1           0       -4.185510    1.561034    6.229532
     48          1           0       -6.739909    1.691047    0.268696
     49          1           0       -6.918011    2.745429    1.674030
     50          1           0       -8.191482    1.590644    1.273926
     51          1           0       -6.193477   -0.844982    0.663948
     52          1           0       -7.794980   -0.814726    1.417551
     53          1           0       -6.423617   -1.479772    2.298346
     54          6           0       -1.338019   -2.612951   -3.088890
     55          6           0       -2.807160   -2.865739   -2.622152
     56          7           0       -1.439483   -1.572792   -4.111844
     57          1           0       -0.898448   -3.510241   -3.531795
     58          6           0       -0.408800   -2.159847   -1.945764
     59          7           0       -3.593226   -1.770283   -3.192348
     60          1           0       -2.857466   -2.768178   -1.531151
     61          6           0       -3.400037   -4.233300   -3.009089
     62          1           0       -0.883546   -1.326183   -1.420341
     63          6           0        0.922451   -1.676971   -2.516723
     64          6           0       -0.149745   -3.289358   -0.952482
     65          1           0       -4.470713   -4.173615   -2.775026
     66          6           0       -2.799728   -5.362217   -2.176398
     67          6           0       -3.259559   -4.552431   -4.498872
     68          1           0        0.226778   -4.170594   -1.469176
     69          1           0       -1.054244   -3.565294   -0.417446
     70          1           0        0.602330   -2.978308   -0.231239
     71          1           0        1.500751   -2.519331   -2.891739
     72          1           0        1.492528   -1.173201   -1.740518
     73          1           0        0.751110   -0.984102   -3.333798
     74          1           0       -3.837818   -5.441236   -4.742085
     75          1           0       -2.222087   -4.746587   -4.762865
     76          1           0       -3.626612   -3.737924   -5.122112
     77          1           0       -2.949092   -5.177149   -1.115637
     78          1           0       -1.732990   -5.455273   -2.362060
     79          1           0       -3.275594   -6.307227   -2.429560
     80          6           0        2.057032    4.319285   -1.623118
     81          6           0        2.631921    4.308788   -0.178199
     82          7           0        0.741050    3.760166   -1.536177
     83          1           0        2.707104    3.692118   -2.257455
     84          6           0        1.985159    5.729388   -2.245530
     85          7           0        2.486443    2.969669    0.319404
     86          1           0        2.017108    5.007617    0.413191
     87          6           0        4.108165    4.728455   -0.077888
     88          1           0        2.987448    6.167521   -2.204165
     89          6           0        1.007346    6.638470   -1.506089
     90          6           0        1.579341    5.612213   -3.714909
     91          1           0        4.211372    5.738820   -0.487064
     92          6           0        5.025503    3.777059   -0.841177
     93          6           0        4.506383    4.766428    1.397758
     94          1           0        0.581081    5.187594   -3.797738
     95          1           0        2.273314    4.973858   -4.258533
     96          1           0        1.577181    6.593298   -4.184687
     97          1           0        0.885134    7.572954   -2.049536
     98          1           0        1.365618    6.873484   -0.507380
     99          1           0        0.040777    6.148481   -1.425510
    100          1           0        3.866083    5.449139    1.952981
    101          1           0        5.536915    5.097290    1.506056
    102          1           0        4.409635    3.773750    1.831113
    103          1           0        6.065837    3.994185   -0.608887
    104          1           0        4.891563    3.876606   -1.915280
    105          1           0        4.804202    2.753638   -0.552543
    106          6           0        5.099438   -2.424004    1.554946
    107          6           0        4.296176   -3.220560    0.486534
    108          7           0        4.094510   -1.559015    2.159917
    109          1           0        5.836910   -1.777730    1.057952
    110          6           0        5.881125   -3.332296    2.526562
    111          7           0        2.982221   -2.590966    0.429173
    112          1           0        4.137066   -4.240338    0.861632
    113          6           0        4.982801   -3.332048   -0.880074
    114          1           0        6.415577   -4.064507    1.909164
    115          6           0        4.982981   -4.091291    3.502345
    116          6           0        6.914217   -2.512928    3.299832
    117          1           0        6.003740   -3.684584   -0.689923
    118          6           0        5.063544   -2.003244   -1.632631
    119          6           0        4.255089   -4.368165   -1.735251
    120          1           0        7.479147   -3.152166    3.974803
    121          1           0        6.427855   -1.737778    3.888687
    122          1           0        7.611710   -2.032772    2.617106
    123          1           0        4.467820   -3.406519    4.173935
    124          1           0        5.584086   -4.764734    4.109588
    125          1           0        4.237472   -4.684138    2.977328
    126          1           0        4.308643   -5.353104   -1.277203
    127          1           0        4.699195   -4.424289   -2.726553
    128          1           0        3.208542   -4.090751   -1.830688
    129          1           0        5.759180   -2.095695   -2.463789
    130          1           0        5.411854   -1.199850   -0.987785
    131          1           0        4.093182   -1.729356   -2.040644
    132          1           0       -2.209509   -1.599401    2.409233
    133          1           0        4.195622   -1.466536    3.161613
    134          1           0        2.438145   -2.902568    2.402333
    135          1           0        3.023728   -1.803724   -0.211928
    136          1           0       -4.232728   -2.118261   -3.897134
    137          1           0       -1.545990   -2.000598   -5.026240
    138          1           0       -3.065557   -0.349679   -4.667384
 ---------------------------------------------------------------------

 SCF Done:  E(RHF) =  -2375.78709859     a.u. after    7 cycles
 SCF Done:  E(RHF) =  -2375.78715998     A.U. after   22 cycles
 E2 =    -0.8699763004D+01 EUMP2 =    -0.23844869229819D+04

 The electronic state is 1-A.
 Alpha  occ. eigenvalues --  -15.55275 -15.55069 -15.54779 -15.54652 -15.54554
 Alpha  occ. eigenvalues --  -15.54408 -15.54187 -15.54142 -11.28716 -11.28690
 Alpha  occ. eigenvalues --  -11.27999 -11.27859 -11.27594 -11.27532 -11.25133
 Alpha  occ. eigenvalues --  -11.25097 -11.24840 -11.24821 -11.24821 -11.24710
 Alpha  occ. eigenvalues --  -11.24617 -11.24604 -11.24497 -11.24310 -11.24201
 Alpha  occ. eigenvalues --  -11.24046 -11.24032 -11.24023 -11.23877 -11.23767
 Alpha  occ. eigenvalues --  -11.23744 -11.23658 -11.23400 -11.23020 -11.22935
 Alpha  occ. eigenvalues --  -11.22933 -11.22804 -11.22601 -11.22558 -11.22254
 Alpha  occ. eigenvalues --  -11.22220 -11.21746 -11.21529 -11.21424 -11.21413
 Alpha  occ. eigenvalues --  -11.21373 -11.21186 -11.21045 -11.21011 -11.20952
 Alpha  occ. eigenvalues --  -11.20699 -11.20687 -11.20668 -11.20665 -11.20440
 Alpha  occ. eigenvalues --  -11.20423 -11.19744 -11.19668  -1.27951  -1.27641
 Alpha  occ. eigenvalues --   -1.26145  -1.25959  -1.22839  -1.22416  -1.16828
 Alpha  occ. eigenvalues --   -1.15918  -1.14979  -1.14770  -1.10087  -1.09760
 Alpha  occ. eigenvalues --   -1.09120  -1.08551  -1.07131  -1.06542  -1.05852
 Alpha  occ. eigenvalues --   -1.05593  -1.04249  -1.04087  -1.03611  -1.03364
 Alpha  occ. eigenvalues --   -0.97555  -0.96648  -0.96103  -0.95869  -0.93354
 Alpha  occ. eigenvalues --   -0.93310  -0.92991  -0.92726  -0.92692  -0.92323
 Alpha  occ. eigenvalues --   -0.92304  -0.91643  -0.90270  -0.90014  -0.87809
 Alpha  occ. eigenvalues --   -0.87414  -0.86316  -0.85008  -0.84690  -0.84529
 Alpha  occ. eigenvalues --   -0.83483  -0.82321  -0.78918  -0.78676  -0.77690
 Alpha  occ. eigenvalues --   -0.77277  -0.76881  -0.75937  -0.75864  -0.75122
 Alpha  occ. eigenvalues --   -0.74878  -0.74172  -0.72953  -0.72484  -0.70357
 Alpha  occ. eigenvalues --   -0.69980  -0.69573  -0.68897  -0.67629  -0.67027
 Alpha  occ. eigenvalues --   -0.66376  -0.66063  -0.65377  -0.64827  -0.64298
 Alpha  occ. eigenvalues --   -0.64158  -0.63444  -0.63300  -0.63037  -0.62711
 Alpha  occ. eigenvalues --   -0.61911  -0.61391  -0.61089  -0.60838  -0.60666
 Alpha  occ. eigenvalues --   -0.60434  -0.60078  -0.59914  -0.59303  -0.59264
 Alpha  occ. eigenvalues --   -0.59159  -0.58483  -0.58282  -0.57764  -0.57721
 Alpha  occ. eigenvalues --   -0.57493  -0.57242  -0.57172  -0.56889  -0.56510
 Alpha  occ. eigenvalues --   -0.55975  -0.55894  -0.55467  -0.55114  -0.54952
 Alpha  occ. eigenvalues --   -0.54176  -0.53903  -0.53887  -0.53811  -0.53717
 Alpha  occ. eigenvalues --   -0.53496  -0.53349  -0.53090  -0.52762  -0.52601
 Alpha  occ. eigenvalues --   -0.52507  -0.52345  -0.51931  -0.51872  -0.51724
 Alpha  occ. eigenvalues --   -0.51546  -0.51294  -0.51121  -0.50882  -0.50549
 Alpha  occ. eigenvalues --   -0.50372  -0.49461  -0.49410  -0.48921  -0.48719
 Alpha  occ. eigenvalues --   -0.48403  -0.48076  -0.47699  -0.47627  -0.47379
 Alpha  occ. eigenvalues --   -0.47288  -0.46900  -0.46860  -0.46649  -0.46541
 Alpha  occ. eigenvalues --   -0.46447  -0.46413  -0.46205  -0.45741  -0.45551
 Alpha  occ. eigenvalues --   -0.45461  -0.45149  -0.44941  -0.44880  -0.44151
 Alpha  occ. eigenvalues --   -0.43852  -0.43754  -0.43565  -0.42259  -0.40694
 Alpha  occ. eigenvalues --   -0.39945  -0.39713  -0.39612  -0.38844  -0.38713
 Alpha  occ. eigenvalues --   -0.38437  -0.37778  -0.36613  -0.36240  -0.32964
 Alpha  occ. eigenvalues --   -0.31633  -0.31521  -0.31053
 Alpha virt. eigenvalues --    0.03032   0.03307   0.03392   0.03407   0.03913
 Alpha virt. eigenvalues --    0.03960   0.04051   0.04134   0.04283   0.04796
 Alpha virt. eigenvalues --    0.04841   0.04891   0.05123   0.05173   0.05355

 Mulliken charges:
               1
     1  C    2.011664
     2  C    0.309896
     3  C    0.336288
     4  C    0.676041
     5  H   -0.984745
     6  C    0.117046
     7  C    1.507503
     8  H   -0.875192
     9  C    0.130628
    10  C    0.365903
    11  H   -1.134919
    12  C    0.889912
    13  H   -1.047240
    14  H   -0.908863
    15  C    1.679623
    16  C    0.492295
    17  C    0.422448
    18  C    2.229674
    19  H   -1.235725
    20  C   -0.469182
    21  C    1.396601
    22  H   -1.253721
    23  C   -0.041433
    24  C    0.628164
    25  H   -1.042027
    26  C    0.371577
    27  H   -0.942487
    28  C   -0.162377
    29  C    0.091336
    30  N   -0.116665
    31  H   -0.269149
    32  C   -0.888359
    33  N   -0.442580
    34  H   -0.414271
    35  C   -1.031121
    36  H   -0.277958
    37  C    1.213907
    38  C    1.223282
    39  H   -0.302452
    40  C    1.201236
    41  C    1.123075
    42  H   -0.185998
    43  H    0.086063
    44  H   -0.095053
    45  H   -0.133487
    46  H   -0.058142
    47  H   -0.181882
    48  H   -0.014429
    49  H   -0.077381
    50  H   -0.154804
    51  H   -0.063893
    52  H   -0.163213
    53  H   -0.145404
    54  C    1.067681
    55  C   -0.260162
    56  N   -0.697526
    57  H   -0.700890
    58  C   -1.291377
    59  N   -0.638077
    60  H   -0.992587
    61  C   -0.847987
    62  H   -0.584632
    63  C    1.833414
    64  C    2.072854
    65  H   -0.214225
    66  C    1.316358
    67  C    1.446040
    68  H   -0.185899
    69  H   -0.123913
    70  H   -0.891050
    71  H   -0.251540
    72  H   -0.531138
    73  H   -0.276578
    74  H   -0.141008
    75  H   -0.017375
    76  H   -0.093139
    77  H   -0.048547
    78  H    0.046347
    79  H   -0.193452
    80  C   -0.338271
    81  C    0.243538
    82  N   -0.054892
    83  H   -0.285456
    84  C   -0.860032
    85  N   -0.254441
    86  H   -0.391454
    87  C   -0.953726
    88  H   -0.303465
    89  C    1.211208
    90  C    1.241900
    91  H   -0.303183
    92  C    1.159791
    93  C    1.166217
    94  H    0.074690
    95  H   -0.099895
    96  H   -0.188238
    97  H   -0.191575
    98  H   -0.122494
    99  H   -0.064275
   100  H   -0.079997
   101  H   -0.164373
   102  H   -0.050286
   103  H   -0.170891
   104  H   -0.140548
   105  H   -0.075906
   106  C    0.794630
   107  C    0.583691
   108  N   -0.820867
   109  H   -0.730652
   110  C   -1.003421
   111  N   -0.677722
   112  H   -0.866729
   113  C   -0.552712
   114  H   -0.352183
   115  C    1.230364
   116  C    1.012429
   117  H   -0.413396
   118  C    1.244809
   119  C    1.122086
   120  H   -0.099749
   121  H   -0.027719
   122  H   -0.076447
   123  H   -0.026555
   124  H   -0.201262
   125  H   -0.053787
   126  H   -0.093230
   127  H   -0.131727
   128  H   -0.263328
   129  H   -0.206727
   130  H   -0.075165
   131  H   -0.300926
   132  H   -1.057010
   133  H    0.021071
   134  H   -0.582224
   135  H    0.546270
   136  H    0.029162
   137  H    0.041839
   138  H   -0.208359
 Sum of Mulliken charges =   0.00000

 Dipole moment (field-independent basis, Debye):
    X=              1.2777    Y=             -4.1470    Z=             -1.4119  Tot=              4.5633
 Quadrupole moment (field-independent basis, Debye-Ang):
   XX=           -357.7508   YY=           -352.7581   ZZ=           -346.0153
   XY=              0.9523   XZ=              2.9876   YZ=              2.6661

 Normal termination of Gaussian 16 at Wed Nov 10 22:43:24 2021.
