 Gaussian 16, Revision C.01,
 Gaussian 16:  ES64L-G16RevC.01  3-Jul-2019

 ----------------------------------------------------------------------
 #P PBE1PBE/Def2TZVP SP SCF=(YQC,MaxCycle=900) int=(Grid=Superfinegrid)
  EmpiricalDispersion=GD3 SCRF=(PCM,Solvent=Dichloromethane)
 ----------------------------------------------------------------------

 -------------------------
 _2_alde1_4_ami4_1_opt_dcm
 -------------------------
 Symbolic Z-matrix:
 Charge =  0 Multiplicity = 1

                         Standard orientation:
 ---------------------------------------------------------------------
 Center     Atomic      Atomic             Coordinates (Angstroms)
 Number     Number       Type             X           Y           Z
 ---------------------------------------------------------------------
      1          6           0       -1.925425   -0.830059    0.491052
      2          6           0       -1.078629   -1.977950    0.793569
      3          6           0       -3.223104   -1.022914    0.010897
      4          6           0       -4.037959    0.059680   -0.270754
      5          1           0       -3.588960   -2.027961   -0.122761
      6          6           0       -3.553429    1.347885   -0.095273
      7          6           0       -2.255682    1.560032    0.365402
      8          1           0       -4.199109    2.184269   -0.318853
      9          6           0       -1.448029    0.463683    0.667373
     10          6           0       -1.742587    2.918240    0.483918
     11          1           0       -0.445637    0.646195    1.024748
     12          6           0       -5.446086   -0.155002   -0.786873
     13          1           0       -2.463295    3.726143    0.273586
     14          1           0       -0.144189   -1.757285    1.331691
     15          6           0        1.843630   -1.191982   -1.189749
     16          6           0        0.993055   -2.370133   -1.281904
     17          6           0        1.283351    0.059253   -1.419477
     18          6           0        2.017588    1.214825   -1.172638
     19          1           0        0.249687    0.135125   -1.729142
     20          6           0        3.346169    1.110973   -0.765222
     21          6           0        3.929173   -0.135659   -0.584684
     22          1           0        3.910533    2.012246   -0.588836
     23          6           0        3.172092   -1.283232   -0.777683
     24          6           0        5.365195   -0.245069   -0.157889
     25          1           0        3.602155   -2.257597   -0.610029
     26          6           0        1.326565    2.491454   -1.229219
     27          1           0        0.362438    2.476123   -1.762732
     28          6           0        0.310784   -4.479024   -0.589118
     29          6           0       -0.536139   -4.245849    0.687542
     30          7           0        1.273388   -3.430822   -0.656391
     31          7           0       -1.415319   -3.148346    0.456234
     32          6           0       -6.455716   -1.020464    1.085168
     33          6           0       -6.670195    0.525099    1.034457
     34          7           0       -5.989420   -1.396423   -0.243759
     35          7           0       -6.312376    0.928509   -0.320821
     36          6           0        0.011813    4.452677    0.771299
     37          6           0        0.853998    4.630904   -0.517154
     38          7           0       -0.536679    3.137099    0.777609
     39          7           0        1.743774    3.517755   -0.624872
     40          6           0        6.915102   -1.139863    1.288219
     41          6           0        7.040724    0.418009    1.272391
     42          7           0        5.645982   -1.439591    0.641015
     43          7           0        5.835031    0.903946    0.616964
     44          1           0        0.070033   -2.254090   -1.870648
     45          1           0        4.911048   -1.549837    1.335605
     46          1           0        6.009710   -0.306680   -1.050342
     47          1           0        5.128453    1.146213    1.307387
     48          1           0       -7.142816    0.974446   -0.904031
     49          1           0       -6.766793   -1.711086   -0.816354
     50          1           0       -5.420142   -0.186982   -1.881798
     51          1           0        7.904267    0.718945    0.673467
     52          1           0        7.145741    0.841467    2.270723
     53          1           0        6.952818   -1.554509    2.295130
     54          1           0        7.718081   -1.587472    0.696682
     55          1           0       -5.991339    1.020952    1.732293
     56          1           0       -7.692410    0.816343    1.274002
     57          1           0       -5.674048   -1.267485    1.807128
     58          1           0       -7.362804   -1.561757    1.351788
     59          1           0        0.154090   -4.077299    1.527884
     60          1           0       -1.145854   -5.132832    0.872642
     61          1           0       -0.368559   -4.503679   -1.454194
     62          1           0        0.839305   -5.429580   -0.495172
     63          1           0        1.437011    5.550797   -0.441318
     64          1           0        0.160343    4.697475   -1.372023
     65          1           0       -0.751733    5.247253    0.803198
     66          1           0        0.673761    4.534160    1.636535
 ---------------------------------------------------------------------

 SCF Done:  E(RPBE1PBE) =  -1446.84350443     a.u. after    7 cycles
 SCF Done:  E(RPBE1PBE) =  -1446.84351219     A.U. after    9 cycles

 The electronic state is 1-A.
 Alpha  occ. eigenvalues --  -14.37842 -14.37766 -14.37634 -14.37422 -14.37195
 Alpha  occ. eigenvalues --  -14.37104 -14.37054 -14.37049 -10.27996 -10.27829
 Alpha  occ. eigenvalues --  -10.26784 -10.26709 -10.26677 -10.26305 -10.25006
 Alpha  occ. eigenvalues --  -10.24962 -10.24939 -10.24890 -10.24401 -10.24153
 Alpha  occ. eigenvalues --  -10.24066 -10.23959 -10.23949 -10.23933 -10.23918
 Alpha  occ. eigenvalues --  -10.23912 -10.23898 -10.23722 -10.23605 -10.23309
 Alpha  occ. eigenvalues --  -10.23264 -10.23257 -10.23219 -10.22751  -0.99447
 Alpha  occ. eigenvalues --   -0.99246  -0.97732  -0.97474  -0.95059  -0.94710
 Alpha  occ. eigenvalues --   -0.90039  -0.89306  -0.87765  -0.87681  -0.82181
 Alpha  occ. eigenvalues --   -0.81630  -0.80558  -0.79964  -0.77335  -0.75310
 Alpha  occ. eigenvalues --   -0.74919  -0.74470  -0.69712  -0.69476  -0.67036
 Alpha  occ. eigenvalues --   -0.66569  -0.66239  -0.63701  -0.63145  -0.61826
 Alpha  occ. eigenvalues --   -0.61705  -0.61066  -0.59915  -0.57539  -0.55951
 Alpha  occ. eigenvalues --   -0.55692  -0.55191  -0.54412  -0.53440  -0.52390
 Alpha  occ. eigenvalues --   -0.51493  -0.51174  -0.50186  -0.50114  -0.49171
 Alpha  occ. eigenvalues --   -0.48727  -0.48141  -0.48049  -0.47337  -0.47227
 Alpha  occ. eigenvalues --   -0.46755  -0.46394  -0.45684  -0.45601  -0.45340
 Alpha  occ. eigenvalues --   -0.44820  -0.44360  -0.44003  -0.41729  -0.41320
 Alpha  occ. eigenvalues --   -0.40959  -0.40761  -0.40714  -0.40337  -0.39990
 Alpha  occ. eigenvalues --   -0.39538  -0.39318  -0.38760  -0.38105  -0.37096
 Alpha  occ. eigenvalues --   -0.36796  -0.36683  -0.35790  -0.35667  -0.35323
 Alpha  occ. eigenvalues --   -0.35123  -0.35016  -0.34538  -0.32743  -0.31347
 Alpha  occ. eigenvalues --   -0.27662  -0.27382  -0.27272  -0.26935  -0.26874
 Alpha  occ. eigenvalues --   -0.26517  -0.26473  -0.26250  -0.25579  -0.24989
 Alpha  occ. eigenvalues --   -0.24452  -0.24345
 Alpha virt. eigenvalues --   -0.06218  -0.05750  -0.04419  -0.03324   0.00651
 Alpha virt. eigenvalues --    0.01226   0.04231   0.04338   0.05233   0.05473
 Alpha virt. eigenvalues --    0.05963   0.06588   0.07148   0.07319   0.07481

 Mulliken charges:
               1
     1  C    0.416153
     2  C   -0.170259
     3  C   -0.390037
     4  C    0.137026
     5  H    0.111996
     6  C   -0.355624
     7  C    0.382907
     8  H    0.122079
     9  C   -0.395347
    10  C   -0.176329
    11  H    0.133644
    12  C    0.174458
    13  H    0.088301
    14  H    0.102480
    15  C    0.342122
    16  C   -0.170273
    17  C   -0.316672
    18  C    0.328563
    19  H    0.147481
    20  C   -0.392978
    21  C    0.250358
    22  H    0.127611
    23  C   -0.385827
    24  C   -0.032207
    25  H    0.127172
    26  C   -0.126543
    27  H    0.088541
    28  C   -0.082918
    29  C   -0.090979
    30  N   -0.215635
    31  N   -0.203162
    32  C   -0.150916
    33  C   -0.151772
    34  N   -0.359695
    35  N   -0.362507
    36  C   -0.119781
    37  C   -0.076122
    38  N   -0.188049
    39  N   -0.203101
    40  C   -0.169016
    41  C   -0.169392
    42  N   -0.307102
    43  N   -0.307268
    44  H    0.107578
    45  H    0.214970
    46  H    0.099584
    47  H    0.215922
    48  H    0.208760
    49  H    0.208634
    50  H    0.126619
    51  H    0.105579
    52  H    0.127398
    53  H    0.127312
    54  H    0.105314
    55  H    0.100516
    56  H    0.132217
    57  H    0.101796
    58  H    0.131940
    59  H    0.089729
    60  H    0.129135
    61  H    0.091782
    62  H    0.127673
    63  H    0.123678
    64  H    0.097397
    65  H    0.098879
    66  H    0.116208
 Sum of Mulliken charges =   0.00000

 Dipole moment (field-independent basis, Debye):
    X=             -6.1521    Y=              1.0912    Z=              0.6386  Tot=              6.2807
 Quadrupole moment (field-independent basis, Debye-Ang):
   XX=           -162.4299   YY=           -197.7370   ZZ=           -192.9848
   XY=             -5.5329   XZ=             18.7701   YZ=             -1.7035

 Normal termination of Gaussian 16 at Mon Oct 18 17:31:37 2021.
