 Gaussian 16, Revision C.01,
 Gaussian 16:  ES64L-G16RevC.01  3-Jul-2019

 ----------------------------------------------------------------------
 #P MP2/aug-cc-pVDZ SP SCF=(YQC,MaxCycle=900) int=(Grid=Superfinegrid)
 SCRF=(PCM,Solvent=Chloroform)
 ----------------------------------------------------------------------

 -----------------------------
 _2_alde1_3_ami1_1_opt_cfm_mp2
 -----------------------------
 Symbolic Z-matrix:
 Charge =  0 Multiplicity = 1

                         Standard orientation:
 ---------------------------------------------------------------------
 Center     Atomic      Atomic             Coordinates (Angstroms)
 Number     Number       Type             X           Y           Z
 ---------------------------------------------------------------------
      1          6           0        5.276168   -0.848099    0.228012
      2          6           0        4.652270   -2.164646    0.318193
      3          6           0        6.657806   -0.702746    0.287344
      4          6           0        7.237860    0.563799    0.210684
      5          1           0        7.307125   -1.559706    0.397370
      6          6           0        6.429299    1.690238    0.070607
      7          6           0        5.045778    1.555948    0.001662
      8          1           0        6.884191    2.669929    0.011045
      9          6           0        4.479201    0.285626    0.082677
     10          6           0        4.182644    2.722513   -0.155027
     11          1           0        3.407264    0.178794    0.032286
     12          6           0        8.696902    0.700730    0.277992
     13          1           0        4.682564    3.706411   -0.136495
     14          1           0        5.338030   -3.027022    0.367008
     15          6           0       -1.287633   -1.498658   -0.446517
     16          6           0       -0.412550   -2.653770   -0.602958
     17          6           0       -0.733396   -0.247213   -0.200090
     18          6           0       -1.548205    0.869260   -0.047225
     19          1           0        0.336600   -0.142324   -0.127523
     20          6           0       -2.930968    0.725157   -0.146268
     21          6           0       -3.493444   -0.517772   -0.398842
     22          1           0       -3.584634    1.578297   -0.036857
     23          6           0       -2.672529   -1.626405   -0.543444
     24          6           0       -4.990240   -0.669397   -0.468326
     25          1           0       -3.114752   -2.594468   -0.733653
     26          6           0       -0.944824    2.170842    0.210412
     27          1           0       -1.635246    3.030903    0.255856
     28          6           0        1.741082   -3.593904   -0.758617
     29          6           0        2.731350   -3.520395    0.434959
     30          7           0        0.836577   -2.504808   -0.615152
     31          1           0        1.236677   -4.578402   -0.746702
     32          6           0        2.464356   -3.442126   -2.117096
     33          7           0        3.399473   -2.267810    0.345367
     34          1           0        3.422942   -4.381766    0.384936
     35          6           0        1.995698   -3.569982    1.794545
     36          1           0        2.938506   -2.456375   -2.122474
     37          6           0        3.524315   -4.520984   -2.324066
     38          6           0        1.170817   -4.844863    1.950210
     39          6           0        3.008227   -3.474012    2.935054
     40          8           0        9.479877   -0.207307    0.396637
     41          6           0        2.050526    3.670345   -0.467232
     42          6           0        0.946336    3.515686    0.613517
     43          7           0        2.943760    2.575183   -0.308676
     44          1           0        2.545576    4.651494   -0.341395
     45          6           0        1.466763    3.605070   -1.898045
     46          7           0        0.298927    2.272088    0.370187
     47          1           0        0.258936    4.380344    0.550518
     48          6           0        1.539902    3.476745    2.040833
     49          1           0        1.002034    2.621405   -2.011544
     50          6           0        0.424599    4.694003   -2.138516
     51          1           0        2.199525    2.605651    2.092405
     52          6           0        2.333581    4.739736    2.365037
     53          6           0       -7.004507    0.550341   -0.331099
     54          6           0       -6.957205   -0.578672    0.739992
     55          7           0       -5.649662    0.572366   -0.870688
     56          1           0       -7.171517    1.516437    0.168204
     57          6           0       -8.123501    0.366443   -1.377890
     58          6           0       -7.522167   -0.191031    2.109091
     59          1           0       -9.045797    0.153470   -0.827458
     60          6           0       -8.326829    1.660442   -2.166233
     61          1           0       -6.943764    0.662517    2.484298
     62          6           0       -8.991816    0.214675    2.026546
     63          1           0       -0.908638   -3.633928   -0.711067
     64          1           0        9.049390    1.750231    0.208481
     65          6           0        1.445796   -3.502467   -3.254749
     66          1           0        1.335031   -2.699311    1.835288
     67          6           0        2.591664    3.739153   -2.923675
     68          6           0        0.417249    3.302427    3.062699
     69          6           0       -7.866090   -0.794652   -2.337604
     70          6           0       -7.365116   -1.358441    3.082932
     71          1           0        2.494928   -3.490376    3.893684
     72          1           0        3.578205   -2.550807    2.867951
     73          1           0        3.700300   -4.314245    2.902406
     74          1           0        3.095160   -5.511419   -2.181686
     75          1           0        4.358057   -4.400289   -1.638488
     76          1           0        3.915732   -4.461195   -3.337313
     77          1           0        0.937845   -4.465801   -3.260343
     78          1           0        1.945092   -3.372879   -4.212179
     79          1           0        0.702040   -2.717072   -3.146699
     80          1           0        1.786257   -5.724333    1.768012
     81          1           0        0.327103   -4.860669    1.266478
     82          1           0        0.778882   -4.906272    2.963128
     83          1           0       -7.419008    1.936021   -2.699625
     84          1           0       -8.589462    2.478790   -1.499247
     85          1           0       -9.126965    1.540492   -2.893412
     86          1           0       -9.586010   -0.597781    1.613248
     87          1           0       -9.127632    1.096093    1.405459
     88          1           0       -9.369019    0.439563    3.021804
     89          1           0       -7.715648   -1.727268   -1.798783
     90          1           0       -6.989470   -0.608965   -2.956056
     91          1           0       -8.719830   -0.920627   -3.000149
     92          1           0       -6.332293   -1.692101    3.118871
     93          1           0       -7.982207   -2.195388    2.763855
     94          1           0       -7.675795   -1.062574    4.082457
     95          1           0        0.135919    4.699788   -3.187386
     96          1           0        0.829556    5.673769   -1.890245
     97          1           0       -0.471573    4.526473   -1.548264
     98          1           0        2.622557    4.732319    3.413817
     99          1           0        1.730800    5.627859    2.183111
    100          1           0        3.240699    4.806321    1.771076
    101          1           0        0.829659    3.250552    4.067679
    102          1           0       -0.136718    2.386850    2.871658
    103          1           0       -0.272709    4.143885    3.017820
    104          1           0        3.094656    4.699028   -2.814800
    105          1           0        2.188628    3.676505   -3.931737
    106          1           0        3.324043    2.945630   -2.798546
    107          1           0       -5.624430    0.720234   -1.870898
    108          7           0       -5.551008   -0.965356    0.837978
    109          1           0       -7.505264   -1.453983    0.369472
    110          1           0       -5.242212   -1.518073   -1.132678
    111          1           0       -5.090413   -0.367471    1.520946
 ---------------------------------------------------------------------

 SCF Done:  E(RHF) =  -2028.30994763     a.u. after    7 cycles
 SCF Done:  E(RHF) =  -2028.31002058     A.U. after   29 cycles
 E2 =    -0.7271325272D+01 EUMP2 =    -0.20355813458555D+04

 The electronic state is 1-A.
 Alpha  occ. eigenvalues --  -20.57150 -15.55511 -15.55462 -15.54967 -15.54964
 Alpha  occ. eigenvalues --  -15.54946 -15.54346 -11.34722 -11.28783 -11.28366
 Alpha  occ. eigenvalues --  -11.28232 -11.27795 -11.27782 -11.26747 -11.26214
 Alpha  occ. eigenvalues --  -11.25444 -11.25411 -11.25379 -11.25322 -11.25299
 Alpha  occ. eigenvalues --  -11.25287 -11.25234 -11.25196 -11.25095 -11.24954
 Alpha  occ. eigenvalues --  -11.24328 -11.24092 -11.24051 -11.24006 -11.23825
 Alpha  occ. eigenvalues --  -11.23119 -11.23029 -11.22883 -11.22243 -11.22206
 Alpha  occ. eigenvalues --  -11.22165 -11.22146 -11.21634 -11.21582 -11.21560
 Alpha  occ. eigenvalues --  -11.21234 -11.21204 -11.21149 -11.21098 -11.21039
 Alpha  occ. eigenvalues --  -11.20788 -11.20701 -11.20675 -11.20670  -1.40852
 Alpha  occ. eigenvalues --   -1.28054  -1.26218  -1.25979  -1.23802  -1.23297
 Alpha  occ. eigenvalues --   -1.17994  -1.16369  -1.15164  -1.10130  -1.09902
 Alpha  occ. eigenvalues --   -1.08875  -1.07460  -1.07139  -1.05980  -1.05452
 Alpha  occ. eigenvalues --   -1.05133  -1.04101  -1.03665  -0.98019  -0.97620
 Alpha  occ. eigenvalues --   -0.96058  -0.93346  -0.93042  -0.92884  -0.92766
 Alpha  occ. eigenvalues --   -0.92720  -0.92645  -0.91035  -0.90709  -0.90031
 Alpha  occ. eigenvalues --   -0.87442  -0.86102  -0.85008  -0.84547  -0.83714
 Alpha  occ. eigenvalues --   -0.83150  -0.78718  -0.77759  -0.77360  -0.77018
 Alpha  occ. eigenvalues --   -0.76842  -0.76414  -0.76308  -0.75602  -0.74967
 Alpha  occ. eigenvalues --   -0.72941  -0.71378  -0.70289  -0.69710  -0.68838
 Alpha  occ. eigenvalues --   -0.67893  -0.66994  -0.66062  -0.65510  -0.65092
 Alpha  occ. eigenvalues --   -0.64574  -0.64306  -0.63869  -0.63032  -0.62875
 Alpha  occ. eigenvalues --   -0.62677  -0.61894  -0.61494  -0.61174  -0.61035
 Alpha  occ. eigenvalues --   -0.60842  -0.60402  -0.59964  -0.59202  -0.59160
 Alpha  occ. eigenvalues --   -0.58944  -0.58504  -0.57812  -0.56867  -0.56805
 Alpha  occ. eigenvalues --   -0.56504  -0.56401  -0.55800  -0.55580  -0.55517
 Alpha  occ. eigenvalues --   -0.54839  -0.54752  -0.54041  -0.53714  -0.53632
 Alpha  occ. eigenvalues --   -0.53406  -0.53216  -0.53135  -0.53014  -0.52867
 Alpha  occ. eigenvalues --   -0.52815  -0.52604  -0.52331  -0.52034  -0.51501
 Alpha  occ. eigenvalues --   -0.51468  -0.51036  -0.50420  -0.50028  -0.49456
 Alpha  occ. eigenvalues --   -0.49417  -0.48431  -0.48069  -0.47474  -0.47136
 Alpha  occ. eigenvalues --   -0.46985  -0.46907  -0.46794  -0.46638  -0.46563
 Alpha  occ. eigenvalues --   -0.46516  -0.46421  -0.46035  -0.45720  -0.45524
 Alpha  occ. eigenvalues --   -0.44417  -0.44065  -0.43658  -0.43309  -0.42285
 Alpha  occ. eigenvalues --   -0.41922  -0.41407  -0.40906  -0.39328  -0.38315
 Alpha  occ. eigenvalues --   -0.38039  -0.37965  -0.36436  -0.33562  -0.32938
 Alpha  occ. eigenvalues --   -0.31801  -0.31498
 Alpha virt. eigenvalues --    0.03081   0.03406   0.03532   0.03562   0.03922
 Alpha virt. eigenvalues --    0.04082   0.04247   0.04483   0.04542   0.04736
 Alpha virt. eigenvalues --    0.04947   0.04976   0.05258   0.05549   0.05562

 Mulliken charges:
               1
     1  C    1.147531
     2  C    0.386974
     3  C    0.167587
     4  C   -0.102985
     5  H   -0.764615
     6  C    0.788209
     7  C    1.061273
     8  H   -0.743764
     9  C   -0.316210
    10  C    0.343282
    11  H   -1.469893
    12  C    1.312294
    13  H   -0.752215
    14  H   -0.760160
    15  C    1.378199
    16  C    0.238565
    17  C   -0.216455
    18  C    0.899826
    19  H   -1.540218
    20  C    0.390370
    21  C    0.885863
    22  H   -1.009616
    23  C    0.479870
    24  C    0.426987
    25  H   -0.860077
    26  C    0.355374
    27  H   -0.764624
    28  C    0.354695
    29  C    0.358315
    30  N    0.108717
    31  H   -0.390035
    32  C   -1.689158
    33  N    0.103501
    34  H   -0.388478
    35  C   -1.733322
    36  H   -0.325283
    37  C    1.283988
    38  C    1.329497
    39  C    1.459914
    40  O   -0.860801
    41  C    0.216878
    42  C    0.336923
    43  N    0.102462
    44  H   -0.387553
    45  C   -1.684620
    46  N    0.136983
    47  H   -0.413327
    48  C   -1.649406
    49  H   -0.319019
    50  C    1.302581
    51  H   -0.320064
    52  C    1.283915
    53  C    0.561460
    54  C    0.917687
    55  N   -0.694485
    56  H   -0.745220
    57  C   -0.971531
    58  C   -1.237902
    59  H   -0.375356
    60  C    0.966257
    61  H   -0.194014
    62  C    1.190019
    63  H   -0.788720
    64  H   -0.301378
    65  C    1.450081
    66  H   -0.317258
    67  C    1.452296
    68  C    1.440748
    69  C    1.175311
    70  C    1.082361
    71  H   -0.162174
    72  H    0.045945
    73  H    0.029539
    74  H   -0.008350
    75  H   -0.168075
    76  H   -0.118465
    77  H    0.038159
    78  H   -0.170830
    79  H    0.050450
    80  H   -0.010526
    81  H   -0.159634
    82  H   -0.123432
    83  H   -0.044353
    84  H   -0.052555
    85  H   -0.092455
    86  H    0.029549
    87  H    0.005343
    88  H   -0.180015
    89  H   -0.015644
    90  H   -0.032365
    91  H   -0.180876
    92  H   -0.108542
    93  H   -0.035433
    94  H   -0.061728
    95  H   -0.118627
    96  H    0.003234
    97  H   -0.181337
    98  H   -0.116785
    99  H    0.002287
   100  H   -0.163431
   101  H   -0.173513
   102  H    0.056875
   103  H    0.034075
   104  H    0.033036
   105  H   -0.161284
   106  H    0.048895
   107  H    0.107719
   108  N   -0.773703
   109  H   -0.612575
   110  H   -0.413015
   111  H    0.165583
 Sum of Mulliken charges =   0.00000

 Dipole moment (field-independent basis, Debye):
    X=             -5.9715    Y=              2.6878    Z=             -1.1277  Tot=              6.6449
 Quadrupole moment (field-independent basis, Debye-Ang):
   XX=           -318.7146   YY=           -278.2702   ZZ=           -308.1593
   XY=             15.7633   XZ=              1.7667   YZ=              4.3189

 Normal termination of Gaussian 16 at Wed Oct 27 11:00:41 2021.
