 Gaussian 16, Revision C.01,
 Gaussian 16:  ES64L-G16RevC.01  3-Jul-2019

 ----------------------------------------------------------------------
 #P MP2/aug-cc-pVDZ SP SCF=(YQC,MaxCycle=900) int=(Grid=Superfinegrid)
 SCRF=(PCM,Solvent=Dichloromethane)
 ----------------------------------------------------------------------

 -----------------------------
 _2_alde1_3_ami1_1_opt_dcm_mp2
 -----------------------------
 Symbolic Z-matrix:
 Charge =  0 Multiplicity = 1

                         Standard orientation:
 ---------------------------------------------------------------------
 Center     Atomic      Atomic             Coordinates (Angstroms)
 Number     Number       Type             X           Y           Z
 ---------------------------------------------------------------------
      1          6           0        5.276168   -0.848099    0.228012
      2          6           0        4.652270   -2.164646    0.318193
      3          6           0        6.657806   -0.702746    0.287344
      4          6           0        7.237860    0.563799    0.210684
      5          1           0        7.307125   -1.559706    0.397370
      6          6           0        6.429299    1.690238    0.070607
      7          6           0        5.045778    1.555948    0.001662
      8          1           0        6.884191    2.669929    0.011045
      9          6           0        4.479201    0.285626    0.082677
     10          6           0        4.182644    2.722513   -0.155027
     11          1           0        3.407264    0.178794    0.032286
     12          6           0        8.696902    0.700730    0.277992
     13          1           0        4.682564    3.706411   -0.136495
     14          1           0        5.338030   -3.027022    0.367008
     15          6           0       -1.287633   -1.498658   -0.446517
     16          6           0       -0.412550   -2.653770   -0.602958
     17          6           0       -0.733396   -0.247213   -0.200090
     18          6           0       -1.548205    0.869260   -0.047225
     19          1           0        0.336600   -0.142324   -0.127523
     20          6           0       -2.930968    0.725157   -0.146268
     21          6           0       -3.493444   -0.517772   -0.398842
     22          1           0       -3.584634    1.578297   -0.036857
     23          6           0       -2.672529   -1.626405   -0.543444
     24          6           0       -4.990240   -0.669397   -0.468326
     25          1           0       -3.114752   -2.594468   -0.733653
     26          6           0       -0.944824    2.170842    0.210412
     27          1           0       -1.635246    3.030903    0.255856
     28          6           0        1.741082   -3.593904   -0.758617
     29          6           0        2.731350   -3.520395    0.434959
     30          7           0        0.836577   -2.504808   -0.615152
     31          1           0        1.236677   -4.578402   -0.746702
     32          6           0        2.464356   -3.442126   -2.117096
     33          7           0        3.399473   -2.267810    0.345367
     34          1           0        3.422942   -4.381766    0.384936
     35          6           0        1.995698   -3.569982    1.794545
     36          1           0        2.938506   -2.456375   -2.122474
     37          6           0        3.524315   -4.520984   -2.324066
     38          6           0        1.170817   -4.844863    1.950210
     39          6           0        3.008227   -3.474012    2.935054
     40          8           0        9.479877   -0.207307    0.396637
     41          6           0        2.050526    3.670345   -0.467232
     42          6           0        0.946336    3.515686    0.613517
     43          7           0        2.943760    2.575183   -0.308676
     44          1           0        2.545576    4.651494   -0.341395
     45          6           0        1.466763    3.605070   -1.898045
     46          7           0        0.298927    2.272088    0.370187
     47          1           0        0.258936    4.380344    0.550518
     48          6           0        1.539902    3.476745    2.040833
     49          1           0        1.002034    2.621405   -2.011544
     50          6           0        0.424599    4.694003   -2.138516
     51          1           0        2.199525    2.605651    2.092405
     52          6           0        2.333581    4.739736    2.365037
     53          6           0       -7.004507    0.550341   -0.331099
     54          6           0       -6.957205   -0.578672    0.739992
     55          7           0       -5.649662    0.572366   -0.870688
     56          1           0       -7.171517    1.516437    0.168204
     57          6           0       -8.123501    0.366443   -1.377890
     58          6           0       -7.522167   -0.191031    2.109091
     59          1           0       -9.045797    0.153470   -0.827458
     60          6           0       -8.326829    1.660442   -2.166233
     61          1           0       -6.943764    0.662517    2.484298
     62          6           0       -8.991816    0.214675    2.026546
     63          1           0       -0.908638   -3.633928   -0.711067
     64          1           0        9.049390    1.750231    0.208481
     65          6           0        1.445796   -3.502467   -3.254749
     66          1           0        1.335031   -2.699311    1.835288
     67          6           0        2.591664    3.739153   -2.923675
     68          6           0        0.417249    3.302427    3.062699
     69          6           0       -7.866090   -0.794652   -2.337604
     70          6           0       -7.365116   -1.358441    3.082932
     71          1           0        2.494928   -3.490376    3.893684
     72          1           0        3.578205   -2.550807    2.867951
     73          1           0        3.700300   -4.314245    2.902406
     74          1           0        3.095160   -5.511419   -2.181686
     75          1           0        4.358057   -4.400289   -1.638488
     76          1           0        3.915732   -4.461195   -3.337313
     77          1           0        0.937845   -4.465801   -3.260343
     78          1           0        1.945092   -3.372879   -4.212179
     79          1           0        0.702040   -2.717072   -3.146699
     80          1           0        1.786257   -5.724333    1.768012
     81          1           0        0.327103   -4.860669    1.266478
     82          1           0        0.778882   -4.906272    2.963128
     83          1           0       -7.419008    1.936021   -2.699625
     84          1           0       -8.589462    2.478790   -1.499247
     85          1           0       -9.126965    1.540492   -2.893412
     86          1           0       -9.586010   -0.597781    1.613248
     87          1           0       -9.127632    1.096093    1.405459
     88          1           0       -9.369019    0.439563    3.021804
     89          1           0       -7.715648   -1.727268   -1.798783
     90          1           0       -6.989470   -0.608965   -2.956056
     91          1           0       -8.719830   -0.920627   -3.000149
     92          1           0       -6.332293   -1.692101    3.118871
     93          1           0       -7.982207   -2.195388    2.763855
     94          1           0       -7.675795   -1.062574    4.082457
     95          1           0        0.135919    4.699788   -3.187386
     96          1           0        0.829556    5.673769   -1.890245
     97          1           0       -0.471573    4.526473   -1.548264
     98          1           0        2.622557    4.732319    3.413817
     99          1           0        1.730800    5.627859    2.183111
    100          1           0        3.240699    4.806321    1.771076
    101          1           0        0.829659    3.250552    4.067679
    102          1           0       -0.136718    2.386850    2.871658
    103          1           0       -0.272709    4.143885    3.017820
    104          1           0        3.094656    4.699028   -2.814800
    105          1           0        2.188628    3.676505   -3.931737
    106          1           0        3.324043    2.945630   -2.798546
    107          1           0       -5.624430    0.720234   -1.870898
    108          7           0       -5.551008   -0.965356    0.837978
    109          1           0       -7.505264   -1.453983    0.369472
    110          1           0       -5.242212   -1.518073   -1.132678
    111          1           0       -5.090413   -0.367471    1.520946
 ---------------------------------------------------------------------

 SCF Done:  E(RHF) =  -2028.31366365     a.u. after    7 cycles
 SCF Done:  E(RHF) =  -2028.31371552     A.U. after   20 cycles
 E2 =    -0.7270623435D+01 EUMP2 =    -0.20355843389577D+04

 The electronic state is 1-A.
 Alpha  occ. eigenvalues --  -20.57307 -15.55562 -15.55550 -15.55092 -15.55082
 Alpha  occ. eigenvalues --  -15.55009 -15.54331 -11.34850 -11.28809 -11.28402
 Alpha  occ. eigenvalues --  -11.28314 -11.27904 -11.27876 -11.26783 -11.26304
 Alpha  occ. eigenvalues --  -11.25515 -11.25485 -11.25420 -11.25386 -11.25367
 Alpha  occ. eigenvalues --  -11.25309 -11.25309 -11.25282 -11.25072 -11.24908
 Alpha  occ. eigenvalues --  -11.24442 -11.24247 -11.24198 -11.24136 -11.23943
 Alpha  occ. eigenvalues --  -11.23312 -11.22979 -11.22789 -11.22289 -11.22255
 Alpha  occ. eigenvalues --  -11.22239 -11.22230 -11.21519 -11.21479 -11.21477
 Alpha  occ. eigenvalues --  -11.21205 -11.21185 -11.21157 -11.21119 -11.21035
 Alpha  occ. eigenvalues --  -11.20811 -11.20746 -11.20738 -11.20736  -1.41035
 Alpha  occ. eigenvalues --   -1.28070  -1.26303  -1.26067  -1.23905  -1.23396
 Alpha  occ. eigenvalues --   -1.18080  -1.16501  -1.15166  -1.10196  -1.09907
 Alpha  occ. eigenvalues --   -1.08904  -1.07513  -1.07188  -1.05916  -1.05534
 Alpha  occ. eigenvalues --   -1.05195  -1.04205  -1.03757  -0.98071  -0.97680
 Alpha  occ. eigenvalues --   -0.96069  -0.93244  -0.93006  -0.92906  -0.92803
 Alpha  occ. eigenvalues --   -0.92733  -0.92689  -0.91111  -0.90795  -0.90116
 Alpha  occ. eigenvalues --   -0.87516  -0.86180  -0.85001  -0.84576  -0.83775
 Alpha  occ. eigenvalues --   -0.83207  -0.78726  -0.77814  -0.77425  -0.77065
 Alpha  occ. eigenvalues --   -0.76883  -0.76475  -0.76305  -0.75632  -0.75023
 Alpha  occ. eigenvalues --   -0.73007  -0.71454  -0.70360  -0.69797  -0.68862
 Alpha  occ. eigenvalues --   -0.67979  -0.67075  -0.66114  -0.65572  -0.65142
 Alpha  occ. eigenvalues --   -0.64685  -0.64374  -0.63946  -0.63069  -0.62900
 Alpha  occ. eigenvalues --   -0.62717  -0.61938  -0.61502  -0.61221  -0.61081
 Alpha  occ. eigenvalues --   -0.60809  -0.60449  -0.60009  -0.59243  -0.59222
 Alpha  occ. eigenvalues --   -0.59010  -0.58479  -0.57830  -0.56944  -0.56855
 Alpha  occ. eigenvalues --   -0.56497  -0.56428  -0.55833  -0.55612  -0.55557
 Alpha  occ. eigenvalues --   -0.54867  -0.54803  -0.53988  -0.53738  -0.53604
 Alpha  occ. eigenvalues --   -0.53434  -0.53248  -0.53171  -0.53041  -0.52933
 Alpha  occ. eigenvalues --   -0.52895  -0.52678  -0.52393  -0.52016  -0.51573
 Alpha  occ. eigenvalues --   -0.51459  -0.51073  -0.50472  -0.50062  -0.49493
 Alpha  occ. eigenvalues --   -0.49468  -0.48441  -0.48128  -0.47402  -0.47100
 Alpha  occ. eigenvalues --   -0.47011  -0.46964  -0.46818  -0.46682  -0.46582
 Alpha  occ. eigenvalues --   -0.46574  -0.46423  -0.46009  -0.45787  -0.45595
 Alpha  occ. eigenvalues --   -0.44475  -0.44111  -0.43620  -0.43440  -0.42375
 Alpha  occ. eigenvalues --   -0.42002  -0.41527  -0.41011  -0.39411  -0.38368
 Alpha  occ. eigenvalues --   -0.38144  -0.38075  -0.36431  -0.33688  -0.33021
 Alpha  occ. eigenvalues --   -0.31970  -0.31624
 Alpha virt. eigenvalues --    0.03104   0.03453   0.03533   0.03597   0.03982
 Alpha virt. eigenvalues --    0.04101   0.04267   0.04496   0.04548   0.04781
 Alpha virt. eigenvalues --    0.04881   0.04954   0.05264   0.05577   0.05602

 Mulliken charges:
               1
     1  C    1.144873
     2  C    0.383780
     3  C    0.168903
     4  C   -0.099932
     5  H   -0.763659
     6  C    0.784490
     7  C    1.061079
     8  H   -0.740614
     9  C   -0.307865
    10  C    0.341390
    11  H   -1.471234
    12  C    1.315682
    13  H   -0.747738
    14  H   -0.756653
    15  C    1.375626
    16  C    0.236874
    17  C   -0.203919
    18  C    0.894807
    19  H   -1.543175
    20  C    0.393018
    21  C    0.884749
    22  H   -1.008448
    23  C    0.478392
    24  C    0.429020
    25  H   -0.859551
    26  C    0.355701
    27  H   -0.760813
    28  C    0.360637
    29  C    0.364521
    30  N    0.095020
    31  H   -0.386007
    32  C   -1.690709
    33  N    0.091376
    34  H   -0.384495
    35  C   -1.734935
    36  H   -0.327260
    37  C    1.285109
    38  C    1.330485
    39  C    1.460847
    40  O   -0.870045
    41  C    0.223293
    42  C    0.341967
    43  N    0.089703
    44  H   -0.383330
    45  C   -1.686666
    46  N    0.122434
    47  H   -0.409315
    48  C   -1.650897
    49  H   -0.321032
    50  C    1.303627
    51  H   -0.321934
    52  C    1.285169
    53  C    0.560495
    54  C    0.919679
    55  N   -0.698993
    56  H   -0.744296
    57  C   -0.973780
    58  C   -1.240592
    59  H   -0.373825
    60  C    0.967281
    61  H   -0.192064
    62  C    1.190994
    63  H   -0.784923
    64  H   -0.296914
    65  C    1.450513
    66  H   -0.318934
    67  C    1.453192
    68  C    1.441086
    69  C    1.176632
    70  C    1.082898
    71  H   -0.162331
    72  H    0.044210
    73  H    0.030705
    74  H   -0.007409
    75  H   -0.168402
    76  H   -0.118677
    77  H    0.039408
    78  H   -0.170793
    79  H    0.048519
    80  H   -0.009587
    81  H   -0.160186
    82  H   -0.123731
    83  H   -0.044231
    84  H   -0.052461
    85  H   -0.092558
    86  H    0.030170
    87  H    0.005659
    88  H   -0.180145
    89  H   -0.015701
    90  H   -0.031837
    91  H   -0.180888
    92  H   -0.109842
    93  H   -0.035234
    94  H   -0.061514
    95  H   -0.118885
    96  H    0.004258
    97  H   -0.182036
    98  H   -0.117064
    99  H    0.003181
   100  H   -0.163563
   101  H   -0.173509
   102  H    0.054737
   103  H    0.035295
   104  H    0.034392
   105  H   -0.161441
   106  H    0.047180
   107  H    0.110774
   108  N   -0.784675
   109  H   -0.610880
   110  H   -0.410488
   111  H    0.168783
 Sum of Mulliken charges =   0.00000

 Dipole moment (field-independent basis, Debye):
    X=             -6.0435    Y=              2.8610    Z=             -1.1839  Tot=              6.7905
 Quadrupole moment (field-independent basis, Debye-Ang):
   XX=           -316.6785   YY=           -275.5839   ZZ=           -308.1813
   XY=             16.4202   XZ=              1.9455   YZ=              4.5959

 Normal termination of Gaussian 16 at Wed Oct 27 03:35:38 2021.
