 Gaussian 16, Revision C.01,
 Gaussian 16:  ES64L-G16RevC.01  3-Jul-2019

 ---------------------------------------------------------------------
 #P MP2/aug-cc-pVDZ SP SCF=(YQC,MaxCycle=900) int=(Grid=Superfinegrid)
 ---------------------------------------------------------------------

 -----------------------------
 _2_alde1_4_ami2_1_opt_gas_mp2
 -----------------------------
 Symbolic Z-matrix:
 Charge =  0 Multiplicity = 1

                         Standard orientation:
 ---------------------------------------------------------------------
 Center     Atomic      Atomic             Coordinates (Angstroms)
 Number     Number       Type             X           Y           Z
 ---------------------------------------------------------------------
      1          6           0        2.903466    1.092003   -0.023019
      2          6           0        2.388342    2.271494   -0.711196
      3          6           0        3.965252    0.353330   -0.540934
      4          6           0        4.442294   -0.760699    0.134748
      5          1           0        4.452955    0.655988   -1.456165
      6          6           0        3.828650   -1.166256    1.311012
      7          6           0        2.741892   -0.458616    1.820383
      8          1           0        4.188134   -2.048605    1.822118
      9          6           0        2.297392    0.680709    1.156470
     10          6           0        2.042749   -0.907728    3.017792
     11          1           0        1.463076    1.235170    1.552228
     12          6           0        5.585515   -1.555433   -0.439591
     13          1           0        2.506706   -1.734781    3.581961
     14          1           0        2.499530    2.285471   -1.809050
     15          6           0       -2.460239    1.783061   -0.383872
     16          6           0       -1.839593    3.088019   -0.593594
     17          6           0       -2.031541    0.950100    0.646272
     18          6           0       -2.598124   -0.307579    0.812196
     19          1           0       -1.244755    1.275448    1.306353
     20          6           0       -3.604408   -0.727673   -0.056160
     21          6           0       -4.056400    0.104341   -1.068574
     22          1           0       -4.050598   -1.705985    0.049725
     23          6           0       -3.482397    1.356298   -1.229753
     24          6           0       -5.193388   -0.329171   -1.956729
     25          1           0       -3.830214    2.000777   -2.025216
     26          6           0       -2.116769   -1.205012    1.860443
     27          1           0       -2.239878   -2.274324    1.634368
     28          6           0       -0.102085    4.651347   -0.057976
     29          6           0        1.260960    4.321619   -0.720596
     30          7           0       -0.809968    3.409369    0.051890
     31          7           0        1.844201    3.202255   -0.063832
     32          6           0        6.286056   -2.884623   -2.162595
     33          6           0        7.095644   -1.562870   -2.274286
     34          7           0        5.113355   -2.579655   -1.358832
     35          7           0        6.481970   -0.723457   -1.242423
     36          6           0        0.195227   -0.798821    4.468002
     37          6           0       -1.062811   -1.565253    3.968152
     38          7           0        0.956981   -0.364718    3.350705
     39          7           0       -1.608321   -0.751315    2.916495
     40          6           0       -7.435232   -0.771703   -2.052899
     41          6           0       -6.715846   -2.137072   -2.229623
     42          7           0       -6.471773    0.116416   -1.424103
     43          7           0       -5.306124   -1.786308   -2.038120
     44          1           0       -2.335092    3.722276   -1.343237
     45          1           0       -6.468755   -0.032607   -0.418547
     46          1           0       -5.080510    0.134984   -2.956042
     47          1           0       -4.698772   -2.184913   -2.741541
     48          1           0        7.158288   -0.222482   -0.681916
     49          1           0        4.389512   -2.172071   -1.944958
     50          1           0        6.120644   -2.077940    0.377449
     51          1           0       -8.346181   -0.844939   -1.461962
     52          1           0       -7.684836   -0.352817   -3.033248
     53          1           0        6.002855   -3.291413   -3.131556
     54          1           0        6.872665   -3.636083   -1.624328
     55          1           0        1.919666    5.185997   -0.583792
     56          1           0        1.124438    4.154828   -1.803766
     57          1           0        0.759530   -1.443118    5.163901
     58          1           0       -0.141341    0.101461    4.987265
     59          6           0       -7.124575   -3.122712   -1.129498
     60          1           0       -6.963654   -2.677125   -0.150756
     61          1           0       -6.521207   -4.024783   -1.196781
     62          1           0       -8.173228   -3.392369   -1.228597
     63          6           0       -6.990177   -2.741600   -3.606787
     64          1           0       -8.057088   -2.905467   -3.740230
     65          1           0       -6.478204   -3.696682   -3.708913
     66          1           0       -6.642176   -2.073090   -4.392891
     67          6           0        8.587244   -1.798463   -2.032197
     68          1           0        8.982496   -2.498054   -2.765224
     69          1           0        8.751193   -2.210175   -1.037516
     70          1           0        9.135972   -0.862195   -2.116882
     71          6           0        6.881657   -0.894457   -3.636495
     72          1           0        7.309872   -1.500981   -4.430732
     73          1           0        7.354012    0.084872   -3.647517
     74          1           0        5.818937   -0.762170   -3.824426
     75          6           0        0.150478    5.105961    1.384358
     76          1           0       -0.796471    5.259944    1.895993
     77          1           0        0.718006    6.032983    1.398944
     78          1           0        0.709593    4.330532    1.897821
     79          6           0       -0.796039    5.761952   -0.857038
     80          1           0       -0.928271    5.475118   -1.898754
     81          1           0       -0.191740    6.665070   -0.826767
     82          1           0       -1.770302    5.981172   -0.424871
     83          6           0       -2.095192   -1.618849    5.101627
     84          1           0       -1.661983   -2.079755    5.985988
     85          1           0       -2.960243   -2.199532    4.788097
     86          1           0       -2.425425   -0.613306    5.347863
     87          6           0       -0.660187   -2.989249    3.561175
     88          1           0       -0.173876   -3.486354    4.397111
     89          1           0        0.029462   -2.957491    2.719234
     90          1           0       -1.531890   -3.576961    3.282004
 ---------------------------------------------------------------------

 SCF Done:  E(RHF) =  -1751.19183576     a.u. after    7 cycles
 SCF Done:  E(RHF) =  -1751.19185255     A.U. after   13 cycles
 E2 =    -0.6207370924D+01 EUMP2 =    -0.17573992234785D+04

 The electronic state is 1-A.
 Alpha  occ. eigenvalues --  -15.55174 -15.55094 -15.54745 -15.54531 -15.54424
 Alpha  occ. eigenvalues --  -15.54329 -15.54300 -15.54237 -11.28873 -11.28826
 Alpha  occ. eigenvalues --  -11.27286 -11.27125 -11.27032 -11.26848 -11.26349
 Alpha  occ. eigenvalues --  -11.26310 -11.26104 -11.25689 -11.25134 -11.25060
 Alpha  occ. eigenvalues --  -11.24767 -11.24308 -11.23659 -11.23458 -11.23396
 Alpha  occ. eigenvalues --  -11.23272 -11.23236 -11.23228 -11.23138 -11.23104
 Alpha  occ. eigenvalues --  -11.23065 -11.22893 -11.22373 -11.22369 -11.22254
 Alpha  occ. eigenvalues --  -11.22209 -11.21524 -11.21449 -11.21401 -11.21390
 Alpha  occ. eigenvalues --  -11.21300 -11.19658  -1.28092  -1.28014  -1.25025
 Alpha  occ. eigenvalues --   -1.24825  -1.22428  -1.21968  -1.15918  -1.15315
 Alpha  occ. eigenvalues --   -1.14847  -1.14781  -1.08109  -1.07795  -1.06840
 Alpha  occ. eigenvalues --   -1.05331  -1.04025  -1.01888  -1.01521  -1.00805
 Alpha  occ. eigenvalues --   -0.94262  -0.94165  -0.94097  -0.93982  -0.93377
 Alpha  occ. eigenvalues --   -0.92844  -0.91919  -0.91855  -0.88008  -0.87787
 Alpha  occ. eigenvalues --   -0.86493  -0.85289  -0.84275  -0.83020  -0.79067
 Alpha  occ. eigenvalues --   -0.78241  -0.76748  -0.76638  -0.75429  -0.75105
 Alpha  occ. eigenvalues --   -0.73032  -0.72211  -0.69634  -0.68918  -0.68304
 Alpha  occ. eigenvalues --   -0.67992  -0.66772  -0.66690  -0.65963  -0.65878
 Alpha  occ. eigenvalues --   -0.64580  -0.63683  -0.63369  -0.62875  -0.61781
 Alpha  occ. eigenvalues --   -0.61146  -0.60925  -0.60793  -0.60540  -0.60233
 Alpha  occ. eigenvalues --   -0.59829  -0.59519  -0.59105  -0.59069  -0.58151
 Alpha  occ. eigenvalues --   -0.57831  -0.56770  -0.56576  -0.56406  -0.55728
 Alpha  occ. eigenvalues --   -0.55022  -0.54959  -0.54395  -0.54227  -0.54045
 Alpha  occ. eigenvalues --   -0.53806  -0.53565  -0.52779  -0.52105  -0.51917
 Alpha  occ. eigenvalues --   -0.51689  -0.51382  -0.51288  -0.51094  -0.50846
 Alpha  occ. eigenvalues --   -0.50653  -0.50204  -0.50030  -0.49658  -0.49372
 Alpha  occ. eigenvalues --   -0.48616  -0.47902  -0.47705  -0.47505  -0.47109
 Alpha  occ. eigenvalues --   -0.47074  -0.46618  -0.46440  -0.43689  -0.42572
 Alpha  occ. eigenvalues --   -0.40947  -0.39965  -0.39422  -0.39187  -0.38434
 Alpha  occ. eigenvalues --   -0.38348  -0.37270  -0.36914  -0.36665  -0.36549
 Alpha  occ. eigenvalues --   -0.31380  -0.31187  -0.30926  -0.30731
 Alpha virt. eigenvalues --    0.03035   0.03269   0.03428   0.03789   0.03989
 Alpha virt. eigenvalues --    0.04052   0.04378   0.04525   0.04684   0.04781
 Alpha virt. eigenvalues --    0.05023   0.05379   0.05515   0.05859   0.05949

 Mulliken charges:
               1
     1  C    0.391244
     2  C    0.350223
     3  C    0.575143
     4  C    0.766755
     5  H   -0.844591
     6  C    0.201383
     7  C    0.929447
     8  H   -0.799874
     9  C    0.355805
    10  C    0.548910
    11  H   -0.952388
    12  C    0.466579
    13  H   -0.725967
    14  H   -0.563340
    15  C    1.098247
    16  C    0.044824
    17  C    0.313199
    18  C    0.909108
    19  H   -1.065297
    20  C    0.287175
    21  C    0.421348
    22  H   -0.942356
    23  C    0.255978
    24  C    0.619685
    25  H   -0.801160
    26  C    0.082924
    27  H   -0.663408
    28  C   -3.973068
    29  C    1.860706
    30  N    0.694747
    31  N   -0.376618
    32  C    1.382261
    33  C   -2.276282
    34  N   -0.600664
    35  N   -0.315619
    36  C    1.451198
    37  C   -3.618369
    38  N   -0.176707
    39  N    0.131057
    40  C    1.390215
    41  C   -2.309903
    42  N   -0.528343
    43  N   -0.301688
    44  H   -0.776716
    45  H    0.086769
    46  H   -0.292940
    47  H   -0.056735
    48  H   -0.066520
    49  H    0.085579
    50  H   -0.337014
    51  H   -0.219040
    52  H   -0.299561
    53  H   -0.213498
    54  H   -0.298624
    55  H   -0.217237
    56  H   -0.215907
    57  H   -0.155586
    58  H   -0.291268
    59  C    1.096943
    60  H   -0.070905
    61  H   -0.070309
    62  H   -0.024614
    63  C    0.995500
    64  H   -0.034652
    65  H   -0.020968
    66  H   -0.034635
    67  C    1.010103
    68  H   -0.041021
    69  H   -0.038573
    70  H   -0.025041
    71  C    1.133099
    72  H   -0.020748
    73  H   -0.079036
    74  H   -0.074638
    75  C    1.507155
    76  H   -0.107952
    77  H   -0.023373
    78  H   -0.029643
    79  C    1.518949
    80  H    0.012268
    81  H   -0.194466
    82  H    0.080706
    83  C    1.584265
    84  H   -0.002452
    85  H   -0.070312
    86  H   -0.040843
    87  C    1.738343
    88  H   -0.162812
    89  H    0.076077
    90  H   -0.010639
 Sum of Mulliken charges =   0.00000

 Dipole moment (field-independent basis, Debye):
    X=              0.9182    Y=             -2.7764    Z=             -3.2328  Tot=              4.3592
 Quadrupole moment (field-independent basis, Debye-Ang):
   XX=           -225.9336   YY=           -250.5239   ZZ=           -243.2383
   XY=              4.2503   XZ=              2.9263   YZ=             -9.3675

 Normal termination of Gaussian 16 at Fri Oct 29 21:39:13 2021.
