 Gaussian 16, Revision C.01,
 Gaussian 16:  ES64L-G16RevC.01  3-Jul-2019

 ----------------------------------------------------------------------
 #P PBE1PBE/Def2TZVP SP SCF=(YQC,MaxCycle=900) int=(Grid=Superfinegrid)
  EmpiricalDispersion=GD3 SCRF=(PCM,Solvent=Chloroform)
 ----------------------------------------------------------------------

 -------------------------
 _2_alde1_4_ami4_2_opt_cfm
 -------------------------
 Symbolic Z-matrix:
 Charge =  0 Multiplicity = 1

                         Standard orientation:
 ---------------------------------------------------------------------
 Center     Atomic      Atomic             Coordinates (Angstroms)
 Number     Number       Type             X           Y           Z
 ---------------------------------------------------------------------
      1          6           0        1.835827    2.034753    0.314493
      2          6           0        1.469435    3.399659   -0.028876
      3          6           0        2.686607    1.286280   -0.497701
      4          6           0        2.947952   -0.048215   -0.206480
      5          1           0        3.129514    1.765779   -1.357393
      6          6           0        2.315611   -0.648269    0.883759
      7          6           0        1.467349    0.086467    1.703190
      8          1           0        2.502444   -1.694292    1.073372
      9          6           0        1.254802    1.436343    1.426444
     10          6           0        0.733969   -0.560413    2.782965
     11          1           0        0.600648    1.993141    2.078695
     12          6           0        3.856963   -0.812213   -1.048796
     13          1           0        0.720419   -1.661063    2.754746
     14          1           0        0.869919    3.929118    0.726162
     15          1           0        4.286244   -0.269054   -1.905245
     16          6           0       -1.931724    1.855071   -1.258369
     17          6           0       -1.259167    2.888185   -2.033395
     18          6           0       -1.954845    1.926772    0.132138
     19          6           0       -2.469811    0.880233    0.891503
     20          1           0       -1.531894    2.800079    0.603247
     21          6           0       -3.022738   -0.223115    0.247324
     22          6           0       -3.051861   -0.287954   -1.143592
     23          1           0       -3.427789   -1.035875    0.827433
     24          6           0       -2.482514    0.743048   -1.888940
     25          6           0       -3.647335   -1.430766   -1.823952
     26          1           0       -2.471940    0.680304   -2.968844
     27          6           0       -2.331744    0.927923    2.339232
     28          1           0       -3.600983   -1.412083   -2.924739
     29          1           0       -1.985683    1.890176    2.746214
     30          6           0       -0.122559    4.909774   -2.276174
     31          6           0        1.161448    5.185118   -1.459729
     32          7           0       -0.927371    3.996210   -1.531617
     33          7           0        1.757935    3.924717   -1.140493
     34          6           0        5.058741   -2.727844   -1.630615
     35          6           0        6.287359   -3.129720   -0.780888
     36          7           0        4.132315   -2.020004   -0.810428
     37          7           0        5.984140   -3.955455    0.365134
     38          6           0       -0.727707   -0.568972    4.599929
     39          6           0       -2.150656    0.018278    4.454090
     40          7           0        0.117935    0.098486    3.663686
     41          7           0       -2.525729   -0.077152    3.077392
     42          6           0       -4.021856   -4.770114   -1.449738
     43          6           0       -4.745683   -3.490100   -1.883404
     44          7           0       -2.676743   -4.776127   -2.001909
     45          7           0       -4.188700   -2.375161   -1.188486
     46          1           0       -1.024159    2.622924   -3.076622
     47          1           0        5.326444   -3.466674    0.963930
     48          1           0        5.539405   -4.817986    0.067126
     49          1           0       -2.161837   -3.974857   -1.649082
     50          1           0       -2.181423   -5.612653   -1.713203
     51          1           0       -2.134533    1.059507    4.810791
     52          1           0       -2.845302   -0.572818    5.053907
     53          1           0       -0.756915   -1.658325    4.439775
     54          1           0       -0.368172   -0.357996    5.610818
     55          1           0        6.774502   -2.220372   -0.417902
     56          1           0        6.991961   -3.668524   -1.420241
     57          1           0        5.392665   -2.143645   -2.504807
     58          1           0        4.560634   -3.639671   -1.978209
     59          1           0        0.884333    5.754003   -0.559522
     60          1           0        1.857351    5.764075   -2.069983
     61          1           0        0.145824    4.521315   -3.271583
     62          1           0       -0.669442    5.850097   -2.387368
     63          1           0       -4.553531   -5.635612   -1.854098
     64          1           0       -4.046917   -4.823140   -0.349952
     65          1           0       -5.796503   -3.566829   -1.588581
     66          1           0       -4.676926   -3.388904   -2.978290
 ---------------------------------------------------------------------

 SCF Done:  E(RPBE1PBE) =  -1446.82858930     a.u. after    6 cycles
 SCF Done:  E(RPBE1PBE) =  -1446.82860955     A.U. after    9 cycles

 The electronic state is 1-A.
 Alpha  occ. eigenvalues --  -14.38210 -14.38151 -14.38116 -14.38072 -14.37840
 Alpha  occ. eigenvalues --  -14.37740 -14.35987 -14.35754 -10.27073 -10.26960
 Alpha  occ. eigenvalues --  -10.26900 -10.26832 -10.26693 -10.26578 -10.25250
 Alpha  occ. eigenvalues --  -10.25151 -10.24950 -10.24852 -10.24608 -10.24595
 Alpha  occ. eigenvalues --  -10.24574 -10.24567 -10.24521 -10.24483 -10.24462
 Alpha  occ. eigenvalues --  -10.24389 -10.24360 -10.24308 -10.24209 -10.24106
 Alpha  occ. eigenvalues --  -10.24090 -10.24085 -10.24075 -10.23680  -0.97910
 Alpha  occ. eigenvalues --   -0.97726  -0.96680  -0.96643  -0.95274  -0.94910
 Alpha  occ. eigenvalues --   -0.91009  -0.90810  -0.90084  -0.89630  -0.82579
 Alpha  occ. eigenvalues --   -0.81922  -0.81117  -0.80609  -0.77528  -0.76018
 Alpha  occ. eigenvalues --   -0.75052  -0.74746  -0.69918  -0.69816  -0.67856
 Alpha  occ. eigenvalues --   -0.67395  -0.66530  -0.64668  -0.63154  -0.62669
 Alpha  occ. eigenvalues --   -0.61399  -0.59884  -0.57877  -0.56586  -0.56318
 Alpha  occ. eigenvalues --   -0.55504  -0.54309  -0.53550  -0.52771  -0.52355
 Alpha  occ. eigenvalues --   -0.51595  -0.51285  -0.50676  -0.50408  -0.50196
 Alpha  occ. eigenvalues --   -0.49489  -0.49031  -0.48615  -0.48237  -0.47346
 Alpha  occ. eigenvalues --   -0.46798  -0.46530  -0.46171  -0.45464  -0.45106
 Alpha  occ. eigenvalues --   -0.44935  -0.44383  -0.44138  -0.42678  -0.42420
 Alpha  occ. eigenvalues --   -0.41763  -0.40953  -0.40937  -0.40542  -0.40334
 Alpha  occ. eigenvalues --   -0.39897  -0.39560  -0.39134  -0.38311  -0.37599
 Alpha  occ. eigenvalues --   -0.37072  -0.36612  -0.36336  -0.35887  -0.35575
 Alpha  occ. eigenvalues --   -0.35436  -0.35239  -0.34989  -0.31274  -0.30789
 Alpha  occ. eigenvalues --   -0.27760  -0.27622  -0.27402  -0.27352  -0.27297
 Alpha  occ. eigenvalues --   -0.27119  -0.26770  -0.26217  -0.25987  -0.25875
 Alpha  occ. eigenvalues --   -0.25331  -0.24800
 Alpha virt. eigenvalues --   -0.07088  -0.06266  -0.05741  -0.05503  -0.02777
 Alpha virt. eigenvalues --   -0.01558   0.04559   0.04860   0.05049   0.05383
 Alpha virt. eigenvalues --    0.05571   0.05949   0.06243   0.06652   0.06772

 Mulliken charges:
               1
     1  C    0.367493
     2  C   -0.163167
     3  C   -0.377223
     4  C    0.363223
     5  H    0.122944
     6  C   -0.359595
     7  C    0.321007
     8  H    0.129660
     9  C   -0.296544
    10  C   -0.150257
    11  H    0.134246
    12  C   -0.166087
    13  H    0.085434
    14  H    0.094216
    15  H    0.084869
    16  C    0.283533
    17  C   -0.149054
    18  C   -0.292209
    19  C    0.408155
    20  H    0.133608
    21  C   -0.399073
    22  C    0.374464
    23  H    0.118274
    24  C   -0.341638
    25  C   -0.173834
    26  H    0.131653
    27  C   -0.172013
    28  H    0.086626
    29  H    0.093087
    30  C   -0.090491
    31  C   -0.072975
    32  N   -0.198230
    33  N   -0.201935
    34  C   -0.118592
    35  C   -0.085866
    36  N   -0.187994
    37  N   -0.541141
    38  C   -0.091096
    39  C   -0.071114
    40  N   -0.199885
    41  N   -0.195317
    42  C   -0.099694
    43  C   -0.060035
    44  N   -0.561516
    45  N   -0.197324
    46  H    0.083514
    47  H    0.233365
    48  H    0.224885
    49  H    0.235363
    50  H    0.231872
    51  H    0.088535
    52  H    0.124006
    53  H    0.083612
    54  H    0.125777
    55  H    0.111497
    56  H    0.115790
    57  H    0.078587
    58  H    0.120611
    59  H    0.090024
    60  H    0.123800
    61  H    0.082532
    62  H    0.125970
    63  H    0.108561
    64  H    0.099464
    65  H    0.122913
    66  H    0.070730
 Sum of Mulliken charges =   0.00000

 Dipole moment (field-independent basis, Debye):
    X=             -0.4292    Y=              0.6725    Z=             -2.0055  Tot=              2.1584
 Quadrupole moment (field-independent basis, Debye-Ang):
   XX=           -220.1732   YY=           -186.7217   ZZ=           -186.8370
   XY=              5.3612   XZ=             -8.8378   YZ=             -3.3486

 1\1\GINC-CX3-6-1\SP\RPBE1PBE\def2TZVP\C26H32N8\ATARZIA\18-Oct-2021\0\\
 #P PBE1PBE/Def2TZVP SP SCF=(YQC,MaxCycle=900) int=(Grid=Superfinegrid)
  EmpiricalDispersion=GD3 SCRF=(PCM,Solvent=Chloroform)\\_2_alde1_4_ami
 4_2_opt_cfm\\0,1\C,0,-4.0063,-1.3784,-1.2704\C,0,-4.7277,-0.9629,-0.07
 79\C,0,-3.2907,-2.5744,-1.305\C,0,-2.5271,-2.9086,-2.4182\H,0,-3.3398,
 -3.2274,-0.4469\C,0,-2.4462,-2.0146,-3.4872\C,0,-3.1562,-0.8203,-3.467
 2\H,0,-1.8202,-2.2745,-4.3272\C,0,-3.9565,-0.523,-2.3649\C,0,-2.9986,0
 .1551,-4.5377\H,0,-4.5077,0.4041,-2.3709\C,0,-1.8036,-4.1715,-2.4517\H

 Normal termination of Gaussian 16 at Mon Oct 18 10:46:55 2021.
