 Gaussian 16, Revision C.01,
 Gaussian 16:  ES64L-G16RevC.01  3-Jul-2019

 ----------------------------------------------------------------------
 #P PBE1PBE/Def2TZVP SP SCF=(YQC,MaxCycle=900) int=(Grid=Superfinegrid)
  EmpiricalDispersion=GD3
 ----------------------------------------------------------------------

 -------------------------
 _2_alde1_3_ami2_2_opt_gas
 -------------------------
 Symbolic Z-matrix:
 Charge =  0 Multiplicity = 1

                         Standard orientation:
 ---------------------------------------------------------------------
 Center     Atomic      Atomic             Coordinates (Angstroms)
 Number     Number       Type             X           Y           Z
 ---------------------------------------------------------------------
      1          6           0        3.231124    1.864318    0.232485
      2          6           0        2.544822    3.148296    0.369751
      3          6           0        4.524160    1.828132   -0.274926
      4          6           0        5.182629    0.610621   -0.452097
      5          1           0        5.040897    2.737375   -0.548189
      6          6           0        4.543056   -0.574009   -0.108008
      7          6           0        3.251446   -0.554065    0.418739
      8          1           0        5.030550   -1.528815   -0.234060
      9          6           0        2.602593    0.666521    0.582841
     10          6           0        2.600405   -1.810301    0.792077
     11          1           0        1.598463    0.714168    0.978034
     12          6           0        6.547064    0.593245   -0.998163
     13          1           0        1.655805   -1.705105    1.338113
     14          1           0        3.176169    4.028209    0.189171
     15          6           0       -0.998421    0.747095   -1.025324
     16          6           0       -0.552091    2.125497   -1.146916
     17          6           0       -0.095170   -0.268164   -1.332024
     18          6           0       -0.398383   -1.594359   -1.044305
     19          1           0        0.876647   -0.017462   -1.735700
     20          6           0       -1.649414   -1.911646   -0.520909
     21          6           0       -2.587443   -0.912510   -0.274457
     22          1           0       -1.869904   -2.946247   -0.305533
     23          6           0       -2.244956    0.419436   -0.503902
     24          6           0       -3.901068   -1.264734    0.245743
     25          1           0       -2.946597    1.201213   -0.264379
     26          6           0        0.641513   -2.603365   -1.184411
     27          1           0        1.494820   -2.337068   -1.827008
     28          6           0       -0.448389    4.331736   -0.480615
     29          6           0        0.514964    4.370356    0.745480
     30          7           0       -1.105727    3.066641   -0.515663
     31          1           0        0.149601    4.520133   -1.387540
     32          7           0        1.318855    3.186136    0.648275
     33          6           0       -0.302534    4.222654    2.033609
     34          8           0        7.175539    1.565696   -1.328900
     35          6           0        2.573231   -4.196673    0.751995
     36          6           0        1.713777   -4.547731   -0.505543
     37          7           0        3.146050   -2.908036    0.491424
     38          6           0        3.744660   -5.179930    0.837426
     39          7           0        0.584661   -3.686514   -0.536880
     40          1           0        1.363808   -5.576756   -0.405407
     41          6           0       -6.070699   -0.761794    0.945676
     42          6           0       -7.155021   -0.311860   -0.079679
     43          7           0       -4.780568   -0.390898    0.476513
     44          1           0       -6.164886   -1.844397    1.135889
     45          7           0       -7.052078    1.100799   -0.396921
     46          6           0       -8.538776   -0.574394    0.516176
     47          1           0        0.354052    2.275471   -1.755149
     48          1           0       -4.075271   -2.338011    0.422754
     49          1           0       -6.125114    1.298263   -0.758874
     50          1           0        6.975864   -0.424434   -1.088560
     51          1           0       -1.198287    5.116119   -0.363448
     52          6           0        1.269886    5.703487    0.740283
     53          6           0        1.705238   -4.290235    2.011002
     54          1           0        2.356888   -4.450348   -1.393277
     55          1           0       -6.244081   -0.220755    1.882463
     56          6           0       -6.984909   -1.100764   -1.379543
     57          1           0        3.384352   -6.203394    0.895150
     58          1           0        4.337381   -4.964184    1.723034
     59          1           0        4.381191   -5.074553   -0.036713
     60          1           0        0.563961    6.520324    0.862647
     61          1           0        1.804510    5.853122   -0.195920
     62          1           0        1.981532    5.734489    1.563355
     63          1           0       -7.127648   -2.164360   -1.205303
     64          1           0       -5.989378   -0.942278   -1.788489
     65          1           0       -7.715720   -0.758509   -2.106600
     66          1           0       -7.177523    1.660027    0.440287
     67          1           0        1.458731   -5.330452    2.205296
     68          1           0        0.777959   -3.738711    1.882800
     69          1           0        2.248756   -3.891803    2.865832
     70          1           0       -8.676894   -1.633385    0.717780
     71          1           0       -9.299743   -0.245281   -0.185716
     72          1           0       -8.666818   -0.023712    1.445764
     73          1           0        0.361258    4.206331    2.895036
     74          1           0       -0.860298    3.291865    1.995860
     75          1           0       -0.997449    5.051284    2.135799
 ---------------------------------------------------------------------

 SCF Done:  E(RPBE1PBE) =  -1568.51133866     a.u. after    7 cycles
 SCF Done:  E(RPBE1PBE) =  -1568.51134636     A.U. after    9 cycles

 The electronic state is 1-A.
 Alpha  occ. eigenvalues --  -19.20886 -14.38353 -14.38298 -14.38153 -14.37961
 Alpha  occ. eigenvalues --  -14.37418 -14.34824 -10.31468 -10.27727 -10.27627
 Alpha  occ. eigenvalues --  -10.27366 -10.27309 -10.27308 -10.26847 -10.26581
 Alpha  occ. eigenvalues --  -10.25640 -10.25530 -10.25520 -10.25450 -10.25275
 Alpha  occ. eigenvalues --  -10.25253 -10.25220 -10.25168 -10.25154 -10.24702
 Alpha  occ. eigenvalues --  -10.24537 -10.24523 -10.24453 -10.24185 -10.24130
 Alpha  occ. eigenvalues --  -10.23579 -10.21924 -10.21171 -10.21142 -10.20648
 Alpha  occ. eigenvalues --  -10.20414 -10.20005  -1.08557  -0.98669  -0.98299
 Alpha  occ. eigenvalues --   -0.96722  -0.95685  -0.95237  -0.91519  -0.91241
 Alpha  occ. eigenvalues --   -0.89946  -0.84744  -0.83541  -0.81414  -0.80959
 Alpha  occ. eigenvalues --   -0.80431  -0.79003  -0.77920  -0.73165  -0.72407
 Alpha  occ. eigenvalues --   -0.72188  -0.71933  -0.71848  -0.70848  -0.69302
 Alpha  occ. eigenvalues --   -0.69123  -0.67877  -0.67124  -0.65227  -0.62741
 Alpha  occ. eigenvalues --   -0.61951  -0.59993  -0.58024  -0.57142  -0.56556
 Alpha  occ. eigenvalues --   -0.55780  -0.55160  -0.54857  -0.53467  -0.52862
 Alpha  occ. eigenvalues --   -0.52212  -0.51167  -0.50561  -0.50071  -0.49866
 Alpha  occ. eigenvalues --   -0.49618  -0.49016  -0.48690  -0.48544  -0.47814
 Alpha  occ. eigenvalues --   -0.47277  -0.47215  -0.47053  -0.46576  -0.46202
 Alpha  occ. eigenvalues --   -0.45249  -0.44962  -0.44610  -0.44256  -0.42923
 Alpha  occ. eigenvalues --   -0.42480  -0.42250  -0.41887  -0.41617  -0.41371
 Alpha  occ. eigenvalues --   -0.40839  -0.40640  -0.40370  -0.40297  -0.39823
 Alpha  occ. eigenvalues --   -0.39036  -0.38968  -0.38865  -0.38656  -0.38127
 Alpha  occ. eigenvalues --   -0.37979  -0.37790  -0.37221  -0.36773  -0.36721
 Alpha  occ. eigenvalues --   -0.36536  -0.36212  -0.35442  -0.34692  -0.34075
 Alpha  occ. eigenvalues --   -0.33831  -0.33163  -0.30659  -0.28225  -0.28124
 Alpha  occ. eigenvalues --   -0.27584  -0.27325  -0.27169  -0.26978  -0.26831
 Alpha  occ. eigenvalues --   -0.26511  -0.26394  -0.25312  -0.24285
 Alpha virt. eigenvalues --   -0.07872  -0.06947  -0.06500  -0.05572  -0.03305
 Alpha virt. eigenvalues --   -0.02081   0.03663   0.04070   0.04192   0.04616
 Alpha virt. eigenvalues --    0.04918   0.04965   0.05465   0.05855   0.05925

 Mulliken charges:
               1
     1  C    0.382345
     2  C   -0.173064
     3  C   -0.339788
     4  C    0.248230
     5  H    0.136256
     6  C   -0.323204
     7  C    0.383740
     8  H    0.135733
     9  C   -0.378935
    10  C   -0.174729
    11  H    0.150341
    12  C    0.048512
    13  H    0.105153
    14  H    0.093311
    15  C    0.350198
    16  C   -0.105793
    17  C   -0.314658
    18  C    0.289879
    19  H    0.133903
    20  C   -0.362322
    21  C    0.424298
    22  H    0.121331
    23  C   -0.394057
    24  C   -0.175836
    25  H    0.133859
    26  C   -0.130691
    27  H    0.094856
    28  C   -0.061364
    29  C    0.133634
    30  N   -0.188438
    31  H    0.082045
    32  N   -0.192803
    33  C   -0.389800
    34  O   -0.279306
    35  C    0.107283
    36  C   -0.078869
    37  N   -0.183058
    38  C   -0.337639
    39  N   -0.212707
    40  H    0.114906
    41  C   -0.123565
    42  C    0.138312
    43  N   -0.165639
    44  H    0.068084
    45  N   -0.497434
    46  C   -0.355561
    47  H    0.068662
    48  H    0.067886
    49  H    0.224466
    50  H    0.078424
    51  H    0.115041
    52  C   -0.387404
    53  C   -0.397783
    54  H    0.089086
    55  H    0.112339
    56  C   -0.376815
    57  H    0.114243
    58  H    0.122873
    59  H    0.124838
    60  H    0.134635
    61  H    0.127084
    62  H    0.134862
    63  H    0.106557
    64  H    0.129903
    65  H    0.130893
    66  H    0.204280
    67  H    0.123424
    68  H    0.148164
    69  H    0.128823
    70  H    0.111848
    71  H    0.133636
    72  H    0.111950
    73  H    0.117692
    74  H    0.153655
    75  H    0.109787
 Sum of Mulliken charges =   0.00000

 Dipole moment (field-independent basis, Debye):
    X=             -0.1781    Y=             -1.3910    Z=              1.5354  Tot=              2.0794
 Quadrupole moment (field-independent basis, Debye-Ang):
   XX=           -256.4599   YY=           -203.3523   ZZ=           -222.7649
   XY=             -2.3126   XZ=             -3.2932   YZ=              2.5843

 Normal termination of Gaussian 16 at Mon Oct 18 16:00:00 2021.
