 Gaussian 16, Revision C.01,
 Gaussian 16:  ES64L-G16RevC.01  3-Jul-2019

 ----------------------------------------------------------------------
 #P MP2/aug-cc-pVDZ SP SCF=(YQC,MaxCycle=900) int=(Grid=Superfinegrid)
 SCRF=(PCM,Solvent=Dichloromethane)
 ----------------------------------------------------------------------

 -----------------------------
 _2_alde1_4_ami1_2_opt_dcm_mp2
 -----------------------------
 Symbolic Z-matrix:
 Charge =  0 Multiplicity = 1

                         Standard orientation:
 ---------------------------------------------------------------------
 Center     Atomic      Atomic             Coordinates (Angstroms)
 Number     Number       Type             X           Y           Z
 ---------------------------------------------------------------------
      1          6           0       -0.947134    0.013390    2.163696
      2          6           0       -0.198206   -1.035491    2.842922
      3          6           0       -0.386781    1.269235    1.964489
      4          6           0       -1.075999    2.250207    1.249783
      5          1           0        0.586609    1.511334    2.363502
      6          6           0       -2.313602    1.946624    0.693002
      7          6           0       -2.886519    0.689906    0.880864
      8          1           0       -2.850944    2.674288    0.103870
      9          6           0       -2.209656   -0.258513    1.638896
     10          6           0       -4.130190    0.317117    0.225939
     11          1           0       -2.633831   -1.235134    1.811635
     12          6           0       -0.513752    3.583430    1.086003
     13          1           0       -4.510649   -0.683308    0.481514
     14          1           0        0.873346   -0.833162    2.994684
     15          1           0       -1.118866    4.286511    0.490415
     16          6           0       -0.674180   -2.617257   -0.487966
     17          6           0       -0.806620   -3.447989    0.699035
     18          6           0       -1.813449   -2.098722   -1.095560
     19          6           0       -1.708892   -1.155894   -2.115851
     20          1           0       -2.799712   -2.384535   -0.764181
     21          6           0       -0.446675   -0.771126   -2.559322
     22          6           0        0.702815   -1.313943   -1.989860
     23          1           0       -0.357625   -0.034546   -3.346594
     24          6           0        0.580459   -2.224919   -0.945169
     25          6           0        2.019795   -0.886435   -2.443673
     26          1           0        1.467256   -2.614617   -0.473032
     27          6           0       -2.895879   -0.489505   -2.629473
     28          1           0        2.034615   -0.154521   -3.267361
     29          1           0       -2.705105    0.399480   -3.252541
     30          6           0       -0.030093   -4.358629    2.688642
     31          6           0        0.064180   -3.186351    3.713212
     32          7           0        0.189437   -3.770499    1.401783
     33          1           0       -1.049339   -4.774445    2.761894
     34          6           0        0.992192   -5.481866    2.930245
     35          7           0       -0.735825   -2.121693    3.187342
     36          1           0        1.122697   -2.883411    3.780951
     37          6           0       -0.434381   -3.565713    5.121468
     38          1           0        0.875488   -5.841940    3.957820
     39          6           0        2.428058   -5.007361    2.722404
     40          6           0        0.682609   -6.636579    1.977162
     41          1           0        0.086253   -4.477305    5.431643
     42          6           0       -1.940204   -3.812355    5.155168
     43          6           0       -0.068260   -2.448354    6.098505
     44          1           0        1.369438   -7.462927    2.144481
     45          1           0        0.783765   -6.302033    0.947067
     46          1           0       -0.332845   -6.999188    2.124810
     47          1           0        3.107129   -5.856789    2.745768
     48          1           0        2.732185   -4.312103    3.500220
     49          1           0        2.511989   -4.513198    1.758941
     50          1           0       -0.566982   -1.523858    5.814733
     51          1           0        1.005999   -2.274613    6.103560
     52          1           0       -0.377121   -2.711925    7.107447
     53          1           0       -2.266982   -3.972525    6.180304
     54          1           0       -2.210233   -4.690270    4.574422
     55          1           0       -2.462373   -2.950621    4.748598
     56          6           0        1.074639    5.253587    1.479006
     57          6           0        2.536685    5.196609    0.935273
     58          7           0        0.581949    3.916003    1.612147
     59          1           0        0.444723    5.826578    0.776682
     60          6           0        0.934209    5.946954    2.856726
     61          7           0        3.210222    3.947125    1.248261
     62          1           0        3.122486    5.996761    1.399606
     63          6           0        2.576190    5.413997   -0.591685
     64          1           0       -0.114488    5.809810    3.152651
     65          6           0        1.200605    7.446148    2.753936
     66          6           0        1.807503    5.310925    3.934043
     67          1           0        1.895830    4.688297   -1.054060
     68          6           0        3.989138    5.165507   -1.118457
     69          6           0        2.149791    6.827222   -0.986532
     70          1           0        1.570674    5.744006    4.903978
     71          1           0        2.862294    5.485932    3.735409
     72          1           0        1.621840    4.240732    3.981104
     73          1           0        0.559489    7.903281    2.003514
     74          1           0        2.235466    7.644562    2.487004
     75          1           0        1.000515    7.921881    3.711504
     76          1           0        1.118044    7.040092   -0.719485
     77          1           0        2.247872    6.953836   -2.062558
     78          1           0        2.786542    7.561198   -0.497112
     79          1           0        4.671921    5.908043   -0.712542
     80          1           0        4.004356    5.237659   -2.203749
     81          1           0        4.337802    4.183149   -0.820722
     82          6           0       -5.792583    0.494298   -1.376390
     83          6           0       -5.181328   -0.044739   -2.705866
     84          7           0       -4.700090    1.048176   -0.630110
     85          1           0       -6.223543   -0.371760   -0.846844
     86          6           0       -6.884024    1.559257   -1.571514
     87          7           0       -4.063701   -0.856124   -2.328968
     88          1           0       -4.850258    0.824398   -3.300457
     89          6           0       -6.170899   -0.872083   -3.548283
     90          1           0       -7.680116    1.129592   -2.188190
     91          6           0       -6.346320    2.817836   -2.246847
     92          6           0       -7.472086    1.910449   -0.204521
     93          1           0       -7.056545   -0.256099   -3.733576
     94          6           0       -6.590905   -2.161081   -2.847501
     95          6           0       -5.524807   -1.197591   -4.895304
     96          1           0       -7.872089    1.023955    0.283538
     97          1           0       -8.275390    2.635920   -0.310794
     98          1           0       -6.699347    2.335348    0.432171
     99          1           0       -5.453753    3.154847   -1.727763
    100          1           0       -7.094090    3.607117   -2.213517
    101          1           0       -6.098630    2.632375   -3.288758
    102          1           0       -5.227040   -0.287243   -5.412292
    103          1           0       -6.223926   -1.738048   -5.529347
    104          1           0       -4.641924   -1.815907   -4.747758
    105          1           0       -7.174298   -2.779236   -3.526351
    106          1           0       -7.200693   -1.954431   -1.972036
    107          1           0       -5.708103   -2.713850   -2.538272
    108          6           0        5.142016   -2.105282   -2.809902
    109          6           0        4.358557   -0.862505   -2.328745
    110          7           0        4.479790   -2.573053   -4.024843
    111          1           0        5.085438   -2.853177   -1.999562
    112          6           0        6.628886   -1.834495   -3.108330
    113          7           0        3.071777   -1.324648   -1.906731
    114          1           0        4.273089   -0.168785   -3.183847
    115          6           0        4.997507   -0.105798   -1.143250
    116          1           0        7.088801   -1.445789   -2.194984
    117          6           0        6.802742   -0.817445   -4.232828
    118          6           0        7.353618   -3.134705   -3.463454
    119          1           0        5.987226    0.238841   -1.456729
    120          6           0        5.135729   -0.990093    0.092615
    121          6           0        4.155604    1.126750   -0.812351
    122          1           0        7.154257   -3.905349   -2.720872
    123          1           0        8.427481   -2.964027   -3.496434
    124          1           0        7.042455   -3.497891   -4.439716
    125          1           0        6.214903   -1.124777   -5.093206
    126          1           0        7.849235   -0.752742   -4.522146
    127          1           0        6.473120    0.170055   -3.921643
    128          1           0        4.636324    1.716865   -0.035858
    129          1           0        3.170483    0.828156   -0.458853
    130          1           0        4.029531    1.754398   -1.692415
    131          1           0        4.170051   -1.417389    0.348077
    132          1           0        5.492545   -0.398056    0.932770
    133          1           0        5.840585   -1.799236   -0.078357
    134          1           0       -1.837007   -3.705538    0.988442
    135          1           0        2.677695    3.177988    0.852522
    136          1           0        3.220248    3.807774    2.251546
    137          1           0        3.490410   -2.703466   -3.841496
    138          1           0        4.857831   -3.472068   -4.301370
 ---------------------------------------------------------------------

 SCF Done:  E(RHF) =  -2375.77820512     a.u. after    7 cycles
 SCF Done:  E(RHF) =  -2375.77827437     A.U. after   51 cycles
 E2 =    -0.8675782076D+01 EUMP2 =    -0.23844540564430D+04

 The electronic state is 1-A.
 Alpha  occ. eigenvalues --  -15.55754 -15.55742 -15.55584 -15.55570 -15.55310
 Alpha  occ. eigenvalues --  -15.55182 -15.53946 -15.53133 -11.28532 -11.28523
 Alpha  occ. eigenvalues --  -11.28446 -11.28310 -11.28237 -11.28126 -11.25675
 Alpha  occ. eigenvalues --  -11.25453 -11.25379 -11.25285 -11.25279 -11.25247
 Alpha  occ. eigenvalues --  -11.25231 -11.25222 -11.25183 -11.25048 -11.25022
 Alpha  occ. eigenvalues --  -11.25001 -11.24991 -11.24987 -11.24977 -11.24909
 Alpha  occ. eigenvalues --  -11.24892 -11.24855 -11.24829 -11.24677 -11.22747
 Alpha  occ. eigenvalues --  -11.22714 -11.22665 -11.22542 -11.22465 -11.22404
 Alpha  occ. eigenvalues --  -11.22271 -11.22230 -11.21308 -11.21200 -11.21135
 Alpha  occ. eigenvalues --  -11.21100 -11.21085 -11.21045 -11.20972 -11.20927
 Alpha  occ. eigenvalues --  -11.20828 -11.20769 -11.20752 -11.20629 -11.20594
 Alpha  occ. eigenvalues --  -11.20561 -11.20484 -11.20140  -1.26805  -1.26594
 Alpha  occ. eigenvalues --   -1.25560  -1.25386  -1.23283  -1.22818  -1.18615
 Alpha  occ. eigenvalues --   -1.18372  -1.17267  -1.16529  -1.10539  -1.09749
 Alpha  occ. eigenvalues --   -1.08581  -1.08191  -1.07554  -1.06843  -1.06082
 Alpha  occ. eigenvalues --   -1.05800  -1.05001  -1.04807  -1.04501  -1.04136
 Alpha  occ. eigenvalues --   -0.97793  -0.97083  -0.96236  -0.95881  -0.93087
 Alpha  occ. eigenvalues --   -0.92908  -0.92824  -0.92683  -0.92574  -0.92474
 Alpha  occ. eigenvalues --   -0.92414  -0.92122  -0.91006  -0.90610  -0.89004
 Alpha  occ. eigenvalues --   -0.88467  -0.87667  -0.85867  -0.84785  -0.84278
 Alpha  occ. eigenvalues --   -0.83137  -0.82008  -0.79098  -0.78711  -0.77715
 Alpha  occ. eigenvalues --   -0.77283  -0.76863  -0.76299  -0.75752  -0.74825
 Alpha  occ. eigenvalues --   -0.73933  -0.73476  -0.73002  -0.72584  -0.70838
 Alpha  occ. eigenvalues --   -0.70440  -0.68489  -0.68317  -0.67614  -0.67245
 Alpha  occ. eigenvalues --   -0.66849  -0.66151  -0.66000  -0.65739  -0.65213
 Alpha  occ. eigenvalues --   -0.64615  -0.64300  -0.63750  -0.63569  -0.63330
 Alpha  occ. eigenvalues --   -0.62664  -0.62119  -0.61671  -0.61341  -0.60960
 Alpha  occ. eigenvalues --   -0.60303  -0.60082  -0.59916  -0.59771  -0.59567
 Alpha  occ. eigenvalues --   -0.59272  -0.58614  -0.58383  -0.58123  -0.57773
 Alpha  occ. eigenvalues --   -0.57678  -0.57633  -0.57357  -0.56953  -0.56707
 Alpha  occ. eigenvalues --   -0.56346  -0.56231  -0.56012  -0.55845  -0.54546
 Alpha  occ. eigenvalues --   -0.54219  -0.54100  -0.54004  -0.53934  -0.53648
 Alpha  occ. eigenvalues --   -0.53405  -0.53280  -0.53222  -0.53047  -0.52710
 Alpha  occ. eigenvalues --   -0.52688  -0.52562  -0.52392  -0.52263  -0.52135
 Alpha  occ. eigenvalues --   -0.51981  -0.51739  -0.51680  -0.51459  -0.51245
 Alpha  occ. eigenvalues --   -0.50308  -0.49742  -0.49656  -0.48401  -0.48302
 Alpha  occ. eigenvalues --   -0.47975  -0.47850  -0.47775  -0.47407  -0.47127
 Alpha  occ. eigenvalues --   -0.47105  -0.47037  -0.47006  -0.46791  -0.46693
 Alpha  occ. eigenvalues --   -0.46591  -0.46281  -0.45989  -0.45775  -0.45672
 Alpha  occ. eigenvalues --   -0.45490  -0.45397  -0.45306  -0.45120  -0.44352
 Alpha  occ. eigenvalues --   -0.43930  -0.43240  -0.42895  -0.42569  -0.40392
 Alpha  occ. eigenvalues --   -0.40321  -0.40046  -0.39954  -0.39861  -0.39477
 Alpha  occ. eigenvalues --   -0.39118  -0.38847  -0.38050  -0.37067  -0.33135
 Alpha  occ. eigenvalues --   -0.32588  -0.31736  -0.31299
 Alpha virt. eigenvalues --    0.03027   0.03242   0.03365   0.03529   0.03851
 Alpha virt. eigenvalues --    0.03916   0.04069   0.04189   0.04307   0.04684
 Alpha virt. eigenvalues --    0.04806   0.04833   0.05075   0.05197   0.05224

 Mulliken charges:
               1
     1  C    1.656046
     2  C    0.524960
     3  C    0.112245
     4  C    1.099382
     5  H   -0.740873
     6  C    0.426573
     7  C    1.477401
     8  H   -0.991052
     9  C    0.246323
    10  C    0.522481
    11  H   -1.220707
    12  C    0.001008
    13  H   -0.870962
    14  H   -1.100429
    15  H   -0.809482
    16  C    1.862733
    17  C    0.251178
    18  C    0.293121
    19  C    0.803154
    20  H   -1.074132
    21  C    0.310443
    22  C    1.465648
    23  H   -0.866241
    24  C    0.061647
    25  C    0.478581
    26  H   -1.303671
    27  C    0.857506
    28  H   -0.813658
    29  H   -0.998732
    30  C    0.241956
    31  C   -0.102843
    32  N   -0.330652
    33  H   -0.394220
    34  C   -0.924111
    35  N   -0.157755
    36  H   -0.290102
    37  C   -0.868708
    38  H   -0.337218
    39  C    1.071329
    40  C    1.062167
    41  H   -0.301578
    42  C    1.146457
    43  C    1.150826
    44  H   -0.152118
    45  H   -0.007559
    46  H   -0.087919
    47  H   -0.154227
    48  H   -0.150022
    49  H   -0.047106
    50  H    0.040171
    51  H   -0.088493
    52  H   -0.181241
    53  H   -0.183705
    54  H   -0.136958
    55  H   -0.043956
    56  C   -0.416427
    57  C    0.890179
    58  N    0.341610
    59  H   -0.625754
    60  C   -0.763293
    61  N   -0.515268
    62  H   -0.594176
    63  C   -1.464659
    64  H   -0.218102
    65  C    1.205242
    66  C    1.115578
    67  H   -0.313842
    68  C    1.320335
    69  C    1.433235
    70  H   -0.195304
    71  H    0.002445
    72  H   -0.080963
    73  H    0.008079
    74  H    0.019316
    75  H   -0.113094
    76  H   -0.074764
    77  H   -0.143177
    78  H    0.018346
    79  H    0.031412
    80  H   -0.086660
    81  H   -0.426364
    82  C    0.173736
    83  C   -0.137187
    84  N   -0.697276
    85  H   -0.382282
    86  C   -0.948689
    87  N   -0.181163
    88  H   -0.289249
    89  C   -0.971832
    90  H   -0.288007
    91  C    1.150736
    92  C    1.126997
    93  H   -0.299281
    94  C    1.130846
    95  C    1.168534
    96  H   -0.084597
    97  H   -0.153032
    98  H    0.000992
    99  H   -0.085072
   100  H   -0.158448
   101  H   -0.110127
   102  H   -0.080037
   103  H   -0.176063
   104  H    0.063398
   105  H   -0.177466
   106  H   -0.131650
   107  H   -0.052687
   108  C    0.467655
   109  C   -0.480617
   110  N   -0.220791
   111  H   -0.332288
   112  C   -1.377136
   113  N    0.040199
   114  H   -0.440799
   115  C   -0.254585
   116  H   -0.277496
   117  C    1.277516
   118  C    1.262124
   119  H   -0.418483
   120  C    1.372958
   121  C    0.663389
   122  H   -0.043998
   123  H   -0.088599
   124  H   -0.059770
   125  H    0.070615
   126  H   -0.175408
   127  H   -0.118298
   128  H   -0.301841
   129  H   -0.321826
   130  H   -0.083634
   131  H   -0.124633
   132  H   -0.138462
   133  H   -0.154108
   134  H   -0.924206
   135  H    0.030146
   136  H   -0.026803
   137  H    0.010764
   138  H   -0.029511
 Sum of Mulliken charges =   0.00000

 Dipole moment (field-independent basis, Debye):
    X=             -2.8602    Y=              1.0660    Z=             -0.0415  Tot=              3.0527
 Quadrupole moment (field-independent basis, Debye-Ang):
   XX=           -370.6141   YY=           -359.4189   ZZ=           -365.1085
   XY=             -4.7796   XZ=             11.7809   YZ=             -7.8689

 Normal termination of Gaussian 16 at Thu Nov  4 07:24:08 2021.
