 Gaussian 16, Revision C.01,
 Gaussian 16:  ES64L-G16RevC.01  3-Jul-2019

 ----------------------------------------------------------------------
 #P MP2/aug-cc-pVDZ SP SCF=(YQC,MaxCycle=900) int=(Grid=Superfinegrid)
 SCRF=(PCM,Solvent=Chloroform)
 ----------------------------------------------------------------------

 -----------------------------
 _2_alde1_4_ami3_1_opt_cfm_mp2
 -----------------------------
 Symbolic Z-matrix:
 Charge =  0 Multiplicity = 1

                         Standard orientation:
 ---------------------------------------------------------------------
 Center     Atomic      Atomic             Coordinates (Angstroms)
 Number     Number       Type             X           Y           Z
 ---------------------------------------------------------------------
      1          6           0        1.850040    1.154403   -1.930407
      2          6           0        2.751299    2.146725   -1.368995
      3          6           0        0.663136    1.522196   -2.563079
      4          6           0       -0.233611    0.555370   -2.995045
      5          1           0        0.449819    2.571043   -2.699353
      6          6           0        0.035609   -0.784404   -2.757720
      7          6           0        1.218443   -1.169613   -2.128508
      8          1           0       -0.682049   -1.524949   -3.077385
      9          6           0        2.132742   -0.194276   -1.743991
     10          6           0        1.448200   -2.563211   -1.776955
     11          1           0        3.045528   -0.510249   -1.264189
     12          6           0       -1.518658    0.990203   -3.662143
     13          1           0        0.552673   -3.206017   -1.785907
     14          1           0        3.692414    1.744827   -0.963119
     15          6           0        1.218165    1.169815    2.128516
     16          6           0        1.447609    2.563473    1.776882
     17          6           0        2.132655    0.194691    1.743876
     18          6           0        1.850184   -1.154052    1.930306
     19          1           0        3.045388    0.510753    1.264128
     20          6           0        0.663391   -1.522173    2.563040
     21          6           0       -0.233471   -0.555514    2.994959
     22          1           0        0.450233   -2.571030    2.699318
     23          6           0        0.035433    0.784311    2.757775
     24          6           0       -1.518471   -0.990520    3.662203
     25          1           0       -0.682394    1.524741    3.077435
     26          6           0        2.751726   -2.146168    1.368902
     27          1           0        3.692633   -1.744113    0.962971
     28          6           0        2.702833    4.325049    0.912894
     29          6           0        3.322787    4.210093   -0.503218
     30          7           0        2.578429    2.997392    1.426078
     31          7           0        2.458033    3.371046   -1.274739
     32          6           0       -3.436822   -0.159419   -3.066633
     33          6           0       -3.650815    1.339618   -2.794138
     34          7           0       -2.354662   -0.161579   -4.040028
     35          7           0       -2.296201    1.868684   -2.755693
     36          6           0        2.703775   -4.324576   -0.912840
     37          6           0        3.323659   -4.209488    0.503195
     38          7           0        2.579050   -2.996913   -1.425968
     39          7           0        2.458696   -3.370590    1.274740
     40          6           0       -3.650524   -1.340334    2.794076
     41          6           0       -3.436824    0.158812    3.066760
     42          7           0       -2.295870   -1.869135    2.755732
     43          7           0       -2.354698    0.160946    4.040140
     44          1           0        0.551935    3.206086    1.785827
     45          1           0       -1.919490   -1.798167    1.813807
     46          1           0       -1.264889   -1.570151    4.561026
     47          1           0       -2.735229    0.025159    4.971285
     48          1           0       -1.919805    1.797709   -1.813737
     49          1           0       -2.735236   -0.025933   -4.971274
     50          1           0       -1.265154    1.569786   -4.561102
     51          6           0       -4.747827    0.819612    3.439606
     52          6           0       -4.538997    1.528838   -1.581858
     53          6           0        3.620899    5.178329    1.788138
     54          6           0        3.450905   -5.600709    1.115020
     55          1           0        1.717793    4.818654    0.822556
     56          6           0        3.449689    5.601373   -1.114935
     57          1           0        4.322740    3.755801   -0.383258
     58          6           0        4.336453    6.481321   -0.239307
     59          1           0        2.453540    6.036521   -1.208221
     60          1           0        3.873233    5.513739   -2.117354
     61          6           0        3.782982    6.568117    1.180603
     62          1           0        4.405839    7.481468   -0.671741
     63          1           0        5.343790    6.059350   -0.208542
     64          1           0        2.810942    7.066711    1.159338
     65          1           0        4.451860    7.164915    1.804279
     66          1           0        4.589850    4.683210    1.870719
     67          1           0        3.192718    5.249450    2.790519
     68          1           0       -4.140789    1.788277   -3.671693
     69          6           0       -5.878324    0.847485   -1.881872
     70          1           0       -4.692167    2.588745   -1.371848
     71          1           0       -4.068197    1.071333   -0.707325
     72          6           0       -5.712752   -0.626540   -2.264951
     73          1           0       -6.362902    1.378102   -2.704727
     74          1           0       -6.531701    0.920853   -1.010159
     75          6           0       -4.747782   -0.820520   -3.439523
     76          1           0       -6.689435   -1.041662   -2.521236
     77          1           0       -5.332683   -1.181375   -1.404344
     78          1           0       -5.154066   -0.354965   -4.341125
     79          1           0       -4.605588   -1.883724   -3.639532
     80          1           0       -3.040811   -0.627615   -2.152960
     81          1           0       -3.040840    0.627087    2.153088
     82          6           0       -5.712759    0.625646    2.264928
     83          1           0       -4.605803    1.882943    3.639599
     84          1           0       -5.154083    0.353996    4.341035
     85          6           0       -5.878145   -0.848415    1.881844
     86          1           0       -5.332740    1.180508    1.404369
     87          1           0       -6.689509    1.040640    2.521201
     88          6           0       -4.538714   -1.529630    1.581749
     89          1           0       -6.531438   -0.921879    1.010001
     90          1           0       -6.362662   -1.379119    2.704652
     91          1           0       -4.691707   -2.589441    1.371756
     92          1           0       -4.067959   -1.071933    0.707349
     93          1           0       -4.140513   -1.789075    3.671602
     94          1           0        4.323547   -3.755016    0.383256
     95          6           0        3.621971   -5.177582   -1.788134
     96          1           0        1.718755   -4.818318   -0.822523
     97          6           0        3.784352   -6.567369   -1.180640
     98          1           0        4.590843   -4.682231   -1.870659
     99          1           0        3.193852   -5.248764   -2.790492
    100          6           0        4.337735   -6.480500    0.239361
    101          1           0        4.453317   -7.164038   -1.804254
    102          1           0        2.812437   -7.066219   -1.159283
    103          1           0        5.345068   -6.058233    0.208576
    104          1           0        4.407416   -7.480648    0.671823
    105          1           0        2.454777   -6.036193    1.208203
    106          1           0        3.874392   -5.513097    2.117345
 ---------------------------------------------------------------------

 SCF Done:  E(RHF) =  -2058.88418587     a.u. after    7 cycles
 SCF Done:  E(RHF) =  -2058.88424166     A.U. after   19 cycles
 E2 =    -0.7340605522D+01 EUMP2 =    -0.20662248471842D+04

 The electronic state is 1-A.
 Alpha  occ. eigenvalues --  -15.55692 -15.55691 -15.55424 -15.55424 -15.55199
 Alpha  occ. eigenvalues --  -15.55198 -15.55076 -15.55074 -11.29172 -11.29171
 Alpha  occ. eigenvalues --  -11.28289 -11.28289 -11.28052 -11.28052 -11.25379
 Alpha  occ. eigenvalues --  -11.25378 -11.25177 -11.25177 -11.24983 -11.24983
 Alpha  occ. eigenvalues --  -11.24871 -11.24871 -11.24518 -11.24518 -11.24484
 Alpha  occ. eigenvalues --  -11.24484 -11.24333 -11.24332 -11.24232 -11.24232
 Alpha  occ. eigenvalues --  -11.24096 -11.24095 -11.24020 -11.24019 -11.22522
 Alpha  occ. eigenvalues --  -11.22521 -11.22500 -11.22500 -11.22462 -11.22462
 Alpha  occ. eigenvalues --  -11.22418 -11.22418 -11.21885 -11.21885 -11.21830
 Alpha  occ. eigenvalues --  -11.21829 -11.21771 -11.21769 -11.21611 -11.21611
 Alpha  occ. eigenvalues --   -1.27953  -1.27947  -1.26371  -1.26210  -1.23219
 Alpha  occ. eigenvalues --   -1.22793  -1.17180  -1.16351  -1.14963  -1.14961
 Alpha  occ. eigenvalues --   -1.11587  -1.11516  -1.11186  -1.10603  -1.05433
 Alpha  occ. eigenvalues --   -1.05270  -1.05137  -1.04964  -1.00412  -1.00151
 Alpha  occ. eigenvalues --   -1.00146  -0.99870  -0.99734  -0.98513  -0.97864
 Alpha  occ. eigenvalues --   -0.97826  -0.89694  -0.89189  -0.88231  -0.87985
 Alpha  occ. eigenvalues --   -0.87392  -0.86188  -0.83125  -0.83064  -0.82622
 Alpha  occ. eigenvalues --   -0.82069  -0.82024  -0.81756  -0.81384  -0.80586
 Alpha  occ. eigenvalues --   -0.78333  -0.77947  -0.77096  -0.76753  -0.76135
 Alpha  occ. eigenvalues --   -0.75709  -0.74599  -0.73835  -0.70304  -0.69887
 Alpha  occ. eigenvalues --   -0.68975  -0.68689  -0.67229  -0.66965  -0.66643
 Alpha  occ. eigenvalues --   -0.66289  -0.65782  -0.64988  -0.64147  -0.64110
 Alpha  occ. eigenvalues --   -0.63310  -0.63299  -0.63089  -0.62655  -0.62384
 Alpha  occ. eigenvalues --   -0.62135  -0.61542  -0.60690  -0.60620  -0.60053
 Alpha  occ. eigenvalues --   -0.59546  -0.59538  -0.59078  -0.59020  -0.58589
 Alpha  occ. eigenvalues --   -0.58437  -0.57503  -0.57366  -0.55987  -0.55768
 Alpha  occ. eigenvalues --   -0.55458  -0.55389  -0.54985  -0.54929  -0.54310
 Alpha  occ. eigenvalues --   -0.54210  -0.53663  -0.53421  -0.52579  -0.52541
 Alpha  occ. eigenvalues --   -0.51986  -0.51250  -0.50977  -0.50604  -0.50329
 Alpha  occ. eigenvalues --   -0.50083  -0.49296  -0.49273  -0.49053  -0.49050
 Alpha  occ. eigenvalues --   -0.48752  -0.48388  -0.48000  -0.47913  -0.47103
 Alpha  occ. eigenvalues --   -0.46893  -0.46880  -0.46447  -0.46112  -0.46087
 Alpha  occ. eigenvalues --   -0.45545  -0.45354  -0.45177  -0.45094  -0.44969
 Alpha  occ. eigenvalues --   -0.44942  -0.43313  -0.42288  -0.41187  -0.40683
 Alpha  occ. eigenvalues --   -0.40404  -0.40188  -0.39522  -0.39426  -0.37972
 Alpha  occ. eigenvalues --   -0.37942  -0.37344  -0.37342  -0.33119  -0.31958
 Alpha  occ. eigenvalues --   -0.31779  -0.31672
 Alpha virt. eigenvalues --    0.03183   0.03497   0.03545   0.03617   0.03970
 Alpha virt. eigenvalues --    0.04051   0.04276   0.04349   0.04461   0.04892
 Alpha virt. eigenvalues --    0.04964   0.05219   0.05232   0.05482   0.05696

 Mulliken charges:
               1
     1  C    1.484919
     2  C    0.438741
     3  C   -0.080739
     4  C    0.192530
     5  H   -1.083602
     6  C    0.766409
     7  C    1.327896
     8  H   -0.857851
     9  C    0.491327
    10  C    0.407881
    11  H   -1.043995
    12  C    0.960260
    13  H   -0.788333
    14  H   -0.722632
    15  C    1.327655
    16  C    0.408290
    17  C    0.491238
    18  C    1.485242
    19  H   -1.044168
    20  C   -0.080462
    21  C    0.192881
    22  H   -1.083639
    23  C    0.766045
    24  C    0.960620
    25  H   -0.857726
    26  C    0.439596
    27  H   -0.723155
    28  C   -0.220223
    29  C   -0.009699
    30  N   -0.454274
    31  N   -0.535212
    32  C   -0.113934
    33  C   -0.021783
    34  N   -0.789313
    35  N   -0.520030
    36  C   -0.221276
    37  C   -0.009668
    38  N   -0.454063
    39  N   -0.535467
    40  C   -0.021742
    41  C   -0.114324
    42  N   -0.520082
    43  N   -0.789029
    44  H   -0.788276
    45  H    0.244507
    46  H   -0.220074
    47  H    0.101216
    48  H    0.244569
    49  H    0.101358
    50  H   -0.219615
    51  C    0.748857
    52  C    1.005053
    53  C    0.705163
    54  C    0.762065
    55  H   -0.313027
    56  C    0.761736
    57  H   -0.374403
    58  C    0.534352
    59  H   -0.118860
    60  H   -0.206366
    61  C    0.543677
    62  H   -0.143893
    63  H   -0.082728
    64  H   -0.080335
    65  H   -0.142268
    66  H   -0.126178
    67  H   -0.240751
    68  H   -0.460341
    69  C    0.619738
    70  H   -0.240054
    71  H    0.036951
    72  C    0.417589
    73  H   -0.131410
    74  H   -0.242923
    75  C    0.749304
    76  H   -0.188042
    77  H   -0.212132
    78  H   -0.026319
    79  H   -0.135962
    80  H   -0.862292
    81  H   -0.862186
    82  C    0.417827
    83  H   -0.135469
    84  H   -0.026624
    85  C    0.619339
    86  H   -0.212393
    87  H   -0.188027
    88  C    1.006007
    89  H   -0.242653
    90  H   -0.131551
    91  H   -0.240515
    92  H    0.036684
    93  H   -0.460258
    94  H   -0.374280
    95  C    0.705485
    96  H   -0.312811
    97  C    0.544026
    98  H   -0.126005
    99  H   -0.240882
   100  C    0.533565
   101  H   -0.142454
   102  H   -0.080292
   103  H   -0.082372
   104  H   -0.143931
   105  H   -0.118442
   106  H   -0.206780
 Sum of Mulliken charges =   0.00000

 Dipole moment (field-independent basis, Debye):
    X=             -5.3690    Y=             -0.0002    Z=             -0.0005  Tot=              5.3690
 Quadrupole moment (field-independent basis, Debye-Ang):
   XX=           -274.7365   YY=           -303.6489   ZZ=           -304.8337
   XY=              0.0023   XZ=             -0.0013   YZ=              8.9606

 Normal termination of Gaussian 16 at Mon Nov  8 07:05:51 2021.
