 Gaussian 16, Revision C.01,
 Gaussian 16:  ES64L-G16RevC.01  3-Jul-2019

 ----------------------------------------------------------------------
 #P MP2/aug-cc-pVDZ SP SCF=(YQC,MaxCycle=900) int=(Grid=Superfinegrid)
 SCRF=(PCM,Solvent=Chloroform)
 ----------------------------------------------------------------------

 -----------------------------
 _2_alde1_4_ami2_2_opt_cfm_mp2
 -----------------------------
 Symbolic Z-matrix:
 Charge =  0 Multiplicity = 1

                         Standard orientation:
 ---------------------------------------------------------------------
 Center     Atomic      Atomic             Coordinates (Angstroms)
 Number     Number       Type             X           Y           Z
 ---------------------------------------------------------------------
      1          6           0       -2.436857   -1.447134   -1.149762
      2          6           0       -1.973667   -1.793561   -2.486512
      3          6           0       -3.241430   -0.333160   -0.943384
      4          6           0       -3.608179    0.049707    0.347892
      5          1           0       -3.602408    0.252354   -1.775207
      6          6           0       -3.119935   -0.664627    1.436931
      7          6           0       -2.311421   -1.783813    1.244715
      8          1           0       -3.352684   -0.365675    2.447687
      9          6           0       -2.002881   -2.184914   -0.049654
     10          6           0       -1.710595   -2.488837    2.365688
     11          1           0       -1.391223   -3.054571   -0.229024
     12          6           0       -4.476987    1.197937    0.561527
     13          1           0       -1.182431   -3.418833    2.107648
     14          1           0       -2.104582   -1.012519   -3.251661
     15          6           0        1.685618   -1.695475   -0.818341
     16          6           0        1.224038   -2.758695   -1.701743
     17          6           0        1.425004   -1.779670    0.544353
     18          6           0        1.746549   -0.727495    1.400553
     19          1           0        0.942903   -2.647378    0.965797
     20          6           0        2.384232    0.394040    0.884865
     21          6           0        2.694538    0.474600   -0.473636
     22          1           0        2.652021    1.224870    1.520265
     23          6           0        2.324209   -0.563219   -1.321635
     24          6           0        3.388590    1.639025   -1.003459
     25          1           0        2.518768   -0.514110   -2.382329
     26          6           0        1.351099   -0.767523    2.805106
     27          1           0        3.557918    1.639114   -2.093157
     28          1           0        1.436253    0.193452    3.326495
     29          6           0        0.632425   -3.602517   -3.828991
     30          6           0       -0.841135   -3.136927   -4.019446
     31          7           0        1.243019   -2.630762   -2.956392
     32          7           0       -1.418977   -2.897408   -2.738713
     33          6           0       -5.787223    2.990785   -0.159228
     34          6           0       -5.144582    4.268688   -0.776025
     35          7           0       -4.953459    1.862418   -0.399377
     36          7           0       -4.817845    4.089847   -2.179849
     37          6           0       -0.934285   -2.700291    4.527972
     38          6           0        0.406091   -1.918967    4.673160
     39          7           0       -1.733896   -2.041421    3.546004
     40          7           0        0.918597   -1.826397    3.331935
     41          6           0        6.000433    3.570989   -0.344758
     42          6           0        4.509665    3.670921   -0.795642
     43          7           0        6.636368    2.357194   -0.824692
     44          7           0        3.767323    2.585209   -0.258227
     45          1           0       -4.189962    3.299228   -2.279103
     46          1           0       -5.656417    3.882761   -2.712107
     47          1           0        6.171827    1.539685   -0.443912
     48          1           0        6.593460    2.303584   -1.836781
     49          1           0       -5.988400    3.154986    0.912713
     50          1           0       -6.737542    2.806195   -0.672809
     51          1           0       -1.391913   -3.947506   -4.505160
     52          1           0       -0.868176   -2.244827   -4.665212
     53          1           0        4.475863    3.701921   -1.899779
     54          1           0        4.088073    4.596065   -0.395963
     55          6           0        6.074141    3.572351    1.181598
     56          1           0        5.713781    4.516679    1.579456
     57          1           0        7.103959    3.422115    1.493500
     58          1           0        5.461216    2.768994    1.581180
     59          6           0        6.767772    4.763051   -0.917800
     60          1           0        7.813245    4.685530   -0.633012
     61          1           0        6.364085    5.697862   -0.538768
     62          1           0        6.707295    4.773014   -2.004268
     63          6           0       -3.850923    4.599927   -0.029442
     64          1           0       -3.380679    5.464142   -0.489621
     65          1           0       -3.160015    3.761043   -0.081319
     66          1           0       -4.056357    4.820421    1.015000
     67          6           0       -6.133119    5.429001   -0.654548
     68          1           0       -7.059344    5.200187   -1.177505
     69          1           0       -5.697923    6.319230   -1.099723
     70          1           0       -6.363746    5.630445    0.388267
     71          6           0        0.141254   -0.589628    5.385795
     72          1           0       -0.562577    0.005635    4.808937
     73          1           0        1.064430   -0.030101    5.523535
     74          1           0       -0.286771   -0.783949    6.365491
     75          1           0       -1.462958   -2.687646    5.482886
     76          1           0       -0.698486   -3.736910    4.243002
     77          6           0        1.393097   -2.767347    5.483227
     78          1           0        2.315893   -2.212484    5.637891
     79          1           0        1.627883   -3.682460    4.945647
     80          1           0        0.966127   -3.020793    6.450120
     81          6           0        0.633501   -5.045316   -3.308955
     82          1           0        1.623023   -5.312592   -2.942422
     83          1           0        0.367338   -5.721463   -4.117481
     84          1           0       -0.092714   -5.165127   -2.509693
     85          6           0        1.366489   -3.521269   -5.169568
     86          1           0        1.447089   -2.483785   -5.482175
     87          1           0        0.836232   -4.084933   -5.933157
     88          1           0        2.369621   -3.927012   -5.063224
     89          1           0       -4.701338    1.439351    1.612248
     90          1           0        0.829280   -3.638764   -1.183137
 ---------------------------------------------------------------------

 SCF Done:  E(RHF) =  -1751.20835900     a.u. after    7 cycles
 SCF Done:  E(RHF) =  -1751.20842842     A.U. after   12 cycles
 E2 =    -0.6207220144D+01 EUMP2 =    -0.17574156485672D+04

 The electronic state is 1-A.
 Alpha  occ. eigenvalues --  -15.56340 -15.56333 -15.56163 -15.55922 -15.55833
 Alpha  occ. eigenvalues --  -15.55443 -15.54274 -15.53975 -11.28867 -11.28818
 Alpha  occ. eigenvalues --  -11.28802 -11.28534 -11.28513 -11.28371 -11.26890
 Alpha  occ. eigenvalues --  -11.26637 -11.26214 -11.26169 -11.25615 -11.25488
 Alpha  occ. eigenvalues --  -11.25451 -11.25430 -11.25252 -11.25229 -11.25204
 Alpha  occ. eigenvalues --  -11.25198 -11.25188 -11.25180 -11.25126 -11.25088
 Alpha  occ. eigenvalues --  -11.25039 -11.24976 -11.24972 -11.24920 -11.21818
 Alpha  occ. eigenvalues --  -11.21508 -11.21493 -11.21371 -11.21371 -11.21325
 Alpha  occ. eigenvalues --  -11.21034 -11.20788  -1.26655  -1.26441  -1.25434
 Alpha  occ. eigenvalues --   -1.25393  -1.23511  -1.23048  -1.19275  -1.19199
 Alpha  occ. eigenvalues --   -1.17457  -1.16699  -1.09389  -1.08152  -1.06230
 Alpha  occ. eigenvalues --   -1.05741  -1.04775  -1.02799  -1.02451  -1.02399
 Alpha  occ. eigenvalues --   -0.95383  -0.94783  -0.94668  -0.94461  -0.94069
 Alpha  occ. eigenvalues --   -0.93941  -0.93567  -0.93500  -0.89718  -0.88923
 Alpha  occ. eigenvalues --   -0.86848  -0.86782  -0.85231  -0.82746  -0.80232
 Alpha  occ. eigenvalues --   -0.77834  -0.76032  -0.75547  -0.75062  -0.74434
 Alpha  occ. eigenvalues --   -0.73277  -0.71983  -0.71095  -0.70832  -0.69292
 Alpha  occ. eigenvalues --   -0.67652  -0.66882  -0.66684  -0.66547  -0.66086
 Alpha  occ. eigenvalues --   -0.65688  -0.64863  -0.64497  -0.64279  -0.63467
 Alpha  occ. eigenvalues --   -0.63246  -0.62599  -0.62232  -0.62138  -0.61881
 Alpha  occ. eigenvalues --   -0.61507  -0.60914  -0.60425  -0.60064  -0.59893
 Alpha  occ. eigenvalues --   -0.59380  -0.57291  -0.56671  -0.56002  -0.55617
 Alpha  occ. eigenvalues --   -0.55403  -0.54927  -0.54502  -0.54279  -0.53823
 Alpha  occ. eigenvalues --   -0.53571  -0.53416  -0.53139  -0.52974  -0.52819
 Alpha  occ. eigenvalues --   -0.52725  -0.52683  -0.52249  -0.51706  -0.51353
 Alpha  occ. eigenvalues --   -0.51038  -0.50803  -0.50408  -0.49838  -0.49313
 Alpha  occ. eigenvalues --   -0.49154  -0.48518  -0.48177  -0.47689  -0.46933
 Alpha  occ. eigenvalues --   -0.46766  -0.45483  -0.45414  -0.45030  -0.44197
 Alpha  occ. eigenvalues --   -0.41208  -0.40820  -0.40586  -0.40416  -0.40334
 Alpha  occ. eigenvalues --   -0.40162  -0.39427  -0.39212  -0.38179  -0.37986
 Alpha  occ. eigenvalues --   -0.32858  -0.32600  -0.32290  -0.31780
 Alpha virt. eigenvalues --    0.03211   0.03564   0.03609   0.03845   0.04300
 Alpha virt. eigenvalues --    0.04384   0.04403   0.04444   0.04614   0.05019
 Alpha virt. eigenvalues --    0.05432   0.05495   0.05572   0.05613   0.05660

 Mulliken charges:
               1
     1  C    0.933481
     2  C    0.549687
     3  C    0.110287
     4  C    0.673284
     5  H   -0.849676
     6  C    0.683830
     7  C    0.891575
     8  H   -0.936750
     9  C    0.418312
    10  C    0.750902
    11  H   -0.985296
    12  C    0.626070
    13  H   -0.635340
    14  H   -0.717231
    15  C    1.379271
    16  C    0.422356
    17  C    0.212830
    18  C    0.706246
    19  H   -1.114964
    20  C    0.088094
    21  C    0.929782
    22  H   -0.887356
    23  C    0.387045
    24  C    0.807279
    25  H   -0.922055
    26  C    0.414128
    27  H   -0.703329
    28  H   -0.913974
    29  C   -3.523511
    30  C    1.394073
    31  N   -0.395491
    32  N   -0.485909
    33  C    1.653313
    34  C   -3.673884
    35  N   -0.470970
    36  N   -0.044493
    37  C    1.247837
    38  C   -3.207890
    39  N   -0.716264
    40  N    0.076756
    41  C   -3.643209
    42  C    1.619068
    43  N   -0.079157
    44  N   -0.484821
    45  H    0.025021
    46  H   -0.006245
    47  H    0.027528
    48  H   -0.007728
    49  H   -0.145196
    50  H   -0.258564
    51  H   -0.199996
    52  H   -0.154080
    53  H   -0.178147
    54  H   -0.222734
    55  C    1.426999
    56  H   -0.006366
    57  H    0.016126
    58  H   -0.041219
    59  C    1.452478
    60  H    0.051175
    61  H    0.019878
    62  H   -0.053876
    63  C    1.466692
    64  H   -0.042687
    65  H   -0.027033
    66  H    0.000880
    67  C    1.446019
    68  H   -0.046814
    69  H    0.044335
    70  H    0.010400
    71  C    1.540000
    72  H    0.067155
    73  H    0.043061
    74  H   -0.175544
    75  H   -0.280041
    76  H   -0.123574
    77  C    1.453850
    78  H   -0.067415
    79  H   -0.068043
    80  H    0.013138
    81  C    1.478611
    82  H    0.028631
    83  H   -0.138834
    84  H    0.059168
    85  C    1.507936
    86  H   -0.036335
    87  H   -0.001500
    88  H   -0.025459
    89  H   -0.679314
    90  H   -0.776275
 Sum of Mulliken charges =   0.00000

 Dipole moment (field-independent basis, Debye):
    X=             -1.9729    Y=             -1.0369    Z=              0.3163  Tot=              2.2512
 Quadrupole moment (field-independent basis, Debye-Ang):
   XX=           -274.4300   YY=           -258.4617   ZZ=           -241.0371
   XY=             -2.5370   XZ=             -7.0458   YZ=              6.0989

 Normal termination of Gaussian 16 at Tue Oct 26 07:44:49 2021.
