 Gaussian 16, Revision C.01,
 Gaussian 16:  ES64L-G16RevC.01  3-Jul-2019

 ----------------------------------------------------------------------
 #P MP2/aug-cc-pVDZ SP SCF=(YQC,MaxCycle=900) int=(Grid=Superfinegrid)
 SCRF=(PCM,Solvent=Chloroform)
 ----------------------------------------------------------------------

 -----------------------------
 _2_alde1_3_ami3_1_opt_cfm_mp2
 -----------------------------
 Symbolic Z-matrix:
 Charge =  0 Multiplicity = 1

                         Standard orientation:
 ---------------------------------------------------------------------
 Center     Atomic      Atomic             Coordinates (Angstroms)
 Number     Number       Type             X           Y           Z
 ---------------------------------------------------------------------
      1          6           0        3.120299   -1.049935    0.823595
      2          6           0        3.083598   -2.051722   -0.230498
      3          6           0        3.178659   -1.412313    2.167879
      4          6           0        3.098528   -0.439216    3.158414
      5          1           0        3.275014   -2.457693    2.418518
      6          6           0        2.917288    0.899417    2.806128
      7          6           0        2.865354    1.274826    1.469193
      8          1           0        2.822028    1.632226    3.594644
      9          6           0        2.995955    0.294528    0.486839
     10          6           0        2.576073    2.652430    1.090511
     11          1           0        2.960272    0.604808   -0.545734
     12          6           0        3.172146   -0.813586    4.577529
     13          1           0        2.126504    3.273581    1.880656
     14          1           0        3.107242   -1.654868   -1.256071
     15          6           0       -0.766808   -1.276636   -0.443808
     16          6           0       -0.277190   -2.646689   -0.470264
     17          6           0       -0.068313   -0.272609   -1.106850
     18          6           0       -0.431287    1.060805   -0.953221
     19          1           0        0.783023   -0.551793   -1.707269
     20          6           0       -1.546877    1.381246   -0.180005
     21          6           0       -2.284451    0.382826    0.439656
     22          1           0       -1.817780    2.419423   -0.065741
     23          6           0       -1.875981   -0.938334    0.329490
     24          6           0       -3.515409    0.753623    1.236949
     25          1           0       -2.433931   -1.699384    0.853765
     26          6           0        0.425421    2.092025   -1.513274
     27          1           0        1.236479    1.723844   -2.161161
     28          6           0        1.156289   -4.345156   -1.170446
     29          6           0        2.693528   -4.155728   -1.099050
     30          7           0        0.577808   -3.045662   -1.307680
     31          1           0        0.822494   -4.841562   -0.240960
     32          6           0        0.823553   -5.234739   -2.368603
     33          7           0        2.954050   -3.285089    0.005087
     34          1           0        3.008268   -3.699714   -2.054261
     35          6           0        3.364512   -5.513045   -0.918166
     36          6           0        1.506260   -6.591005   -2.222018
     37          6           0        3.018073   -6.428990   -2.087958
     38          8           0        3.099267   -0.048699    5.504833
     39          6           0        2.309162    4.385962   -0.441362
     40          6           0        1.350765    4.204399   -1.646060
     41          7           0        2.774556    3.085533   -0.076372
     42          1           0        1.746377    4.860402    0.382511
     43          6           0        3.465322    5.294539   -0.859454
     44          7           0        0.312329    3.315560   -1.224038
     45          1           0        1.943645    3.769382   -2.470820
     46          6           0        0.796047    5.563426   -2.059501
     47          6           0        2.930311    6.652866   -1.302072
     48          6           0        1.935694    6.499540   -2.449866
     49          6           0       -5.341052   -0.570746    0.778415
     50          6           0       -5.731042    0.893721    0.514249
     51          7           0       -4.226089   -0.443382    1.706052
     52          1           0       -4.929374   -0.995724   -0.148716
     53          6           0       -6.552261   -1.374538    1.202611
     54          7           0       -4.444720    1.568533    0.414531
     55          1           0       -6.229207    1.290231    1.412457
     56          6           0       -6.687524    0.978979   -0.657834
     57          6           0       -7.575525   -1.294548    0.064678
     58          6           0       -7.926509    0.150779   -0.301367
     59          1           0       -0.664673   -3.300476    0.327432
     60          1           0       -4.584311   -0.290723    2.644022
     61          1           0       -3.202153    1.357142    2.100373
     62          1           0       -4.128146    1.571534   -0.551369
     63          1           0        3.308003   -1.900998    4.742407
     64          1           0        3.761044    7.289661   -1.612940
     65          1           0        2.435006    7.136897   -0.457141
     66          1           0        1.532867    7.476562   -2.723673
     67          1           0        2.451983    6.093651   -3.323022
     68          1           0        0.110603    5.429303   -2.898486
     69          1           0        0.228618    5.979800   -1.225822
     70          1           0        4.149216    5.412456   -0.016102
     71          1           0        4.013433    4.817245   -1.673442
     72          1           0       -6.969218    2.014424   -0.855428
     73          1           0       -6.210647    0.576451   -1.555356
     74          1           0       -8.620986    0.149093   -1.143556
     75          1           0       -8.431890    0.621401    0.545208
     76          1           0       -8.486039   -1.823370    0.352493
     77          1           0       -7.163098   -1.795941   -0.814069
     78          1           0       -6.975049   -0.954755    2.118795
     79          1           0       -6.282199   -2.413798    1.396570
     80          1           0        3.025248   -5.951047    0.021951
     81          1           0        4.445143   -5.372534   -0.853150
     82          1           0        1.156409   -4.737227   -3.281127
     83          1           0       -0.259887   -5.359588   -2.428940
     84          1           0        1.274924   -7.212994   -3.089117
     85          1           0        1.116985   -7.095434   -1.334491
     86          1           0        3.483888   -7.405448   -1.941917
     87          1           0        3.418550   -6.001715   -3.010396
 ---------------------------------------------------------------------

 SCF Done:  E(RHF) =  -1790.62692440     a.u. after    7 cycles
 SCF Done:  E(RHF) =  -1790.62696598     A.U. after   14 cycles
 E2 =    -0.6272117909D+01 EUMP2 =    -0.17968990838918D+04

 The electronic state is 1-A.
 Alpha  occ. eigenvalues --  -20.57311 -15.56331 -15.56047 -15.55942 -15.55680
 Alpha  occ. eigenvalues --  -15.55262 -15.54935 -11.34803 -11.29199 -11.28903
 Alpha  occ. eigenvalues --  -11.28750 -11.28539 -11.28321 -11.26713 -11.26536
 Alpha  occ. eigenvalues --  -11.26439 -11.25742 -11.25723 -11.25699 -11.25685
 Alpha  occ. eigenvalues --  -11.25675 -11.25538 -11.25441 -11.24888 -11.24768
 Alpha  occ. eigenvalues --  -11.24753 -11.24685 -11.24508 -11.24471 -11.24231
 Alpha  occ. eigenvalues --  -11.24201 -11.22415 -11.22364 -11.22328 -11.22280
 Alpha  occ. eigenvalues --  -11.22104 -11.22086 -11.22035 -11.21982 -11.21977
 Alpha  occ. eigenvalues --  -11.21908 -11.21891 -11.21779  -1.41012  -1.27981
 Alpha  occ. eigenvalues --   -1.26841  -1.26656  -1.23712  -1.23231  -1.18423
 Alpha  occ. eigenvalues --   -1.16843  -1.14916  -1.11844  -1.11462  -1.10871
 Alpha  occ. eigenvalues --   -1.06799  -1.06533  -1.05532  -1.05206  -1.00651
 Alpha  occ. eigenvalues --   -1.00265  -0.99990  -0.99972  -0.98931  -0.97857
 Alpha  occ. eigenvalues --   -0.90697  -0.90507  -0.89422  -0.88539  -0.87914
 Alpha  occ. eigenvalues --   -0.86540  -0.83261  -0.83046  -0.82362  -0.81801
 Alpha  occ. eigenvalues --   -0.81741  -0.80888  -0.78018  -0.77349  -0.77052
 Alpha  occ. eigenvalues --   -0.76467  -0.75948  -0.75419  -0.74315  -0.71753
 Alpha  occ. eigenvalues --   -0.70372  -0.69788  -0.68993  -0.67388  -0.67129
 Alpha  occ. eigenvalues --   -0.67032  -0.66030  -0.65462  -0.65265  -0.64333
 Alpha  occ. eigenvalues --   -0.63600  -0.63291  -0.63014  -0.62919  -0.62476
 Alpha  occ. eigenvalues --   -0.61760  -0.60885  -0.60385  -0.60260  -0.59740
 Alpha  occ. eigenvalues --   -0.59408  -0.59019  -0.58887  -0.57872  -0.57776
 Alpha  occ. eigenvalues --   -0.56714  -0.56063  -0.56028  -0.55411  -0.54790
 Alpha  occ. eigenvalues --   -0.54377  -0.54117  -0.53950  -0.53353  -0.52999
 Alpha  occ. eigenvalues --   -0.52909  -0.52246  -0.51625  -0.50598  -0.49988
 Alpha  occ. eigenvalues --   -0.49594  -0.49143  -0.48996  -0.48938  -0.48685
 Alpha  occ. eigenvalues --   -0.48127  -0.47335  -0.47140  -0.46674  -0.46600
 Alpha  occ. eigenvalues --   -0.46370  -0.45853  -0.45500  -0.45097  -0.44872
 Alpha  occ. eigenvalues --   -0.43761  -0.43476  -0.42693  -0.41711  -0.41073
 Alpha  occ. eigenvalues --   -0.40870  -0.40615  -0.39954  -0.39760  -0.38074
 Alpha  occ. eigenvalues --   -0.37213  -0.34671  -0.32937  -0.32546  -0.31927
 Alpha virt. eigenvalues --    0.03278   0.03511   0.03606   0.03648   0.04086
 Alpha virt. eigenvalues --    0.04170   0.04278   0.04365   0.04514   0.05005
 Alpha virt. eigenvalues --    0.05213   0.05307   0.05478   0.05649   0.05725

 Mulliken charges:
               1
     1  C    0.987318
     2  C    0.617839
     3  C    1.149692
     4  C   -0.036188
     5  H   -0.853040
     6  C    0.325851
     7  C    0.778333
     8  H   -0.764301
     9  C    0.730951
    10  C    0.456662
    11  H   -1.089134
    12  C    1.298534
    13  H   -0.759901
    14  H   -0.740105
    15  C    1.118272
    16  C    0.371011
    17  C   -0.268677
    18  C    1.316147
    19  H   -1.088871
    20  C    0.273757
    21  C    0.290082
    22  H   -1.252693
    23  C    1.079677
    24  C    0.841140
    25  H   -0.979166
    26  C    0.296000
    27  H   -0.724376
    28  C   -0.449711
    29  C    0.004406
    30  N   -0.444463
    31  H   -0.305440
    32  C    0.787419
    33  N   -0.723234
    34  H   -0.358623
    35  C    0.755325
    36  C    0.583961
    37  C    0.495884
    38  O   -0.862715
    39  C   -0.324892
    40  C   -0.130981
    41  N   -0.401955
    42  H   -0.300697
    43  C    0.795011
    44  N   -0.517050
    45  H   -0.384024
    46  C    0.820190
    47  C    0.514832
    48  C    0.550137
    49  C    0.290164
    50  C   -0.071852
    51  N   -0.784438
    52  H   -0.343938
    53  C    0.800487
    54  N   -0.565878
    55  H   -0.420241
    56  C    0.707212
    57  C    0.388491
    58  C    0.466289
    59  H   -0.772900
    60  H    0.101462
    61  H   -0.182409
    62  H    0.222708
    63  H   -0.301596
    64  H   -0.143709
    65  H   -0.075555
    66  H   -0.147085
    67  H   -0.082795
    68  H   -0.205053
    69  H   -0.118138
    70  H   -0.221342
    71  H   -0.108967
    72  H   -0.126409
    73  H   -0.043241
    74  H   -0.135771
    75  H   -0.100810
    76  H   -0.148787
    77  H   -0.100374
    78  H   -0.034132
    79  H   -0.121711
    80  H   -0.100681
    81  H   -0.194908
    82  H   -0.123642
    83  H   -0.226439
    84  H   -0.138301
    85  H   -0.085008
    86  H   -0.146282
    87  H   -0.082613
 Sum of Mulliken charges =   0.00000

 Dipole moment (field-independent basis, Debye):
    X=             -2.8272    Y=             -1.9784    Z=             -3.2676  Tot=              4.7523
 Quadrupole moment (field-independent basis, Debye-Ang):
   XX=           -244.4888   YY=           -244.5469   ZZ=           -279.7956
   XY=              5.8489   XZ=            -18.7117   YZ=             -3.0653

 Normal termination of Gaussian 16 at Wed Nov 10 14:17:07 2021.
