 Gaussian 16, Revision C.01,
 Gaussian 16:  ES64L-G16RevC.01  3-Jul-2019

 ---------------------------------------------------------------------
 #P MP2/aug-cc-pVDZ SP SCF=(YQC,MaxCycle=900) int=(Grid=Superfinegrid)
 ---------------------------------------------------------------------

 -----------------------------
 _2_alde1_3_ami4_2_opt_gas_mp2
 -----------------------------
 Symbolic Z-matrix:
 Charge =  0 Multiplicity = 1

                         Standard orientation:
 ---------------------------------------------------------------------
 Center     Atomic      Atomic             Coordinates (Angstroms)
 Number     Number       Type             X           Y           Z
 ---------------------------------------------------------------------
      1          6           0        2.737052   -1.213206    0.230801
      2          6           0        2.688380   -2.146100   -0.885328
      3          6           0        2.667359   -1.657996    1.549936
      4          6           0        2.613009   -0.741882    2.594806
      5          1           0        2.647314   -2.720553    1.737878
      6          6           0        2.589585    0.626485    2.320140
      7          6           0        2.662428    1.083085    1.009648
      8          1           0        2.515582    1.317419    3.147790
      9          6           0        2.761724    0.153930   -0.025455
     10          6           0        2.542520    2.504060    0.708715
     11          1           0        2.826215    0.526353   -1.035943
     12          6           0        2.552105   -1.203622    3.989451
     13          1           0        2.181584    3.135254    1.534819
     14          1           0        2.839176   -1.700488   -1.879020
     15          6           0       -1.069207   -1.030182   -1.235541
     16          6           0       -0.699504   -2.432570   -1.368561
     17          6           0       -0.254783   -0.038197   -1.780404
     18          6           0       -0.513924    1.306230   -1.540517
     19          1           0        0.599058   -0.343558   -2.364535
     20          6           0       -1.634907    1.663022   -0.792161
     21          6           0       -2.484795    0.686744   -0.283917
     22          1           0       -1.821013    2.711163   -0.613791
     23          6           0       -2.182951   -0.660139   -0.491458
     24          6           0       -3.664965    1.072358    0.476941
     25          1           0       -2.834391   -1.404267   -0.059075
     26          6           0        0.441447    2.304105   -1.995032
     27          1           0        1.234917    1.927156   -2.657530
     28          6           0        0.650437   -4.169813   -2.145749
     29          6           0        2.177800   -4.154876   -1.902897
     30          7           0        0.198301   -2.816164   -2.166516
     31          1           0        0.154538   -4.768570   -1.365580
     32          7           0        2.424818   -3.371189   -0.732602
     33          1           0        2.667020   -3.735971   -2.794881
     34          8           0        2.487049   -0.488755    4.955954
     35          6           0        2.498240    4.330294   -0.740738
     36          6           0        1.519480    4.345645   -1.937880
     37          7           0        2.792175    2.967237   -0.436711
     38          1           0        2.052552    4.865853    0.112020
     39          7           0        0.409789    3.505396   -1.607969
     40          1           0        2.057122    3.993140   -2.831130
     41          6           0       -5.637043    0.625670    1.645124
     42          6           0       -6.891728    0.172514    0.861397
     43          7           0       -4.469245    0.216863    0.937687
     44          1           0       -5.628524    0.116987    2.615258
     45          7           0       -6.983032   -1.251948    0.640229
     46          1           0       -6.889938    0.663205   -0.116034
     47          1           0       -1.225668   -3.128242   -0.696665
     48          1           0       -3.807359    2.154118    0.624251
     49          1           0       -6.159365   -1.565658    0.137268
     50          1           0        2.572651   -2.306513    4.092782
     51          1           0        0.461207   -4.619248   -3.124444
     52          1           0        2.524176   -5.174969   -1.728120
     53          1           0        3.422587    4.829778   -1.043162
     54          1           0        1.160674    5.364745   -2.093965
     55          1           0       -5.680497    1.715559    1.809498
     56          1           0       -7.780423    0.496428    1.409795
     57          1           0       -7.001785   -1.743800    1.528146
 ---------------------------------------------------------------------

 SCF Done:  E(RHF) =  -1325.61743511     a.u. after    7 cycles
 SCF Done:  E(RHF) =  -1325.61748408     A.U. after   13 cycles
 E2 =    -0.4508999573D+01 EUMP2 =    -0.13301264836524D+04

 The electronic state is 1-A.
 Alpha  occ. eigenvalues --  -20.56889 -15.57037 -15.56818 -15.56783 -15.56599
 Alpha  occ. eigenvalues --  -15.56375 -15.54153 -11.34432 -11.29564 -11.29364
 Alpha  occ. eigenvalues --  -11.29286 -11.29277 -11.29038 -11.26952 -11.26776
 Alpha  occ. eigenvalues --  -11.26755 -11.26646 -11.26623 -11.26375 -11.26322
 Alpha  occ. eigenvalues --  -11.26096 -11.26060 -11.25919 -11.25816 -11.25790
 Alpha  occ. eigenvalues --  -11.25781 -11.25765 -11.25541 -11.25515 -11.25458
 Alpha  occ. eigenvalues --  -11.25414  -1.40446  -1.27124  -1.26903  -1.25582
 Alpha  occ. eigenvalues --   -1.24160  -1.23669  -1.18660  -1.18116  -1.17090
 Alpha  occ. eigenvalues --   -1.08392  -1.07609  -1.06577  -1.06207  -1.01695
 Alpha  occ. eigenvalues --   -1.00207  -0.98415  -0.92344  -0.92032  -0.90541
 Alpha  occ. eigenvalues --   -0.88927  -0.88443  -0.85389  -0.83741  -0.82726
 Alpha  occ. eigenvalues --   -0.80770  -0.76935  -0.76042  -0.75373  -0.74958
 Alpha  occ. eigenvalues --   -0.72369  -0.71591  -0.70155  -0.69125  -0.67956
 Alpha  occ. eigenvalues --   -0.67857  -0.66928  -0.66815  -0.65851  -0.64938
 Alpha  occ. eigenvalues --   -0.64413  -0.63815  -0.63371  -0.62430  -0.62117
 Alpha  occ. eigenvalues --   -0.61742  -0.60303  -0.60027  -0.59708  -0.59403
 Alpha  occ. eigenvalues --   -0.56817  -0.56573  -0.55851  -0.55369  -0.54954
 Alpha  occ. eigenvalues --   -0.54322  -0.54106  -0.53987  -0.52544  -0.52350
 Alpha  occ. eigenvalues --   -0.51627  -0.51109  -0.50462  -0.49587  -0.46544
 Alpha  occ. eigenvalues --   -0.46356  -0.45864  -0.43228  -0.42879  -0.41554
 Alpha  occ. eigenvalues --   -0.41523  -0.41382  -0.41110  -0.40862  -0.40413
 Alpha  occ. eigenvalues --   -0.38092  -0.34956  -0.33398  -0.32844  -0.32527
 Alpha virt. eigenvalues --    0.03139   0.03266   0.03417   0.03958   0.04229
 Alpha virt. eigenvalues --    0.04279   0.04567   0.04709   0.05208   0.05258
 Alpha virt. eigenvalues --    0.05449   0.05562   0.05822   0.06093   0.06303

 Mulliken charges:
               1
     1  C    0.338574
     2  C    1.197243
     3  C    0.991868
     4  C    0.031187
     5  H   -0.836776
     6  C    0.637532
     7  C    0.304346
     8  H   -0.767972
     9  C    0.299531
    10  C    1.138783
    11  H   -1.012572
    12  C    1.240663
    13  H   -0.682376
    14  H   -0.648074
    15  C    0.169852
    16  C    1.326907
    17  C    0.511805
    18  C    0.795776
    19  H   -1.008175
    20  C    0.760630
    21  C    0.476180
    22  H   -0.885671
    23  C    0.282026
    24  C    0.875251
    25  H   -0.806720
    26  C    0.832780
    27  H   -0.644049
    28  C    0.692096
    29  C    0.569663
    30  N   -0.743782
    31  H   -0.124389
    32  N   -0.906554
    33  H   -0.114669
    34  O   -0.810304
    35  C    0.682250
    36  C    0.570847
    37  N   -0.713347
    38  H   -0.113695
    39  N   -0.835146
    40  H   -0.101648
    41  C    0.558689
    42  C    0.875475
    43  N   -0.537043
    44  H   -0.305130
    45  N   -0.448163
    46  H   -0.150721
    47  H   -0.691223
    48  H   -0.635541
    49  H    0.036409
    50  H   -0.307623
    51  H   -0.246937
    52  H   -0.314881
    53  H   -0.246949
    54  H   -0.322322
    55  H   -0.120018
    56  H   -0.140543
    57  H    0.026651
 Sum of Mulliken charges =   0.00000

 Dipole moment (field-independent basis, Debye):
    X=              0.8811    Y=              0.5392    Z=             -2.0811  Tot=              2.3234
 Quadrupole moment (field-independent basis, Debye-Ang):
   XX=           -201.0206   YY=           -167.0975   ZZ=           -201.0622
   XY=             -4.9591   XZ=            -19.3078   YZ=              0.8531

 Normal termination of Gaussian 16 at Sat Oct 30 00:22:41 2021.
