 Gaussian 16, Revision C.01,
 Gaussian 16:  ES64L-G16RevC.01  3-Jul-2019

 ----------------------------------------------------------------------
 #P MP2/aug-cc-pVDZ SP SCF=(YQC,MaxCycle=900) int=(Grid=Superfinegrid)
 SCRF=(PCM,Solvent=Dichloromethane)
 ----------------------------------------------------------------------

 -----------------------------
 _2_alde1_3_ami4_2_opt_dcm_mp2
 -----------------------------
 Symbolic Z-matrix:
 Charge =  0 Multiplicity = 1

                         Standard orientation:
 ---------------------------------------------------------------------
 Center     Atomic      Atomic             Coordinates (Angstroms)
 Number     Number       Type             X           Y           Z
 ---------------------------------------------------------------------
      1          6           0        2.737052   -1.213206    0.230801
      2          6           0        2.688380   -2.146100   -0.885328
      3          6           0        2.667359   -1.657996    1.549936
      4          6           0        2.613009   -0.741882    2.594806
      5          1           0        2.647314   -2.720553    1.737878
      6          6           0        2.589585    0.626485    2.320140
      7          6           0        2.662428    1.083085    1.009648
      8          1           0        2.515582    1.317419    3.147790
      9          6           0        2.761724    0.153930   -0.025455
     10          6           0        2.542520    2.504060    0.708715
     11          1           0        2.826215    0.526353   -1.035943
     12          6           0        2.552105   -1.203622    3.989451
     13          1           0        2.181584    3.135254    1.534819
     14          1           0        2.839176   -1.700488   -1.879020
     15          6           0       -1.069207   -1.030182   -1.235541
     16          6           0       -0.699504   -2.432570   -1.368561
     17          6           0       -0.254783   -0.038197   -1.780404
     18          6           0       -0.513924    1.306230   -1.540517
     19          1           0        0.599058   -0.343558   -2.364535
     20          6           0       -1.634907    1.663022   -0.792161
     21          6           0       -2.484795    0.686744   -0.283917
     22          1           0       -1.821013    2.711163   -0.613791
     23          6           0       -2.182951   -0.660139   -0.491458
     24          6           0       -3.664965    1.072358    0.476941
     25          1           0       -2.834391   -1.404267   -0.059075
     26          6           0        0.441447    2.304105   -1.995032
     27          1           0        1.234917    1.927156   -2.657530
     28          6           0        0.650437   -4.169813   -2.145749
     29          6           0        2.177800   -4.154876   -1.902897
     30          7           0        0.198301   -2.816164   -2.166516
     31          1           0        0.154538   -4.768570   -1.365580
     32          7           0        2.424818   -3.371189   -0.732602
     33          1           0        2.667020   -3.735971   -2.794881
     34          8           0        2.487049   -0.488755    4.955954
     35          6           0        2.498240    4.330294   -0.740738
     36          6           0        1.519480    4.345645   -1.937880
     37          7           0        2.792175    2.967237   -0.436711
     38          1           0        2.052552    4.865853    0.112020
     39          7           0        0.409789    3.505396   -1.607969
     40          1           0        2.057122    3.993140   -2.831130
     41          6           0       -5.637043    0.625670    1.645124
     42          6           0       -6.891728    0.172514    0.861397
     43          7           0       -4.469245    0.216863    0.937687
     44          1           0       -5.628524    0.116987    2.615258
     45          7           0       -6.983032   -1.251948    0.640229
     46          1           0       -6.889938    0.663205   -0.116034
     47          1           0       -1.225668   -3.128242   -0.696665
     48          1           0       -3.807359    2.154118    0.624251
     49          1           0       -6.159365   -1.565658    0.137268
     50          1           0        2.572651   -2.306513    4.092782
     51          1           0        0.461207   -4.619248   -3.124444
     52          1           0        2.524176   -5.174969   -1.728120
     53          1           0        3.422587    4.829778   -1.043162
     54          1           0        1.160674    5.364745   -2.093965
     55          1           0       -5.680497    1.715559    1.809498
     56          1           0       -7.780423    0.496428    1.409795
     57          1           0       -7.001785   -1.743800    1.528146
 ---------------------------------------------------------------------

 SCF Done:  E(RHF) =  -1325.63594517     a.u. after    7 cycles
 SCF Done:  E(RHF) =  -1325.63599630     A.U. after   13 cycles
 E2 =    -0.4504586338D+01 EUMP2 =    -0.13301405826414D+04

 The electronic state is 1-A.
 Alpha  occ. eigenvalues --  -20.57555 -15.56757 -15.56554 -15.56519 -15.56415
 Alpha  occ. eigenvalues --  -15.56246 -15.54577 -11.35024 -11.29223 -11.29047
 Alpha  occ. eigenvalues --  -11.29023 -11.28963 -11.28845 -11.26934 -11.26760
 Alpha  occ. eigenvalues --  -11.26659 -11.26076 -11.26045 -11.25951 -11.25920
 Alpha  occ. eigenvalues --  -11.25905 -11.25842 -11.25820 -11.25670 -11.25641
 Alpha  occ. eigenvalues --  -11.25621 -11.25397 -11.25384 -11.25376 -11.25331
 Alpha  occ. eigenvalues --  -11.25301  -1.41304  -1.26885  -1.26654  -1.25351
 Alpha  occ. eigenvalues --   -1.23967  -1.23461  -1.18623  -1.18234  -1.17080
 Alpha  occ. eigenvalues --   -1.08184  -1.07519  -1.06463  -1.06067  -1.01355
 Alpha  occ. eigenvalues --   -0.99908  -0.98217  -0.92139  -0.91767  -0.90590
 Alpha  occ. eigenvalues --   -0.88782  -0.88256  -0.85178  -0.83464  -0.82542
 Alpha  occ. eigenvalues --   -0.80479  -0.76906  -0.75713  -0.75020  -0.74675
 Alpha  occ. eigenvalues --   -0.72316  -0.71389  -0.69987  -0.69004  -0.67837
 Alpha  occ. eigenvalues --   -0.67678  -0.66677  -0.66538  -0.65743  -0.65084
 Alpha  occ. eigenvalues --   -0.64345  -0.63774  -0.63173  -0.62203  -0.61824
 Alpha  occ. eigenvalues --   -0.61604  -0.60045  -0.59885  -0.59597  -0.59186
 Alpha  occ. eigenvalues --   -0.57043  -0.56662  -0.55577  -0.55061  -0.54861
 Alpha  occ. eigenvalues --   -0.54083  -0.54008  -0.53870  -0.52672  -0.52104
 Alpha  occ. eigenvalues --   -0.51453  -0.50871  -0.50138  -0.49413  -0.46375
 Alpha  occ. eigenvalues --   -0.46184  -0.45617  -0.43804  -0.42846  -0.41425
 Alpha  occ. eigenvalues --   -0.41350  -0.41161  -0.40895  -0.40694  -0.40309
 Alpha  occ. eigenvalues --   -0.38418  -0.34976  -0.33301  -0.32778  -0.32474
 Alpha virt. eigenvalues --    0.03467   0.03733   0.03914   0.04177   0.04612
 Alpha virt. eigenvalues --    0.04642   0.04875   0.04911   0.05261   0.05380
 Alpha virt. eigenvalues --    0.05647   0.05883   0.06099   0.06368   0.06538

 Mulliken charges:
               1
     1  C    0.336467
     2  C    1.238103
     3  C    0.988263
     4  C    0.029012
     5  H   -0.836996
     6  C    0.640837
     7  C    0.320967
     8  H   -0.763428
     9  C    0.287108
    10  C    1.162374
    11  H   -1.010100
    12  C    1.268948
    13  H   -0.670839
    14  H   -0.638847
    15  C    0.191117
    16  C    1.345685
    17  C    0.501701
    18  C    0.794431
    19  H   -1.007287
    20  C    0.752237
    21  C    0.493894
    22  H   -0.888787
    23  C    0.271827
    24  C    0.888567
    25  H   -0.808584
    26  C    0.871727
    27  H   -0.635363
    28  C    0.681451
    29  C    0.568498
    30  N   -0.781694
    31  H   -0.123499
    32  N   -0.950411
    33  H   -0.113468
    34  O   -0.868524
    35  C    0.671952
    36  C    0.568265
    37  N   -0.749797
    38  H   -0.112697
    39  N   -0.880208
    40  H   -0.100548
    41  C    0.549117
    42  C    0.881563
    43  N   -0.569192
    44  H   -0.299610
    45  N   -0.488865
    46  H   -0.150316
    47  H   -0.679051
    48  H   -0.622431
    49  H    0.043212
    50  H   -0.287084
    51  H   -0.241006
    52  H   -0.310089
    53  H   -0.240947
    54  H   -0.317612
    55  H   -0.107184
    56  H   -0.135449
    57  H    0.042587
 Sum of Mulliken charges =   0.00000

 Dipole moment (field-independent basis, Debye):
    X=              1.1382    Y=              0.6359    Z=             -2.4221  Tot=              2.7507
 Quadrupole moment (field-independent basis, Debye-Ang):
   XX=           -203.1118   YY=           -164.3544   ZZ=           -203.2078
   XY=             -6.2949   XZ=            -22.8597   YZ=              1.0550

 Normal termination of Gaussian 16 at Tue Nov  2 09:56:44 2021.
