 Gaussian 16, Revision C.01,
 Gaussian 16:  ES64L-G16RevC.01  3-Jul-2019

 ----------------------------------------------------------------------
 #P PBE1PBE/Def2TZVP SP SCF=(YQC,MaxCycle=900) int=(Grid=Superfinegrid)
  EmpiricalDispersion=GD3 SCRF=(PCM,Solvent=Dichloromethane)
 ----------------------------------------------------------------------

 -------------------------
 _2_alde1_4_ami1_1_opt_dcm
 -------------------------
 Symbolic Z-matrix:
 Charge =  0 Multiplicity = 1

                         Standard orientation:
 ---------------------------------------------------------------------
 Center     Atomic      Atomic             Coordinates (Angstroms)
 Number     Number       Type             X           Y           Z
 ---------------------------------------------------------------------
      1          6           0       -2.761574    1.500322   -0.754176
      2          6           0       -3.510420    1.671039    0.480374
      3          6           0       -3.085670    0.486344   -1.657005
      4          6           0       -2.307849    0.272450   -2.780861
      5          1           0       -3.938590   -0.142318   -1.461375
      6          6           0       -1.186321    1.060918   -2.999031
      7          6           0       -0.832125    2.059353   -2.095406
      8          1           0       -0.575458    0.876547   -3.870162
      9          6           0       -1.646322    2.294237   -0.990495
     10          6           0        0.431669    2.764041   -2.243711
     11          1           0       -1.366418    3.080474   -0.307144
     12          6           0       -2.646496   -0.825211   -3.771058
     13          1           0        1.128251    2.329488   -2.979236
     14          1           0       -3.234690    2.549726    1.084296
     15          6           0       -0.526877   -0.242728    2.187390
     16          6           0       -1.912557   -0.543771    2.520567
     17          6           0       -0.155495    1.055750    1.855357
     18          6           0        1.135495    1.337455    1.423567
     19          1           0       -0.903229    1.830289    1.911944
     20          6           0        2.080223    0.312662    1.388781
     21          6           0        1.739415   -0.972504    1.781603
     22          1           0        3.087961    0.533382    1.074338
     23          6           0        0.431260   -1.253166    2.149752
     24          6           0        2.777948   -2.063115    1.764933
     25          1           0        0.156556   -2.262745    2.422397
     26          6           0        1.451303    2.687232    0.982333
     27          1           0        0.698777    3.448800    1.236284
     28          6           0       -4.101912    0.028655    3.101485
     29          6           0       -4.922116    0.982146    2.187452
     30          7           0       -2.723050    0.349954    2.881978
     31          1           0       -4.314742   -1.009627    2.793899
     32          6           0       -4.437373    0.171408    4.600562
     33          7           0       -4.372234    0.837470    0.871177
     34          1           0       -4.763853    2.006736    2.565250
     35          6           0       -6.430899    0.686587    2.150727
     36          1           0       -5.514879    0.019464    4.719558
     37          6           0       -4.058872    1.544472    5.149073
     38          6           0       -3.714324   -0.922280    5.387002
     39          1           0       -6.825295    0.765966    3.169258
     40          6           0       -6.728037   -0.705128    1.599179
     41          6           0       -7.115166    1.747222    1.287902
     42          1           0       -3.984809   -0.871546    6.439349
     43          1           0       -2.636621   -0.798425    5.301402
     44          1           0       -3.980421   -1.908961    5.012413
     45          1           0       -4.684702    2.324575    4.724106
     46          1           0       -3.020610    1.760483    4.912090
     47          1           0       -4.185510    1.561034    6.229532
     48          1           0       -6.739909    1.691047    0.268696
     49          1           0       -6.918011    2.745429    1.674030
     50          1           0       -8.191482    1.590644    1.273926
     51          1           0       -6.193477   -0.844982    0.663948
     52          1           0       -7.794980   -0.814726    1.417551
     53          1           0       -6.423617   -1.479772    2.298346
     54          6           0       -1.338019   -2.612951   -3.088890
     55          6           0       -2.807160   -2.865739   -2.622152
     56          7           0       -1.439483   -1.572792   -4.111844
     57          1           0       -0.898448   -3.510241   -3.531795
     58          6           0       -0.408800   -2.159847   -1.945764
     59          7           0       -3.593226   -1.770283   -3.192348
     60          1           0       -2.857466   -2.768178   -1.531151
     61          6           0       -3.400037   -4.233300   -3.009089
     62          1           0       -0.883546   -1.326183   -1.420341
     63          6           0        0.922451   -1.676971   -2.516723
     64          6           0       -0.149745   -3.289358   -0.952482
     65          1           0       -4.470713   -4.173615   -2.775026
     66          6           0       -2.799728   -5.362217   -2.176398
     67          6           0       -3.259559   -4.552431   -4.498872
     68          1           0        0.226778   -4.170594   -1.469176
     69          1           0       -1.054244   -3.565294   -0.417446
     70          1           0        0.602330   -2.978308   -0.231239
     71          1           0        1.500751   -2.519331   -2.891739
     72          1           0        1.492528   -1.173201   -1.740518
     73          1           0        0.751110   -0.984102   -3.333798
     74          1           0       -3.837818   -5.441236   -4.742085
     75          1           0       -2.222087   -4.746587   -4.762865
     76          1           0       -3.626612   -3.737924   -5.122112
     77          1           0       -2.949092   -5.177149   -1.115637
     78          1           0       -1.732990   -5.455273   -2.362060
     79          1           0       -3.275594   -6.307227   -2.429560
     80          6           0        2.057032    4.319285   -1.623118
     81          6           0        2.631921    4.308788   -0.178199
     82          7           0        0.741050    3.760166   -1.536177
     83          1           0        2.707104    3.692118   -2.257455
     84          6           0        1.985159    5.729388   -2.245530
     85          7           0        2.486443    2.969669    0.319404
     86          1           0        2.017108    5.007617    0.413191
     87          6           0        4.108165    4.728455   -0.077888
     88          1           0        2.987448    6.167521   -2.204165
     89          6           0        1.007346    6.638470   -1.506089
     90          6           0        1.579341    5.612213   -3.714909
     91          1           0        4.211372    5.738820   -0.487064
     92          6           0        5.025503    3.777059   -0.841177
     93          6           0        4.506383    4.766428    1.397758
     94          1           0        0.581081    5.187594   -3.797738
     95          1           0        2.273314    4.973858   -4.258533
     96          1           0        1.577181    6.593298   -4.184687
     97          1           0        0.885134    7.572954   -2.049536
     98          1           0        1.365618    6.873484   -0.507380
     99          1           0        0.040777    6.148481   -1.425510
    100          1           0        3.866083    5.449139    1.952981
    101          1           0        5.536915    5.097290    1.506056
    102          1           0        4.409635    3.773750    1.831113
    103          1           0        6.065837    3.994185   -0.608887
    104          1           0        4.891563    3.876606   -1.915280
    105          1           0        4.804202    2.753638   -0.552543
    106          6           0        5.099438   -2.424004    1.554946
    107          6           0        4.296176   -3.220560    0.486534
    108          7           0        4.094510   -1.559015    2.159917
    109          1           0        5.836910   -1.777730    1.057952
    110          6           0        5.881125   -3.332296    2.526562
    111          7           0        2.982221   -2.590966    0.429173
    112          1           0        4.137066   -4.240338    0.861632
    113          6           0        4.982801   -3.332048   -0.880074
    114          1           0        6.415577   -4.064507    1.909164
    115          6           0        4.982981   -4.091291    3.502345
    116          6           0        6.914217   -2.512928    3.299832
    117          1           0        6.003740   -3.684584   -0.689923
    118          6           0        5.063544   -2.003244   -1.632631
    119          6           0        4.255089   -4.368165   -1.735251
    120          1           0        7.479147   -3.152166    3.974803
    121          1           0        6.427855   -1.737778    3.888687
    122          1           0        7.611710   -2.032772    2.617106
    123          1           0        4.467820   -3.406519    4.173935
    124          1           0        5.584086   -4.764734    4.109588
    125          1           0        4.237472   -4.684138    2.977328
    126          1           0        4.308643   -5.353104   -1.277203
    127          1           0        4.699195   -4.424289   -2.726553
    128          1           0        3.208542   -4.090751   -1.830688
    129          1           0        5.759180   -2.095695   -2.463789
    130          1           0        5.411854   -1.199850   -0.987785
    131          1           0        4.093182   -1.729356   -2.040644
    132          1           0       -2.209509   -1.599401    2.409233
    133          1           0        4.195622   -1.466536    3.161613
    134          1           0        2.438145   -2.902568    2.402333
    135          1           0        3.023728   -1.803724   -0.211928
    136          1           0       -4.232728   -2.118261   -3.897134
    137          1           0       -1.545990   -2.000598   -5.026240
    138          1           0       -3.065557   -0.349679   -4.667384
 ---------------------------------------------------------------------

 SCF Done:  E(RPBE1PBE) =  -2389.59725695     a.u. after    7 cycles
 SCF Done:  E(RPBE1PBE) =  -2389.59728718     A.U. after    7 cycles

 The electronic state is 1-A.
 Alpha  occ. eigenvalues --  -14.37354 -14.37188 -14.36941 -14.36869 -14.36829
 Alpha  occ. eigenvalues --  -14.36587 -14.36390 -14.36357 -10.27640 -10.27632
 Alpha  occ. eigenvalues --  -10.26364 -10.26212 -10.25904 -10.25843 -10.24854
 Alpha  occ. eigenvalues --  -10.24831 -10.24544 -10.24529 -10.24354 -10.24114
 Alpha  occ. eigenvalues --  -10.24071 -10.24052 -10.23794 -10.23668 -10.23631
 Alpha  occ. eigenvalues --  -10.23499 -10.23428 -10.23359 -10.23110 -10.23038
 Alpha  occ. eigenvalues --  -10.22855 -10.22806 -10.22802 -10.22620 -10.22607
 Alpha  occ. eigenvalues --  -10.22516 -10.22488 -10.22374 -10.22150 -10.22134
 Alpha  occ. eigenvalues --  -10.22097 -10.21051 -10.20710 -10.20559 -10.20538
 Alpha  occ. eigenvalues --  -10.20405 -10.20378 -10.20210 -10.20175 -10.20133
 Alpha  occ. eigenvalues --  -10.19962 -10.19933 -10.19913 -10.19903 -10.19682
 Alpha  occ. eigenvalues --  -10.19661 -10.19060 -10.19007  -0.99358  -0.99038
 Alpha  occ. eigenvalues --   -0.97596  -0.97456  -0.94682  -0.94354  -0.89855
 Alpha  occ. eigenvalues --   -0.89076  -0.88348  -0.88047  -0.84531  -0.84197
 Alpha  occ. eigenvalues --   -0.83607  -0.83157  -0.82048  -0.81537  -0.80804
 Alpha  occ. eigenvalues --   -0.80559  -0.79587  -0.79457  -0.79016  -0.78813
 Alpha  occ. eigenvalues --   -0.74483  -0.73632  -0.73093  -0.72899  -0.70713
 Alpha  occ. eigenvalues --   -0.70688  -0.70411  -0.70282  -0.70261  -0.69916
 Alpha  occ. eigenvalues --   -0.69899  -0.69210  -0.68700  -0.68584  -0.66830
 Alpha  occ. eigenvalues --   -0.66499  -0.65626  -0.64502  -0.64203  -0.64069
 Alpha  occ. eigenvalues --   -0.63152  -0.62347  -0.59996  -0.59609  -0.58903
 Alpha  occ. eigenvalues --   -0.58253  -0.58017  -0.57445  -0.57305  -0.56934
 Alpha  occ. eigenvalues --   -0.56688  -0.56018  -0.54877  -0.54417  -0.53724
 Alpha  occ. eigenvalues --   -0.53405  -0.53016  -0.52286  -0.51438  -0.50993
 Alpha  occ. eigenvalues --   -0.50480  -0.50030  -0.49832  -0.49259  -0.48803
 Alpha  occ. eigenvalues --   -0.48643  -0.48290  -0.47945  -0.47717  -0.47381
 Alpha  occ. eigenvalues --   -0.46753  -0.46280  -0.46098  -0.45988  -0.45701
 Alpha  occ. eigenvalues --   -0.45541  -0.45180  -0.45089  -0.44847  -0.44795
 Alpha  occ. eigenvalues --   -0.44749  -0.44068  -0.43784  -0.43394  -0.43210
 Alpha  occ. eigenvalues --   -0.42989  -0.42869  -0.42754  -0.42742  -0.42463
 Alpha  occ. eigenvalues --   -0.41960  -0.41905  -0.41817  -0.41564  -0.41098
 Alpha  occ. eigenvalues --   -0.40926  -0.40434  -0.40089  -0.40012  -0.39966
 Alpha  occ. eigenvalues --   -0.39817  -0.39731  -0.39507  -0.39328  -0.39145
 Alpha  occ. eigenvalues --   -0.38889  -0.38848  -0.38659  -0.38506  -0.38206
 Alpha  occ. eigenvalues --   -0.37998  -0.37891  -0.37694  -0.37554  -0.37296
 Alpha  occ. eigenvalues --   -0.37092  -0.36479  -0.36283  -0.36238  -0.35764
 Alpha  occ. eigenvalues --   -0.35640  -0.35273  -0.35174  -0.34857  -0.34800
 Alpha  occ. eigenvalues --   -0.34699  -0.34682  -0.34537  -0.34496  -0.34252
 Alpha  occ. eigenvalues --   -0.34109  -0.33995  -0.33762  -0.33692  -0.33450
 Alpha  occ. eigenvalues --   -0.33289  -0.33217  -0.32923  -0.32772  -0.32341
 Alpha  occ. eigenvalues --   -0.32101  -0.32022  -0.31751  -0.31627  -0.30911
 Alpha  occ. eigenvalues --   -0.30015  -0.26929  -0.26798  -0.26405  -0.26261
 Alpha  occ. eigenvalues --   -0.26198  -0.25952  -0.25464  -0.25353  -0.24956
 Alpha  occ. eigenvalues --   -0.24785  -0.23590  -0.23422
 Alpha virt. eigenvalues --   -0.05770  -0.05275  -0.03908  -0.03609   0.01391
 Alpha virt. eigenvalues --    0.01953   0.03239   0.03711   0.04203   0.04377
 Alpha virt. eigenvalues --    0.04558   0.04813   0.05353   0.05506   0.05580

 Mulliken charges:
               1
     1  C    0.381751
     2  C   -0.197439
     3  C   -0.337377
     4  C    0.065659
     5  H    0.150712
     6  C   -0.362349
     7  C    0.326820
     8  H    0.131832
     9  C   -0.343580
    10  C   -0.181635
    11  H    0.138879
    12  C    0.183498
    13  H    0.086842
    14  H    0.094127
    15  C    0.336127
    16  C   -0.184367
    17  C   -0.300442
    18  C    0.402116
    19  H    0.133118
    20  C   -0.390327
    21  C    0.330471
    22  H    0.134630
    23  C   -0.399827
    24  C   -0.082722
    25  H    0.124958
    26  C   -0.206704
    27  H    0.096790
    28  C    0.093992
    29  C    0.104592
    30  N   -0.260008
    31  H    0.087853
    32  C   -0.016265
    33  N   -0.266384
    34  H    0.083673
    35  C    0.003902
    36  H    0.086000
    37  C   -0.422695
    38  C   -0.398844
    39  H    0.083766
    40  C   -0.429750
    41  C   -0.405456
    42  H    0.130249
    43  H    0.125567
    44  H    0.120739
    45  H    0.126220
    46  H    0.130866
    47  H    0.124742
    48  H    0.127350
    49  H    0.119613
    50  H    0.127476
    51  H    0.135711
    52  H    0.122703
    53  H    0.125017
    54  C    0.022900
    55  C   -0.041522
    56  N   -0.346017
    57  H    0.107663
    58  C   -0.089484
    59  N   -0.319693
    60  H    0.087617
    61  C   -0.060074
    62  H    0.104522
    63  C   -0.412654
    64  C   -0.381547
    65  H    0.093511
    66  C   -0.379136
    67  C   -0.408721
    68  H    0.109117
    69  H    0.112077
    70  H    0.147178
    71  H    0.109921
    72  H    0.125578
    73  H    0.126633
    74  H    0.137561
    75  H    0.125347
    76  H    0.119870
    77  H    0.123511
    78  H    0.120036
    79  H    0.131992
    80  C    0.097371
    81  C    0.102456
    82  N   -0.257213
    83  H    0.087404
    84  C   -0.022961
    85  N   -0.266572
    86  H    0.085349
    87  C    0.011575
    88  H    0.085472
    89  C   -0.422555
    90  C   -0.397161
    91  H    0.083424
    92  C   -0.430419
    93  C   -0.408030
    94  H    0.125673
    95  H    0.120645
    96  H    0.129901
    97  H    0.124797
    98  H    0.126138
    99  H    0.131392
   100  H    0.119448
   101  H    0.127187
   102  H    0.129013
   103  H    0.122925
   104  H    0.124910
   105  H    0.134589
   106  C    0.135058
   107  C   -0.053275
   108  N   -0.313273
   109  H    0.051459
   110  C   -0.115482
   111  N   -0.259712
   112  H    0.058988
   113  C   -0.010861
   114  H    0.076720
   115  C   -0.391803
   116  C   -0.365805
   117  H    0.081315
   118  C   -0.438973
   119  C   -0.387776
   120  H    0.127442
   121  H    0.116224
   122  H    0.126769
   123  H    0.111455
   124  H    0.135588
   125  H    0.129350
   126  H    0.123181
   127  H    0.126015
   128  H    0.128480
   129  H    0.134590
   130  H    0.136897
   131  H    0.132724
   132  H    0.088668
   133  H    0.199953
   134  H    0.086440
   135  H    0.177618
   136  H    0.199002
   137  H    0.204826
   138  H    0.125063
 Sum of Mulliken charges =   0.00000

 Dipole moment (field-independent basis, Debye):
    X=              1.2027    Y=             -3.9897    Z=             -1.4421  Tot=              4.4095
 Quadrupole moment (field-independent basis, Debye-Ang):
   XX=           -347.0066   YY=           -345.0668   ZZ=           -337.2310
   XY=              1.8219   XZ=              2.9075   YZ=              2.1688

 Normal termination of Gaussian 16 at Mon Oct 18 14:31:17 2021.
