 Gaussian 16, Revision C.01,
 Gaussian 16:  ES64L-G16RevC.01  3-Jul-2019

 ----------------------------------------------------------------------
 #P PBE1PBE/Def2TZVP SP SCF=(YQC,MaxCycle=900) int=(Grid=Superfinegrid)
  EmpiricalDispersion=GD3
 ----------------------------------------------------------------------

 -------------------------
 _2_alde1_3_ami1_1_opt_gas
 -------------------------
 Symbolic Z-matrix:
 Charge =  0 Multiplicity = 1

                         Standard orientation:
 ---------------------------------------------------------------------
 Center     Atomic      Atomic             Coordinates (Angstroms)
 Number     Number       Type             X           Y           Z
 ---------------------------------------------------------------------
      1          6           0        5.276168   -0.848099    0.228012
      2          6           0        4.652270   -2.164646    0.318193
      3          6           0        6.657806   -0.702746    0.287344
      4          6           0        7.237860    0.563799    0.210684
      5          1           0        7.307125   -1.559706    0.397370
      6          6           0        6.429299    1.690238    0.070607
      7          6           0        5.045778    1.555948    0.001662
      8          1           0        6.884191    2.669929    0.011045
      9          6           0        4.479201    0.285626    0.082677
     10          6           0        4.182644    2.722513   -0.155027
     11          1           0        3.407264    0.178794    0.032286
     12          6           0        8.696902    0.700730    0.277992
     13          1           0        4.682564    3.706411   -0.136495
     14          1           0        5.338030   -3.027022    0.367008
     15          6           0       -1.287633   -1.498658   -0.446517
     16          6           0       -0.412550   -2.653770   -0.602958
     17          6           0       -0.733396   -0.247213   -0.200090
     18          6           0       -1.548205    0.869260   -0.047225
     19          1           0        0.336600   -0.142324   -0.127523
     20          6           0       -2.930968    0.725157   -0.146268
     21          6           0       -3.493444   -0.517772   -0.398842
     22          1           0       -3.584634    1.578297   -0.036857
     23          6           0       -2.672529   -1.626405   -0.543444
     24          6           0       -4.990240   -0.669397   -0.468326
     25          1           0       -3.114752   -2.594468   -0.733653
     26          6           0       -0.944824    2.170842    0.210412
     27          1           0       -1.635246    3.030903    0.255856
     28          6           0        1.741082   -3.593904   -0.758617
     29          6           0        2.731350   -3.520395    0.434959
     30          7           0        0.836577   -2.504808   -0.615152
     31          1           0        1.236677   -4.578402   -0.746702
     32          6           0        2.464356   -3.442126   -2.117096
     33          7           0        3.399473   -2.267810    0.345367
     34          1           0        3.422942   -4.381766    0.384936
     35          6           0        1.995698   -3.569982    1.794545
     36          1           0        2.938506   -2.456375   -2.122474
     37          6           0        3.524315   -4.520984   -2.324066
     38          6           0        1.170817   -4.844863    1.950210
     39          6           0        3.008227   -3.474012    2.935054
     40          8           0        9.479877   -0.207307    0.396637
     41          6           0        2.050526    3.670345   -0.467232
     42          6           0        0.946336    3.515686    0.613517
     43          7           0        2.943760    2.575183   -0.308676
     44          1           0        2.545576    4.651494   -0.341395
     45          6           0        1.466763    3.605070   -1.898045
     46          7           0        0.298927    2.272088    0.370187
     47          1           0        0.258936    4.380344    0.550518
     48          6           0        1.539902    3.476745    2.040833
     49          1           0        1.002034    2.621405   -2.011544
     50          6           0        0.424599    4.694003   -2.138516
     51          1           0        2.199525    2.605651    2.092405
     52          6           0        2.333581    4.739736    2.365037
     53          6           0       -7.004507    0.550341   -0.331099
     54          6           0       -6.957205   -0.578672    0.739992
     55          7           0       -5.649662    0.572366   -0.870688
     56          1           0       -7.171517    1.516437    0.168204
     57          6           0       -8.123501    0.366443   -1.377890
     58          6           0       -7.522167   -0.191031    2.109091
     59          1           0       -9.045797    0.153470   -0.827458
     60          6           0       -8.326829    1.660442   -2.166233
     61          1           0       -6.943764    0.662517    2.484298
     62          6           0       -8.991816    0.214675    2.026546
     63          1           0       -0.908638   -3.633928   -0.711067
     64          1           0        9.049390    1.750231    0.208481
     65          6           0        1.445796   -3.502467   -3.254749
     66          1           0        1.335031   -2.699311    1.835288
     67          6           0        2.591664    3.739153   -2.923675
     68          6           0        0.417249    3.302427    3.062699
     69          6           0       -7.866090   -0.794652   -2.337604
     70          6           0       -7.365116   -1.358441    3.082932
     71          1           0        2.494928   -3.490376    3.893684
     72          1           0        3.578205   -2.550807    2.867951
     73          1           0        3.700300   -4.314245    2.902406
     74          1           0        3.095160   -5.511419   -2.181686
     75          1           0        4.358057   -4.400289   -1.638488
     76          1           0        3.915732   -4.461195   -3.337313
     77          1           0        0.937845   -4.465801   -3.260343
     78          1           0        1.945092   -3.372879   -4.212179
     79          1           0        0.702040   -2.717072   -3.146699
     80          1           0        1.786257   -5.724333    1.768012
     81          1           0        0.327103   -4.860669    1.266478
     82          1           0        0.778882   -4.906272    2.963128
     83          1           0       -7.419008    1.936021   -2.699625
     84          1           0       -8.589462    2.478790   -1.499247
     85          1           0       -9.126965    1.540492   -2.893412
     86          1           0       -9.586010   -0.597781    1.613248
     87          1           0       -9.127632    1.096093    1.405459
     88          1           0       -9.369019    0.439563    3.021804
     89          1           0       -7.715648   -1.727268   -1.798783
     90          1           0       -6.989470   -0.608965   -2.956056
     91          1           0       -8.719830   -0.920627   -3.000149
     92          1           0       -6.332293   -1.692101    3.118871
     93          1           0       -7.982207   -2.195388    2.763855
     94          1           0       -7.675795   -1.062574    4.082457
     95          1           0        0.135919    4.699788   -3.187386
     96          1           0        0.829556    5.673769   -1.890245
     97          1           0       -0.471573    4.526473   -1.548264
     98          1           0        2.622557    4.732319    3.413817
     99          1           0        1.730800    5.627859    2.183111
    100          1           0        3.240699    4.806321    1.771076
    101          1           0        0.829659    3.250552    4.067679
    102          1           0       -0.136718    2.386850    2.871658
    103          1           0       -0.272709    4.143885    3.017820
    104          1           0        3.094656    4.699028   -2.814800
    105          1           0        2.188628    3.676505   -3.931737
    106          1           0        3.324043    2.945630   -2.798546
    107          1           0       -5.624430    0.720234   -1.870898
    108          7           0       -5.551008   -0.965356    0.837978
    109          1           0       -7.505264   -1.453983    0.369472
    110          1           0       -5.242212   -1.518073   -1.132678
    111          1           0       -5.090413   -0.367471    1.520946
 ---------------------------------------------------------------------

 SCF Done:  E(RPBE1PBE) =  -2039.88414660     a.u. after    7 cycles
 SCF Done:  E(RPBE1PBE) =  -2039.88419094     A.U. after   10 cycles

 The electronic state is 1-A.
 Alpha  occ. eigenvalues --  -19.20215 -14.37394 -14.37274 -14.37052 -14.36775
 Alpha  occ. eigenvalues --  -14.36718 -14.36692 -10.30886 -10.27799 -10.26685
 Alpha  occ. eigenvalues --  -10.26474 -10.25975 -10.25973 -10.25132 -10.25067
 Alpha  occ. eigenvalues --  -10.24977 -10.24973 -10.24889 -10.24884 -10.24753
 Alpha  occ. eigenvalues --  -10.24575 -10.24514 -10.24471 -10.24416 -10.23575
 Alpha  occ. eigenvalues --  -10.23316 -10.23198 -10.23157 -10.23113 -10.23088
 Alpha  occ. eigenvalues --  -10.23067 -10.22660 -10.22214 -10.22143 -10.22050
 Alpha  occ. eigenvalues --  -10.22047 -10.21790 -10.21399 -10.21250 -10.21199
 Alpha  occ. eigenvalues --  -10.20613 -10.20596 -10.20454 -10.20417 -10.20407
 Alpha  occ. eigenvalues --  -10.20092 -10.19954 -10.19889 -10.19883  -1.07881
 Alpha  occ. eigenvalues --   -0.99570  -0.97453  -0.97251  -0.95274  -0.94891
 Alpha  occ. eigenvalues --   -0.90495  -0.89132  -0.88717  -0.84552  -0.84479
 Alpha  occ. eigenvalues --   -0.83484  -0.82302  -0.82032  -0.81421  -0.80292
 Alpha  occ. eigenvalues --   -0.80083  -0.79230  -0.78974  -0.74842  -0.74392
 Alpha  occ. eigenvalues --   -0.73196  -0.71399  -0.70910  -0.70591  -0.70426
 Alpha  occ. eigenvalues --   -0.70379  -0.70241  -0.69067  -0.68843  -0.68174
 Alpha  occ. eigenvalues --   -0.66397  -0.65219  -0.64679  -0.64204  -0.63321
 Alpha  occ. eigenvalues --   -0.63043  -0.60151  -0.58774  -0.58419  -0.58111
 Alpha  occ. eigenvalues --   -0.58019  -0.57885  -0.57425  -0.57059  -0.56712
 Alpha  occ. eigenvalues --   -0.54812  -0.54119  -0.53589  -0.52695  -0.52489
 Alpha  occ. eigenvalues --   -0.50980  -0.50316  -0.50158  -0.49361  -0.49260
 Alpha  occ. eigenvalues --   -0.48691  -0.48365  -0.48282  -0.47728  -0.47641
 Alpha  occ. eigenvalues --   -0.47145  -0.46857  -0.46679  -0.46279  -0.45819
 Alpha  occ. eigenvalues --   -0.45594  -0.45245  -0.44890  -0.44748  -0.44687
 Alpha  occ. eigenvalues --   -0.44051  -0.43799  -0.43589  -0.43464  -0.42984
 Alpha  occ. eigenvalues --   -0.42377  -0.42009  -0.41740  -0.41644  -0.41449
 Alpha  occ. eigenvalues --   -0.41296  -0.41097  -0.40807  -0.40358  -0.40193
 Alpha  occ. eigenvalues --   -0.40055  -0.39865  -0.39675  -0.39550  -0.39484
 Alpha  occ. eigenvalues --   -0.39287  -0.38980  -0.38718  -0.38483  -0.38235
 Alpha  occ. eigenvalues --   -0.38010  -0.37672  -0.37420  -0.37083  -0.36812
 Alpha  occ. eigenvalues --   -0.36654  -0.36280  -0.35720  -0.35214  -0.35120
 Alpha  occ. eigenvalues --   -0.34949  -0.34668  -0.34575  -0.34461  -0.34257
 Alpha  occ. eigenvalues --   -0.34138  -0.34009  -0.33948  -0.33872  -0.33791
 Alpha  occ. eigenvalues --   -0.32418  -0.32293  -0.32197  -0.32022  -0.31546
 Alpha  occ. eigenvalues --   -0.30077  -0.27688  -0.27495  -0.27332  -0.26620
 Alpha  occ. eigenvalues --   -0.26327  -0.25590  -0.25231  -0.24749  -0.24711
 Alpha  occ. eigenvalues --   -0.24606  -0.23795
 Alpha virt. eigenvalues --   -0.07357  -0.05520  -0.04483  -0.04377  -0.02442
 Alpha virt. eigenvalues --    0.03055   0.03228   0.04050   0.04323   0.04478
 Alpha virt. eigenvalues --    0.04547   0.04987   0.05514   0.05658   0.05705

 Mulliken charges:
               1
     1  C    0.437504
     2  C   -0.238148
     3  C   -0.346027
     4  C    0.241051
     5  H    0.132176
     6  C   -0.313406
     7  C    0.388651
     8  H    0.114219
     9  C   -0.356086
    10  C   -0.241170
    11  H    0.257295
    12  C    0.049724
    13  H    0.069184
    14  H    0.077145
    15  C    0.407733
    16  C   -0.261312
    17  C   -0.354968
    18  C    0.430002
    19  H    0.249385
    20  C   -0.332583
    21  C    0.302703
    22  H    0.115583
    23  C   -0.381331
    24  C   -0.115208
    25  H    0.099768
    26  C   -0.266165
    27  H    0.070125
    28  C    0.057768
    29  C    0.059709
    30  N   -0.177828
    31  H    0.067867
    32  C   -0.050664
    33  N   -0.177124
    34  H    0.070560
    35  C   -0.054169
    36  H    0.105926
    37  C   -0.395942
    38  C   -0.397325
    39  C   -0.371135
    40  O   -0.282131
    41  C    0.060452
    42  C    0.057254
    43  N   -0.174996
    44  H    0.068715
    45  C   -0.054128
    46  N   -0.178284
    47  H    0.067522
    48  C   -0.050897
    49  H    0.112220
    50  C   -0.397168
    51  H    0.106823
    52  C   -0.396117
    53  C    0.163306
    54  C   -0.084888
    55  N   -0.295432
    56  H    0.060829
    57  C   -0.147130
    58  C   -0.056190
    59  H    0.085360
    60  C   -0.341501
    61  H    0.077725
    62  C   -0.391438
    63  H    0.068993
    64  H    0.069946
    65  C   -0.372523
    66  H    0.111176
    67  C   -0.371836
    68  C   -0.372322
    69  C   -0.372635
    70  C   -0.348313
    71  H    0.121642
    72  H    0.137540
    73  H    0.102973
    74  H    0.113859
    75  H    0.122304
    76  H    0.124875
    77  H    0.101372
    78  H    0.121036
    79  H    0.139580
    80  H    0.113666
    81  H    0.123390
    82  H    0.124659
    83  H    0.107017
    84  H    0.121680
    85  H    0.123337
    86  H    0.118107
    87  H    0.127954
    88  H    0.128681
    89  H    0.126761
    90  H    0.102924
    91  H    0.130965
    92  H    0.135159
    93  H    0.107416
    94  H    0.119730
    95  H    0.124117
    96  H    0.113277
    97  H    0.123652
    98  H    0.125053
    99  H    0.114047
   100  H    0.119778
   101  H    0.121012
   102  H    0.140497
   103  H    0.101248
   104  H    0.101485
   105  H    0.121966
   106  H    0.137974
   107  H    0.184998
   108  N   -0.240657
   109  H    0.050574
   110  H    0.074028
   111  H    0.194447
 Sum of Mulliken charges =   0.00000

 Dipole moment (field-independent basis, Debye):
    X=             -5.2514    Y=              1.6737    Z=             -0.7924  Tot=              5.5683
 Quadrupole moment (field-independent basis, Debye-Ang):
   XX=           -315.9582   YY=           -283.2942   ZZ=           -300.4331
   XY=              9.6656   XZ=              0.8422   YZ=              2.9052

 Normal termination of Gaussian 16 at Sun Oct 17 22:12:41 2021.
