 Gaussian 16, Revision C.01,
 Gaussian 16:  ES64L-G16RevC.01  3-Jul-2019

 ----------------------------------------------------------------------
 #P PBE1PBE/Def2TZVP SP SCF=(YQC,MaxCycle=900) int=(Grid=Superfinegrid)
  EmpiricalDispersion=GD3 SCRF=(PCM,Solvent=Dichloromethane)
 ----------------------------------------------------------------------

 -------------------------
 _2_alde1_3_ami4_1_opt_dcm
 -------------------------
 Symbolic Z-matrix:
 Charge =  0 Multiplicity = 1

                         Standard orientation:
 ---------------------------------------------------------------------
 Center     Atomic      Atomic             Coordinates (Angstroms)
 Number     Number       Type             X           Y           Z
 ---------------------------------------------------------------------
      1          6           0       -2.430978   -0.720857    0.951586
      2          6           0       -2.021387   -2.110651    1.105871
      3          6           0       -3.707231   -0.392501    0.503963
      4          6           0       -4.053035    0.937912    0.273376
      5          1           0       -4.429678   -1.174936    0.329484
      6          6           0       -3.107225    1.941983    0.460929
      7          6           0       -1.826364    1.626495    0.907580
      8          1           0       -3.343003    2.975812    0.258569
      9          6           0       -1.504164    0.296650    1.172007
     10          6           0       -0.798248    2.652218    1.016758
     11          1           0       -0.509945    0.046892    1.517496
     12          6           0       -5.408567    1.274168   -0.190315
     13          1           0        0.137659    2.341434    1.503944
     14          1           0       -1.048003   -2.271754    1.592775
     15          6           0        0.489745   -1.500032   -1.138346
     16          6           0       -0.535748   -2.524910   -1.260294
     17          6           0        0.174091   -0.175644   -1.425916
     18          6           0        1.100764    0.836802   -1.190846
     19          1           0       -0.810073    0.072558   -1.800080
     20          6           0        2.365962    0.506260   -0.709080
     21          6           0        2.701493   -0.815018   -0.450673
     22          1           0        3.085075    1.293933   -0.548731
     23          6           0        1.759405   -1.810941   -0.650058
     24          6           0        4.067750   -1.136947    0.093247
     25          1           0        1.982453   -2.842460   -0.425815
     26          6           0        0.701188    2.225937   -1.354841
     27          1           0       -0.260670    2.390288   -1.864653
     28          6           0       -1.493657   -4.569483   -0.737746
     29          6           0       -2.186346   -4.374913    0.640629
     30          7           0       -0.378541   -3.686275   -0.783508
     31          1           0       -2.235447   -4.371300   -1.525297
     32          7           0       -2.728372   -3.060074    0.662099
     33          1           0       -1.437430   -4.546956    1.427551
     34          8           0       -6.289659    0.482368   -0.400320
     35          6           0        0.142842    4.701732    0.483220
     36          6           0        0.844476    4.491828   -0.887772
     37          7           0       -0.966095    3.810985    0.538851
     38          1           0       -0.227027    5.727012    0.534696
     39          7           0        1.393121    3.178476   -0.891853
     40          1           0        1.657751    5.214042   -0.976807
     41          6           0        5.635005   -0.663473    1.686534
     42          6           0        6.207296   -0.167828    0.338413
     43          7           0        4.196302   -0.753488    1.488767
     44          1           0        5.876763   -0.009909    2.522313
     45          7           0        5.108920   -0.369136   -0.602476
     46          1           0        7.115928   -0.713904    0.066087
     47          1           0       -1.467143   -2.212552   -1.756770
     48          1           0        4.243762   -2.227421    0.036998
     49          1           0        5.396962   -0.807017   -1.466994
     50          1           0       -5.567019    2.361190   -0.339742
     51          1           0       -1.132525   -5.597057   -0.804465
     52          1           0       -3.003112   -5.093286    0.726135
     53          1           0        0.881800    4.519740    1.277082
     54          1           0        0.101083    4.652535   -1.682922
     55          1           0        6.005336   -1.669217    1.907112
     56          1           0        6.445251    0.900875    0.376124
     57          1           0        3.778775    0.166364    1.605953
 ---------------------------------------------------------------------

 SCF Done:  E(RPBE1PBE) =  -1332.84179486     a.u. after    6 cycles
 SCF Done:  E(RPBE1PBE) =  -1332.84180704     A.U. after    9 cycles

 The electronic state is 1-A.
 Alpha  occ. eigenvalues --  -19.21384 -14.38369 -14.38287 -14.38027 -14.37969
 Alpha  occ. eigenvalues --  -14.37683 -14.36698 -10.31818 -10.27987 -10.27376
 Alpha  occ. eigenvalues --  -10.27284 -10.27036 -10.26994 -10.25489 -10.25356
 Alpha  occ. eigenvalues --  -10.25352 -10.25312 -10.25296 -10.25273 -10.25239
 Alpha  occ. eigenvalues --  -10.25230 -10.25147 -10.24890 -10.24405 -10.24396
 Alpha  occ. eigenvalues --  -10.24374 -10.24210 -10.24170 -10.23984 -10.23604
 Alpha  occ. eigenvalues --  -10.23459  -1.09182  -0.99419  -0.98428  -0.98290
 Alpha  occ. eigenvalues --   -0.95430  -0.95059  -0.91254  -0.89982  -0.87723
 Alpha  occ. eigenvalues --   -0.83040  -0.82344  -0.81417  -0.80651  -0.77903
 Alpha  occ. eigenvalues --   -0.75650  -0.74976  -0.70257  -0.70180  -0.68873
 Alpha  occ. eigenvalues --   -0.67873  -0.65879  -0.64138  -0.63598  -0.62571
 Alpha  occ. eigenvalues --   -0.60346  -0.59531  -0.59121  -0.57012  -0.56215
 Alpha  occ. eigenvalues --   -0.54722  -0.54007  -0.53401  -0.52938  -0.51829
 Alpha  occ. eigenvalues --   -0.51258  -0.50945  -0.50522  -0.49551  -0.48250
 Alpha  occ. eigenvalues --   -0.48131  -0.47356  -0.47271  -0.47096  -0.46496
 Alpha  occ. eigenvalues --   -0.46331  -0.45556  -0.44718  -0.44428  -0.44222
 Alpha  occ. eigenvalues --   -0.43899  -0.42269  -0.41335  -0.41008  -0.40684
 Alpha  occ. eigenvalues --   -0.40371  -0.40309  -0.40031  -0.39676  -0.38928
 Alpha  occ. eigenvalues --   -0.38279  -0.37485  -0.36872  -0.36156  -0.35780
 Alpha  occ. eigenvalues --   -0.35659  -0.35400  -0.33149  -0.32330  -0.28737
 Alpha  occ. eigenvalues --   -0.28556  -0.27983  -0.27922  -0.27496  -0.27316
 Alpha  occ. eigenvalues --   -0.26816  -0.26493  -0.26332  -0.25505  -0.23834
 Alpha virt. eigenvalues --   -0.07752  -0.07195  -0.06538  -0.03882  -0.02798
 Alpha virt. eigenvalues --    0.00195   0.03902   0.04012   0.05214   0.05404
 Alpha virt. eigenvalues --    0.05731   0.06137   0.06506   0.07328   0.07612

 Mulliken charges:
               1
     1  C    0.340031
     2  C   -0.143425
     3  C   -0.383654
     4  C    0.301544
     5  H    0.131515
     6  C   -0.344330
     7  C    0.301028
     8  H    0.133796
     9  C   -0.275985
    10  C   -0.138942
    11  H    0.147893
    12  C    0.074614
    13  H    0.104522
    14  H    0.106598
    15  C    0.312191
    16  C   -0.150550
    17  C   -0.298359
    18  C    0.309394
    19  H    0.139683
    20  C   -0.375079
    21  C    0.393711
    22  H    0.120557
    23  C   -0.407734
    24  C   -0.131818
    25  H    0.118650
    26  C   -0.152678
    27  H    0.099926
    28  C   -0.092716
    29  C   -0.090057
    30  N   -0.208750
    31  H    0.095374
    32  N   -0.204564
    33  H    0.095763
    34  O   -0.322473
    35  C   -0.090727
    36  C   -0.092885
    37  N   -0.209720
    38  H    0.130889
    39  N   -0.210093
    40  H    0.130677
    41  C   -0.152920
    42  C   -0.111583
    43  N   -0.297259
    44  H    0.139489
    45  N   -0.318940
    46  H    0.108441
    47  H    0.101605
    48  H    0.095753
    49  H    0.214744
    50  H    0.098488
    51  H    0.130447
    52  H    0.131114
    53  H    0.095732
    54  H    0.094435
    55  H    0.100362
    56  H    0.091064
    57  H    0.215209
 Sum of Mulliken charges =   0.00000

 Dipole moment (field-independent basis, Debye):
    X=              5.6748    Y=              1.1999    Z=              0.4350  Tot=              5.8165
 Quadrupole moment (field-independent basis, Debye-Ang):
   XX=           -200.5381   YY=           -166.2884   ZZ=           -179.8089
   XY=             -5.1399   XZ=              1.5705   YZ=              2.3727

 Normal termination of Gaussian 16 at Tue Oct 19 01:28:10 2021.
