 Gaussian 16, Revision C.01,
 Gaussian 16:  ES64L-G16RevC.01  3-Jul-2019

 ----------------------------------------------------------------------
 #P PBE1PBE/Def2TZVP SP SCF=(YQC,MaxCycle=900) int=(Grid=Superfinegrid)
  EmpiricalDispersion=GD3 SCRF=(PCM,Solvent=Chloroform)
 ----------------------------------------------------------------------

 -------------------------
 _2_alde1_3_ami3_1_opt_cfm
 -------------------------
 Symbolic Z-matrix:
 Charge =  0 Multiplicity = 1

                         Standard orientation:
 ---------------------------------------------------------------------
 Center     Atomic      Atomic             Coordinates (Angstroms)
 Number     Number       Type             X           Y           Z
 ---------------------------------------------------------------------
      1          6           0        3.120299   -1.049935    0.823595
      2          6           0        3.083598   -2.051722   -0.230498
      3          6           0        3.178659   -1.412313    2.167879
      4          6           0        3.098528   -0.439216    3.158414
      5          1           0        3.275014   -2.457693    2.418518
      6          6           0        2.917288    0.899417    2.806128
      7          6           0        2.865354    1.274826    1.469193
      8          1           0        2.822028    1.632226    3.594644
      9          6           0        2.995955    0.294528    0.486839
     10          6           0        2.576073    2.652430    1.090511
     11          1           0        2.960272    0.604808   -0.545734
     12          6           0        3.172146   -0.813586    4.577529
     13          1           0        2.126504    3.273581    1.880656
     14          1           0        3.107242   -1.654868   -1.256071
     15          6           0       -0.766808   -1.276636   -0.443808
     16          6           0       -0.277190   -2.646689   -0.470264
     17          6           0       -0.068313   -0.272609   -1.106850
     18          6           0       -0.431287    1.060805   -0.953221
     19          1           0        0.783023   -0.551793   -1.707269
     20          6           0       -1.546877    1.381246   -0.180005
     21          6           0       -2.284451    0.382826    0.439656
     22          1           0       -1.817780    2.419423   -0.065741
     23          6           0       -1.875981   -0.938334    0.329490
     24          6           0       -3.515409    0.753623    1.236949
     25          1           0       -2.433931   -1.699384    0.853765
     26          6           0        0.425421    2.092025   -1.513274
     27          1           0        1.236479    1.723844   -2.161161
     28          6           0        1.156289   -4.345156   -1.170446
     29          6           0        2.693528   -4.155728   -1.099050
     30          7           0        0.577808   -3.045662   -1.307680
     31          1           0        0.822494   -4.841562   -0.240960
     32          6           0        0.823553   -5.234739   -2.368603
     33          7           0        2.954050   -3.285089    0.005087
     34          1           0        3.008268   -3.699714   -2.054261
     35          6           0        3.364512   -5.513045   -0.918166
     36          6           0        1.506260   -6.591005   -2.222018
     37          6           0        3.018073   -6.428990   -2.087958
     38          8           0        3.099267   -0.048699    5.504833
     39          6           0        2.309162    4.385962   -0.441362
     40          6           0        1.350765    4.204399   -1.646060
     41          7           0        2.774556    3.085533   -0.076372
     42          1           0        1.746377    4.860402    0.382511
     43          6           0        3.465322    5.294539   -0.859454
     44          7           0        0.312329    3.315560   -1.224038
     45          1           0        1.943645    3.769382   -2.470820
     46          6           0        0.796047    5.563426   -2.059501
     47          6           0        2.930311    6.652866   -1.302072
     48          6           0        1.935694    6.499540   -2.449866
     49          6           0       -5.341052   -0.570746    0.778415
     50          6           0       -5.731042    0.893721    0.514249
     51          7           0       -4.226089   -0.443382    1.706052
     52          1           0       -4.929374   -0.995724   -0.148716
     53          6           0       -6.552261   -1.374538    1.202611
     54          7           0       -4.444720    1.568533    0.414531
     55          1           0       -6.229207    1.290231    1.412457
     56          6           0       -6.687524    0.978979   -0.657834
     57          6           0       -7.575525   -1.294548    0.064678
     58          6           0       -7.926509    0.150779   -0.301367
     59          1           0       -0.664673   -3.300476    0.327432
     60          1           0       -4.584311   -0.290723    2.644022
     61          1           0       -3.202153    1.357142    2.100373
     62          1           0       -4.128146    1.571534   -0.551369
     63          1           0        3.308003   -1.900998    4.742407
     64          1           0        3.761044    7.289661   -1.612940
     65          1           0        2.435006    7.136897   -0.457141
     66          1           0        1.532867    7.476562   -2.723673
     67          1           0        2.451983    6.093651   -3.323022
     68          1           0        0.110603    5.429303   -2.898486
     69          1           0        0.228618    5.979800   -1.225822
     70          1           0        4.149216    5.412456   -0.016102
     71          1           0        4.013433    4.817245   -1.673442
     72          1           0       -6.969218    2.014424   -0.855428
     73          1           0       -6.210647    0.576451   -1.555356
     74          1           0       -8.620986    0.149093   -1.143556
     75          1           0       -8.431890    0.621401    0.545208
     76          1           0       -8.486039   -1.823370    0.352493
     77          1           0       -7.163098   -1.795941   -0.814069
     78          1           0       -6.975049   -0.954755    2.118795
     79          1           0       -6.282199   -2.413798    1.396570
     80          1           0        3.025248   -5.951047    0.021951
     81          1           0        4.445143   -5.372534   -0.853150
     82          1           0        1.156409   -4.737227   -3.281127
     83          1           0       -0.259887   -5.359588   -2.428940
     84          1           0        1.274924   -7.212994   -3.089117
     85          1           0        1.116985   -7.095434   -1.334491
     86          1           0        3.483888   -7.405448   -1.941917
     87          1           0        3.418550   -6.001715   -3.010396
 ---------------------------------------------------------------------

 SCF Done:  E(RPBE1PBE) =  -1800.63564737     a.u. after    6 cycles
 SCF Done:  E(RPBE1PBE) =  -1800.63567412     A.U. after    9 cycles

 The electronic state is 1-A.
 Alpha  occ. eigenvalues --  -19.21134 -14.38143 -14.37857 -14.37708 -14.37432
 Alpha  occ. eigenvalues --  -14.37216 -14.36806 -10.31602 -10.27951 -10.27027
 Alpha  occ. eigenvalues --  -10.26760 -10.26618 -10.26335 -10.25300 -10.25273
 Alpha  occ. eigenvalues --  -10.25103 -10.25097 -10.25077 -10.25022 -10.25007
 Alpha  occ. eigenvalues --  -10.24955 -10.24900 -10.24851 -10.24216 -10.24110
 Alpha  occ. eigenvalues --  -10.23970 -10.23923 -10.23828 -10.23296 -10.23109
 Alpha  occ. eigenvalues --  -10.23077 -10.21748 -10.21693 -10.21690 -10.21687
 Alpha  occ. eigenvalues --  -10.21679 -10.21640 -10.21494 -10.21460 -10.21436
 Alpha  occ. eigenvalues --  -10.21409 -10.21374 -10.21317  -1.08884  -0.99293
 Alpha  occ. eigenvalues --   -0.98084  -0.97950  -0.95297  -0.94924  -0.91052
 Alpha  occ. eigenvalues --   -0.89708  -0.88155  -0.85985  -0.85610  -0.85112
 Alpha  occ. eigenvalues --   -0.81528  -0.81434  -0.80577  -0.80285  -0.76787
 Alpha  occ. eigenvalues --   -0.76423  -0.76301  -0.76100  -0.75322  -0.74334
 Alpha  occ. eigenvalues --   -0.68946  -0.68812  -0.68083  -0.67266  -0.66778
 Alpha  occ. eigenvalues --   -0.65802  -0.63082  -0.62890  -0.62391  -0.61976
 Alpha  occ. eigenvalues --   -0.61956  -0.61233  -0.59151  -0.58546  -0.58465
 Alpha  occ. eigenvalues --   -0.57527  -0.57178  -0.56599  -0.55856  -0.54442
 Alpha  occ. eigenvalues --   -0.53520  -0.52890  -0.52533  -0.51417  -0.51240
 Alpha  occ. eigenvalues --   -0.50491  -0.49927  -0.49404  -0.48455  -0.48257
 Alpha  occ. eigenvalues --   -0.48017  -0.47695  -0.47643  -0.47273  -0.47128
 Alpha  occ. eigenvalues --   -0.46454  -0.45607  -0.45564  -0.45276  -0.45003
 Alpha  occ. eigenvalues --   -0.44482  -0.44241  -0.44176  -0.44015  -0.43763
 Alpha  occ. eigenvalues --   -0.43387  -0.42149  -0.42127  -0.41503  -0.40981
 Alpha  occ. eigenvalues --   -0.40657  -0.40451  -0.40366  -0.40194  -0.40027
 Alpha  occ. eigenvalues --   -0.38892  -0.38788  -0.37814  -0.37317  -0.37115
 Alpha  occ. eigenvalues --   -0.36773  -0.36379  -0.36185  -0.36109  -0.35958
 Alpha  occ. eigenvalues --   -0.35883  -0.35730  -0.35351  -0.34409  -0.34186
 Alpha  occ. eigenvalues --   -0.33869  -0.33815  -0.33610  -0.33133  -0.32450
 Alpha  occ. eigenvalues --   -0.32384  -0.31853  -0.31408  -0.30558  -0.28502
 Alpha  occ. eigenvalues --   -0.27731  -0.27670  -0.27547  -0.27087  -0.27008
 Alpha  occ. eigenvalues --   -0.26391  -0.26060  -0.25269  -0.25090  -0.24264
 Alpha virt. eigenvalues --   -0.07595  -0.06652  -0.05736  -0.04192  -0.02635
 Alpha virt. eigenvalues --    0.01748   0.04335   0.04748   0.04854   0.04916
 Alpha virt. eigenvalues --    0.05035   0.05091   0.05123   0.05350   0.05958

 Mulliken charges:
               1
     1  C    0.345603
     2  C   -0.152955
     3  C   -0.336216
     4  C    0.259167
     5  H    0.131115
     6  C   -0.339487
     7  C    0.310717
     8  H    0.140527
     9  C   -0.274657
    10  C   -0.150940
    11  H    0.133896
    12  C    0.070428
    13  H    0.090266
    14  H    0.100177
    15  C    0.314130
    16  C   -0.167379
    17  C   -0.324619
    18  C    0.400269
    19  H    0.129222
    20  C   -0.435213
    21  C    0.142202
    22  H    0.128245
    23  C   -0.332739
    24  C    0.082172
    25  H    0.137832
    26  C   -0.179464
    27  H    0.096731
    28  C    0.023257
    29  C    0.043742
    30  N   -0.197338
    31  H    0.054910
    32  C   -0.195881
    33  N   -0.202835
    34  H    0.061428
    35  C   -0.171271
    36  C   -0.179236
    37  C   -0.193597
    38  O   -0.320467
    39  C    0.022929
    40  C    0.044212
    41  N   -0.195182
    42  H    0.057490
    43  C   -0.193708
    44  N   -0.200677
    45  H    0.059025
    46  C   -0.175132
    47  C   -0.180698
    48  C   -0.192490
    49  C   -0.048490
    50  C   -0.105942
    51  N   -0.295672
    52  H    0.068065
    53  C   -0.145800
    54  N   -0.278903
    55  H    0.065210
    56  C   -0.172892
    57  C   -0.199383
    58  C   -0.197113
    59  H    0.083946
    60  H    0.202529
    61  H    0.100417
    62  H    0.211393
    63  H    0.095208
    64  H    0.113281
    65  H    0.094255
    66  H    0.112879
    67  H    0.093646
    68  H    0.108633
    69  H    0.102575
    70  H    0.112485
    71  H    0.104974
    72  H    0.111828
    73  H    0.098752
    74  H    0.114988
    75  H    0.099876
    76  H    0.115582
    77  H    0.099756
    78  H    0.097796
    79  H    0.108072
    80  H    0.101064
    81  H    0.108880
    82  H    0.104874
    83  H    0.111875
    84  H    0.113106
    85  H    0.093586
    86  H    0.112988
    87  H    0.094165
 Sum of Mulliken charges =   0.00000

 Dipole moment (field-independent basis, Debye):
    X=             -2.7648    Y=             -1.5722    Z=             -3.3480  Tot=              4.6179
 Quadrupole moment (field-independent basis, Debye-Ang):
   XX=           -238.5130   YY=           -235.4331   ZZ=           -272.8567
   XY=              6.1807   XZ=            -17.6581   YZ=             -1.6303

 Normal termination of Gaussian 16 at Mon Oct 18 14:40:36 2021.
