 Gaussian 16, Revision C.01,
 Gaussian 16:  ES64L-G16RevC.01  3-Jul-2019

 ----------------------------------------------------------------------
 #P PBE1PBE/Def2TZVP SP SCF=(YQC,MaxCycle=900) int=(Grid=Superfinegrid)
  EmpiricalDispersion=GD3 SCRF=(PCM,Solvent=Chloroform)
 ----------------------------------------------------------------------

 -------------------------
 _2_alde1_3_ami4_2_opt_cfm
 -------------------------
 Symbolic Z-matrix:
 Charge =  0 Multiplicity = 1

                         Standard orientation:
 ---------------------------------------------------------------------
 Center     Atomic      Atomic             Coordinates (Angstroms)
 Number     Number       Type             X           Y           Z
 ---------------------------------------------------------------------
      1          6           0        2.737052   -1.213206    0.230801
      2          6           0        2.688380   -2.146100   -0.885328
      3          6           0        2.667359   -1.657996    1.549936
      4          6           0        2.613009   -0.741882    2.594806
      5          1           0        2.647314   -2.720553    1.737878
      6          6           0        2.589585    0.626485    2.320140
      7          6           0        2.662428    1.083085    1.009648
      8          1           0        2.515582    1.317419    3.147790
      9          6           0        2.761724    0.153930   -0.025455
     10          6           0        2.542520    2.504060    0.708715
     11          1           0        2.826215    0.526353   -1.035943
     12          6           0        2.552105   -1.203622    3.989451
     13          1           0        2.181584    3.135254    1.534819
     14          1           0        2.839176   -1.700488   -1.879020
     15          6           0       -1.069207   -1.030182   -1.235541
     16          6           0       -0.699504   -2.432570   -1.368561
     17          6           0       -0.254783   -0.038197   -1.780404
     18          6           0       -0.513924    1.306230   -1.540517
     19          1           0        0.599058   -0.343558   -2.364535
     20          6           0       -1.634907    1.663022   -0.792161
     21          6           0       -2.484795    0.686744   -0.283917
     22          1           0       -1.821013    2.711163   -0.613791
     23          6           0       -2.182951   -0.660139   -0.491458
     24          6           0       -3.664965    1.072358    0.476941
     25          1           0       -2.834391   -1.404267   -0.059075
     26          6           0        0.441447    2.304105   -1.995032
     27          1           0        1.234917    1.927156   -2.657530
     28          6           0        0.650437   -4.169813   -2.145749
     29          6           0        2.177800   -4.154876   -1.902897
     30          7           0        0.198301   -2.816164   -2.166516
     31          1           0        0.154538   -4.768570   -1.365580
     32          7           0        2.424818   -3.371189   -0.732602
     33          1           0        2.667020   -3.735971   -2.794881
     34          8           0        2.487049   -0.488755    4.955954
     35          6           0        2.498240    4.330294   -0.740738
     36          6           0        1.519480    4.345645   -1.937880
     37          7           0        2.792175    2.967237   -0.436711
     38          1           0        2.052552    4.865853    0.112020
     39          7           0        0.409789    3.505396   -1.607969
     40          1           0        2.057122    3.993140   -2.831130
     41          6           0       -5.637043    0.625670    1.645124
     42          6           0       -6.891728    0.172514    0.861397
     43          7           0       -4.469245    0.216863    0.937687
     44          1           0       -5.628524    0.116987    2.615258
     45          7           0       -6.983032   -1.251948    0.640229
     46          1           0       -6.889938    0.663205   -0.116034
     47          1           0       -1.225668   -3.128242   -0.696665
     48          1           0       -3.807359    2.154118    0.624251
     49          1           0       -6.159365   -1.565658    0.137268
     50          1           0        2.572651   -2.306513    4.092782
     51          1           0        0.461207   -4.619248   -3.124444
     52          1           0        2.524176   -5.174969   -1.728120
     53          1           0        3.422587    4.829778   -1.043162
     54          1           0        1.160674    5.364745   -2.093965
     55          1           0       -5.680497    1.715559    1.809498
     56          1           0       -7.780423    0.496428    1.409795
     57          1           0       -7.001785   -1.743800    1.528146
 ---------------------------------------------------------------------

 SCF Done:  E(RPBE1PBE) =  -1332.83281318     a.u. after    6 cycles
 SCF Done:  E(RPBE1PBE) =  -1332.83282499     A.U. after   10 cycles

 The electronic state is 1-A.
 Alpha  occ. eigenvalues --  -19.21274 -14.38564 -14.38328 -14.38191 -14.38146
 Alpha  occ. eigenvalues --  -14.37964 -14.35754 -10.31739 -10.27360 -10.27137
 Alpha  occ. eigenvalues --  -10.27049 -10.26923 -10.26818 -10.25403 -10.25374
 Alpha  occ. eigenvalues --  -10.25319 -10.25296 -10.25236 -10.25156 -10.25117
 Alpha  occ. eigenvalues --  -10.25095 -10.25082 -10.25068 -10.24691 -10.24676
 Alpha  occ. eigenvalues --  -10.24640 -10.24384 -10.24308 -10.24207 -10.24197
 Alpha  occ. eigenvalues --  -10.24182  -1.09040  -0.98172  -0.98009  -0.96688
 Alpha  occ. eigenvalues --   -0.95570  -0.95180  -0.91236  -0.90876  -0.89919
 Alpha  occ. eigenvalues --   -0.82978  -0.82227  -0.81297  -0.81023  -0.77648
 Alpha  occ. eigenvalues --   -0.76280  -0.74804  -0.70292  -0.70152  -0.68821
 Alpha  occ. eigenvalues --   -0.67531  -0.67174  -0.64898  -0.63380  -0.62646
 Alpha  occ. eigenvalues --   -0.61087  -0.57689  -0.57054  -0.56404  -0.56149
 Alpha  occ. eigenvalues --   -0.54883  -0.54331  -0.53037  -0.52507  -0.51513
 Alpha  occ. eigenvalues --   -0.50896  -0.50764  -0.50367  -0.49402  -0.48904
 Alpha  occ. eigenvalues --   -0.47724  -0.47686  -0.47494  -0.47087  -0.46731
 Alpha  occ. eigenvalues --   -0.46122  -0.45482  -0.45400  -0.44642  -0.44395
 Alpha  occ. eigenvalues --   -0.44092  -0.42540  -0.41836  -0.41317  -0.41139
 Alpha  occ. eigenvalues --   -0.40719  -0.40448  -0.39928  -0.39371  -0.38397
 Alpha  occ. eigenvalues --   -0.37743  -0.37436  -0.36869  -0.36190  -0.35771
 Alpha  occ. eigenvalues --   -0.35598  -0.35335  -0.33024  -0.31187  -0.28652
 Alpha  occ. eigenvalues --   -0.28074  -0.27897  -0.27847  -0.27611  -0.27511
 Alpha  occ. eigenvalues --   -0.27259  -0.26689  -0.26491  -0.26098  -0.24839
 Alpha virt. eigenvalues --   -0.07849  -0.06981  -0.06323  -0.05901  -0.03464
 Alpha virt. eigenvalues --   -0.01958   0.04632   0.04853   0.05005   0.05272
 Alpha virt. eigenvalues --    0.05535   0.05961   0.06647   0.06927   0.07117

 Mulliken charges:
               1
     1  C    0.358830
     2  C   -0.158467
     3  C   -0.338491
     4  C    0.265007
     5  H    0.132441
     6  C   -0.339777
     7  C    0.309428
     8  H    0.141009
     9  C   -0.282006
    10  C   -0.138132
    11  H    0.138370
    12  C    0.075627
    13  H    0.089855
    14  H    0.097448
    15  C    0.319228
    16  C   -0.146165
    17  C   -0.299596
    18  C    0.365750
    19  H    0.135679
    20  C   -0.377582
    21  C    0.363017
    22  H    0.123666
    23  C   -0.357046
    24  C   -0.164935
    25  H    0.130465
    26  C   -0.164413
    27  H    0.094780
    28  C   -0.095106
    29  C   -0.072143
    30  N   -0.200576
    31  H    0.085060
    32  N   -0.200659
    33  H    0.091490
    34  O   -0.319272
    35  C   -0.092941
    36  C   -0.073617
    37  N   -0.198025
    38  H    0.085614
    39  N   -0.200361
    40  H    0.090490
    41  C   -0.118877
    42  C   -0.085657
    43  N   -0.187745
    44  H    0.121198
    45  N   -0.541367
    46  H    0.111264
    47  H    0.086386
    48  H    0.085684
    49  H    0.233145
    50  H    0.096286
    51  H    0.127475
    52  H    0.125489
    53  H    0.127623
    54  H    0.125033
    55  H    0.078858
    56  H    0.116016
    57  H    0.225245
 Sum of Mulliken charges =   0.00000

 Dipole moment (field-independent basis, Debye):
    X=              0.8953    Y=              0.5836    Z=             -2.3378  Tot=              2.5705
 Quadrupole moment (field-independent basis, Debye-Ang):
   XX=           -195.6457   YY=           -159.9446   ZZ=           -196.8194
   XY=             -3.7439   XZ=            -21.2294   YZ=              1.8409

 Normal termination of Gaussian 16 at Mon Oct 18 07:44:25 2021.
