 Gaussian 16, Revision C.01,
 Gaussian 16:  ES64L-G16RevC.01  3-Jul-2019

 ----------------------------------------------------------------------
 #P PBE1PBE/Def2TZVP SP SCF=(YQC,MaxCycle=900) int=(Grid=Superfinegrid)
  EmpiricalDispersion=GD3
 ----------------------------------------------------------------------

 -------------------------
 _2_alde1_3_ami1_2_opt_gas
 -------------------------
 Symbolic Z-matrix:
 Charge =  0 Multiplicity = 1

                         Standard orientation:
 ---------------------------------------------------------------------
 Center     Atomic      Atomic             Coordinates (Angstroms)
 Number     Number       Type             X           Y           Z
 ---------------------------------------------------------------------
      1          6           0       -1.064629    1.426067   -1.894340
      2          6           0       -1.152811    2.840950   -1.565912
      3          6           0        0.139457    0.905012   -2.351602
      4          6           0        0.296484   -0.470816   -2.523429
      5          1           0        0.981298    1.550595   -2.557010
      6          6           0       -0.753453   -1.328527   -2.221937
      7          6           0       -1.960803   -0.822049   -1.742619
      8          1           0       -0.641482   -2.398368   -2.308329
      9          6           0       -2.113687    0.553228   -1.601937
     10          6           0       -2.964972   -1.728690   -1.204980
     11          1           0       -3.031882    0.971615   -1.218315
     12          6           0        1.596252   -1.008377   -2.934803
     13          1           0       -3.834084   -1.253047   -0.727133
     14          1           0       -0.225424    3.414162   -1.716192
     15          6           0       -0.509792    1.120698    1.415673
     16          6           0       -1.386649    2.279637    1.459952
     17          6           0       -1.071484   -0.150167    1.445456
     18          6           0       -0.286800   -1.284149    1.238139
     19          1           0       -2.131603   -0.284237    1.596334
     20          6           0        1.079692   -1.133726    1.034079
     21          6           0        1.666120    0.132831    1.038038
     22          1           0        1.713439   -1.991423    0.866128
     23          6           0        0.864263    1.254062    1.217644
     24          6           0        3.106112    0.284441    0.873639
     25          1           0        1.286437    2.247224    1.193378
     26          6           0       -0.911601   -2.594968    1.129741
     27          1           0       -0.243971   -3.419930    0.836804
     28          6           0       -1.947681    4.492313    1.053693
     29          6           0       -2.095472    4.671853   -0.495045
     30          7           0       -0.979212    3.456720    1.257722
     31          1           0       -2.934924    4.184525    1.437705
     32          6           0       -1.503521    5.775306    1.776555
     33          7           0       -2.181362    3.354670   -1.047189
     34          1           0       -1.187532    5.187088   -0.850690
     35          6           0       -3.332117    5.493965   -0.897296
     36          1           0       -2.183017    6.585394    1.492585
     37          6           0       -1.621638    5.552372    3.284524
     38          6           0       -3.237932    5.826746   -2.386572
     39          6           0       -4.636205    4.753828   -0.613069
     40          8           0        2.596156   -0.353858   -3.097782
     41          6           0       -3.589038   -3.795368   -0.340209
     42          6           0       -2.767400   -4.006728    0.975990
     43          7           0       -2.771882   -2.974580   -1.176719
     44          1           0       -4.522837   -3.277175   -0.063739
     45          6           0       -3.931477   -5.115514   -1.051230
     46          7           0       -2.151957   -2.754061    1.290167
     47          1           0       -2.007614   -4.779804    0.768991
     48          6           0       -3.646650   -4.468885    2.153441
     49          1           0       -4.320477   -5.816977   -0.305502
     50          6           0       -5.023367   -4.853930   -2.088287
     51          1           0       -4.293272   -5.278692    1.799514
     52          6           0       -2.749432   -5.014605    3.263939
     53          6           0        5.847009   -1.164662   -0.687808
     54          6           0        5.278880   -0.542911    0.630685
     55          7           0        4.900926   -1.980887   -1.426745
     56          1           0        6.665562   -1.840893   -0.404075
     57          6           0        6.455988   -0.116300   -1.640701
     58          7           0        3.861113   -0.705025    0.681207
     59          1           0        5.557145    0.523647    0.681597
     60          6           0        5.885242   -1.225308    1.881557
     61          1           0        6.667122   -0.663197   -2.566006
     62          6           0        5.510368    1.033004   -1.985681
     63          1           0        6.973913   -1.208671    1.756230
     64          6           0        5.534837   -0.434483    3.140768
     65          1           0       -2.454701    2.049818    1.596524
     66          1           0        4.385186   -2.567257   -0.779693
     67          1           0        3.487515    1.314439    0.960527
     68          1           0        1.607884   -2.106359   -3.071760
     69          6           0       -0.073242    6.172075    1.421283
     70          1           0       -3.320667    6.431621   -0.332309
     71          6           0       -2.712329   -5.735530   -1.728451
     72          6           0       -4.516963   -3.339565    2.697921
     73          6           0        7.774911    0.426181   -1.092812
     74          6           0        5.421115   -2.672111    2.022460
     75          1           0        4.223770   -1.390457   -1.898667
     76          1           0       -4.791416    4.619319    0.454144
     77          1           0       -4.613811    3.777529   -1.088632
     78          1           0       -5.477003    5.319991   -1.007331
     79          1           0       -2.642216    5.293255    3.559249
     80          1           0       -1.339232    6.452778    3.825118
     81          1           0       -0.964712    4.741439    3.591647
     82          1           0        0.248499    7.000859    2.047906
     83          1           0        0.005862    6.484459    0.383363
     84          1           0        0.589991    5.327580    1.583853
     85          1           0       -3.234427    4.910349   -2.972900
     86          1           0       -2.326008    6.379394   -2.603471
     87          1           0       -4.086940    6.432507   -2.694539
     88          1           0        5.335731    1.676590   -1.125962
     89          1           0        4.553551    0.662664   -2.342062
     90          1           0        5.949911    1.641407   -2.773327
     91          1           0        4.456640   -0.412990    3.289148
     92          1           0        5.893842    0.590575    3.067186
     93          1           0        5.992338   -0.894528    4.013751
     94          1           0        8.219486    1.118510   -1.804296
     95          1           0        8.480318   -0.382771   -0.915899
     96          1           0        7.621163    0.956486   -0.155193
     97          1           0        5.687770   -3.254005    1.144328
     98          1           0        4.341911   -2.703870    2.147906
     99          1           0        5.887582   -3.130109    2.892230
    100          1           0       -5.920175   -4.457549   -1.616267
    101          1           0       -5.285908   -5.774688   -2.603664
    102          1           0       -4.671875   -4.133397   -2.823859
    103          1           0       -2.075120   -4.236235    3.615050
    104          1           0       -2.154709   -5.852503    2.905789
    105          1           0       -3.350764   -5.355603    4.103455
    106          1           0       -5.209750   -2.975343    1.944244
    107          1           0       -3.888926   -2.512971    3.017813
    108          1           0       -5.095694   -3.694499    3.547770
    109          1           0       -2.297927   -5.036871   -2.449373
    110          1           0       -2.999411   -6.648687   -2.244778
    111          1           0       -1.940493   -5.982890   -1.004853
 ---------------------------------------------------------------------

 SCF Done:  E(RPBE1PBE) =  -2039.86957335     a.u. after    7 cycles
 SCF Done:  E(RPBE1PBE) =  -2039.86958935     A.U. after    9 cycles

 The electronic state is 1-A.
 Alpha  occ. eigenvalues --  -19.21389 -14.38129 -14.38058 -14.38033 -14.37749
 Alpha  occ. eigenvalues --  -14.37511 -14.33426 -10.31901 -10.27298 -10.27284
 Alpha  occ. eigenvalues --  -10.27171 -10.26921 -10.26575 -10.25843 -10.25795
 Alpha  occ. eigenvalues --  -10.25732 -10.25636 -10.25396 -10.25386 -10.25323
 Alpha  occ. eigenvalues --  -10.25264 -10.25231 -10.25196 -10.24662 -10.24589
 Alpha  occ. eigenvalues --  -10.24565 -10.24179 -10.24147 -10.24135 -10.24035
 Alpha  occ. eigenvalues --  -10.23333 -10.23114 -10.23029 -10.23011 -10.22871
 Alpha  occ. eigenvalues --  -10.22243 -10.21064 -10.20806 -10.20801 -10.20710
 Alpha  occ. eigenvalues --  -10.20578 -10.20400 -10.20350 -10.20336 -10.20190
 Alpha  occ. eigenvalues --  -10.20093 -10.19852 -10.19692 -10.19061  -1.09090
 Alpha  occ. eigenvalues --   -0.98827  -0.98656  -0.96593  -0.95518  -0.95116
 Alpha  occ. eigenvalues --   -0.91555  -0.90400  -0.89252  -0.85567  -0.84713
 Alpha  occ. eigenvalues --   -0.82978  -0.82920  -0.82346  -0.81351  -0.80915
 Alpha  occ. eigenvalues --   -0.80256  -0.80022  -0.79901  -0.75152  -0.74520
 Alpha  occ. eigenvalues --   -0.72530  -0.70875  -0.70800  -0.70572  -0.70445
 Alpha  occ. eigenvalues --   -0.70107  -0.69959  -0.69727  -0.69511  -0.68969
 Alpha  occ. eigenvalues --   -0.67560  -0.67213  -0.65704  -0.64476  -0.63731
 Alpha  occ. eigenvalues --   -0.62773  -0.60521  -0.59844  -0.58613  -0.58358
 Alpha  occ. eigenvalues --   -0.57827  -0.57179  -0.56570  -0.55996  -0.55613
 Alpha  occ. eigenvalues --   -0.55318  -0.54484  -0.54031  -0.52688  -0.52302
 Alpha  occ. eigenvalues --   -0.51339  -0.51065  -0.50773  -0.50479  -0.50164
 Alpha  occ. eigenvalues --   -0.49397  -0.49247  -0.48870  -0.47948  -0.47754
 Alpha  occ. eigenvalues --   -0.47526  -0.47210  -0.47046  -0.46752  -0.45782
 Alpha  occ. eigenvalues --   -0.45683  -0.45532  -0.45097  -0.45056  -0.44821
 Alpha  occ. eigenvalues --   -0.44416  -0.43986  -0.43720  -0.43553  -0.43478
 Alpha  occ. eigenvalues --   -0.43014  -0.42685  -0.42652  -0.42574  -0.42194
 Alpha  occ. eigenvalues --   -0.41093  -0.40971  -0.40723  -0.40547  -0.40457
 Alpha  occ. eigenvalues --   -0.40035  -0.39769  -0.39687  -0.39341  -0.39270
 Alpha  occ. eigenvalues --   -0.39149  -0.39076  -0.38866  -0.38811  -0.38625
 Alpha  occ. eigenvalues --   -0.38260  -0.37921  -0.37393  -0.37332  -0.37032
 Alpha  occ. eigenvalues --   -0.36069  -0.35862  -0.35514  -0.35462  -0.35198
 Alpha  occ. eigenvalues --   -0.35116  -0.34905  -0.34654  -0.34358  -0.34316
 Alpha  occ. eigenvalues --   -0.34253  -0.33845  -0.33690  -0.33596  -0.33442
 Alpha  occ. eigenvalues --   -0.32909  -0.32842  -0.32204  -0.32027  -0.31527
 Alpha  occ. eigenvalues --   -0.29599  -0.28723  -0.28138  -0.27608  -0.27461
 Alpha  occ. eigenvalues --   -0.27272  -0.27093  -0.26667  -0.26516  -0.25454
 Alpha  occ. eigenvalues --   -0.25321  -0.23045
 Alpha virt. eigenvalues --   -0.08612  -0.07552  -0.06052  -0.05516  -0.03838
 Alpha virt. eigenvalues --   -0.01954   0.03486   0.03532   0.03766   0.04154
 Alpha virt. eigenvalues --    0.04352   0.04605   0.04873   0.05236   0.05621

 Mulliken charges:
               1
     1  C    0.336348
     2  C   -0.098631
     3  C   -0.347600
     4  C    0.291764
     5  H    0.139477
     6  C   -0.292260
     7  C    0.330914
     8  H    0.146622
     9  C   -0.331267
    10  C   -0.117702
    11  H    0.140012
    12  C    0.041991
    13  H    0.073549
    14  H    0.074142
    15  C    0.336824
    16  C   -0.111531
    17  C   -0.305490
    18  C    0.357084
    19  H    0.135512
    20  C   -0.402970
    21  C    0.426954
    22  H    0.130719
    23  C   -0.369847
    24  C   -0.228322
    25  H    0.134208
    26  C   -0.127610
    27  H    0.070113
    28  C    0.113487
    29  C    0.112762
    30  N   -0.268216
    31  H    0.063452
    32  C   -0.008454
    33  N   -0.268505
    34  H    0.066163
    35  C   -0.016902
    36  H    0.070144
    37  C   -0.384108
    38  C   -0.382819
    39  C   -0.394489
    40  O   -0.312554
    41  C    0.124030
    42  C    0.106349
    43  N   -0.259603
    44  H    0.051849
    45  C   -0.018494
    46  N   -0.254786
    47  H    0.048716
    48  C   -0.018937
    49  H    0.067418
    50  C   -0.381993
    51  H    0.067755
    52  C   -0.380819
    53  C    0.053166
    54  C    0.049163
    55  N   -0.476466
    56  H    0.075564
    57  C   -0.064062
    58  N   -0.217619
    59  H    0.056559
    60  C   -0.006589
    61  H    0.088750
    62  C   -0.384440
    63  H    0.085813
    64  C   -0.389178
    65  H    0.068834
    66  H    0.208645
    67  H    0.068031
    68  H    0.093780
    69  C   -0.397043
    70  H    0.071370
    71  C   -0.385309
    72  C   -0.385751
    73  C   -0.367529
    74  C   -0.409821
    75  H    0.206142
    76  H    0.114105
    77  H    0.134169
    78  H    0.118370
    79  H    0.113344
    80  H    0.122268
    81  H    0.128798
    82  H    0.117413
    83  H    0.113763
    84  H    0.136595
    85  H    0.127015
    86  H    0.115103
    87  H    0.122715
    88  H    0.090928
    89  H    0.162978
    90  H    0.117465
    91  H    0.126242
    92  H    0.114164
    93  H    0.122431
    94  H    0.121688
    95  H    0.120552
    96  H    0.107890
    97  H    0.131017
    98  H    0.128149
    99  H    0.119422
   100  H    0.116093
   101  H    0.122918
   102  H    0.125733
   103  H    0.126565
   104  H    0.116636
   105  H    0.122832
   106  H    0.109722
   107  H    0.134478
   108  H    0.119038
   109  H    0.132166
   110  H    0.119393
   111  H    0.111386
 Sum of Mulliken charges =  -0.00000

 Dipole moment (field-independent basis, Debye):
    X=             -3.6098    Y=              0.7398    Z=              1.6290  Tot=              4.0288
 Quadrupole moment (field-independent basis, Debye-Ang):
   XX=           -306.8123   YY=           -287.1628   ZZ=           -312.3621
   XY=              7.8479   XZ=              7.9174   YZ=             -3.8598

 Normal termination of Gaussian 16 at Mon Oct 18 18:00:27 2021.
