 Gaussian 16, Revision C.01,
 Gaussian 16:  ES64L-G16RevC.01  3-Jul-2019

 ---------------------------------------------------------------------
 #P MP2/aug-cc-pVDZ SP SCF=(YQC,MaxCycle=900) int=(Grid=Superfinegrid)
 ---------------------------------------------------------------------

 -----------------------------
 _2_alde1_4_ami4_1_opt_gas_mp2
 -----------------------------
 Symbolic Z-matrix:
 Charge =  0 Multiplicity = 1

                         Standard orientation:
 ---------------------------------------------------------------------
 Center     Atomic      Atomic             Coordinates (Angstroms)
 Number     Number       Type             X           Y           Z
 ---------------------------------------------------------------------
      1          6           0       -1.925425   -0.830059    0.491052
      2          6           0       -1.078629   -1.977950    0.793569
      3          6           0       -3.223104   -1.022914    0.010897
      4          6           0       -4.037959    0.059680   -0.270754
      5          1           0       -3.588960   -2.027961   -0.122761
      6          6           0       -3.553429    1.347885   -0.095273
      7          6           0       -2.255682    1.560032    0.365402
      8          1           0       -4.199109    2.184269   -0.318853
      9          6           0       -1.448029    0.463683    0.667373
     10          6           0       -1.742587    2.918240    0.483918
     11          1           0       -0.445637    0.646195    1.024748
     12          6           0       -5.446086   -0.155002   -0.786873
     13          1           0       -2.463295    3.726143    0.273586
     14          1           0       -0.144189   -1.757285    1.331691
     15          6           0        1.843630   -1.191982   -1.189749
     16          6           0        0.993055   -2.370133   -1.281904
     17          6           0        1.283351    0.059253   -1.419477
     18          6           0        2.017588    1.214825   -1.172638
     19          1           0        0.249687    0.135125   -1.729142
     20          6           0        3.346169    1.110973   -0.765222
     21          6           0        3.929173   -0.135659   -0.584684
     22          1           0        3.910533    2.012246   -0.588836
     23          6           0        3.172092   -1.283232   -0.777683
     24          6           0        5.365195   -0.245069   -0.157889
     25          1           0        3.602155   -2.257597   -0.610029
     26          6           0        1.326565    2.491454   -1.229219
     27          1           0        0.362438    2.476123   -1.762732
     28          6           0        0.310784   -4.479024   -0.589118
     29          6           0       -0.536139   -4.245849    0.687542
     30          7           0        1.273388   -3.430822   -0.656391
     31          7           0       -1.415319   -3.148346    0.456234
     32          6           0       -6.455716   -1.020464    1.085168
     33          6           0       -6.670195    0.525099    1.034457
     34          7           0       -5.989420   -1.396423   -0.243759
     35          7           0       -6.312376    0.928509   -0.320821
     36          6           0        0.011813    4.452677    0.771299
     37          6           0        0.853998    4.630904   -0.517154
     38          7           0       -0.536679    3.137099    0.777609
     39          7           0        1.743774    3.517755   -0.624872
     40          6           0        6.915102   -1.139863    1.288219
     41          6           0        7.040724    0.418009    1.272391
     42          7           0        5.645982   -1.439591    0.641015
     43          7           0        5.835031    0.903946    0.616964
     44          1           0        0.070033   -2.254090   -1.870648
     45          1           0        4.911048   -1.549837    1.335605
     46          1           0        6.009710   -0.306680   -1.050342
     47          1           0        5.128453    1.146213    1.307387
     48          1           0       -7.142816    0.974446   -0.904031
     49          1           0       -6.766793   -1.711086   -0.816354
     50          1           0       -5.420142   -0.186982   -1.881798
     51          1           0        7.904267    0.718945    0.673467
     52          1           0        7.145741    0.841467    2.270723
     53          1           0        6.952818   -1.554509    2.295130
     54          1           0        7.718081   -1.587472    0.696682
     55          1           0       -5.991339    1.020952    1.732293
     56          1           0       -7.692410    0.816343    1.274002
     57          1           0       -5.674048   -1.267485    1.807128
     58          1           0       -7.362804   -1.561757    1.351788
     59          1           0        0.154090   -4.077299    1.527884
     60          1           0       -1.145854   -5.132832    0.872642
     61          1           0       -0.368559   -4.503679   -1.454194
     62          1           0        0.839305   -5.429580   -0.495172
     63          1           0        1.437011    5.550797   -0.441318
     64          1           0        0.160343    4.697475   -1.372023
     65          1           0       -0.751733    5.247253    0.803198
     66          1           0        0.673761    4.534160    1.636535
 ---------------------------------------------------------------------

 SCF Done:  E(RHF) =  -1438.87250990     a.u. after    7 cycles
 SCF Done:  E(RHF) =  -1438.87255149     A.U. after   18 cycles
 E2 =    -0.4994145831D+01 EUMP2 =    -0.14438666973241D+04

 The electronic state is 1-A.
 Alpha  occ. eigenvalues --  -15.55874 -15.55670 -15.55634 -15.55399 -15.55318
 Alpha  occ. eigenvalues --  -15.54850 -15.54604 -15.54576 -11.29706 -11.28546
 Alpha  occ. eigenvalues --  -11.28420 -11.28006 -11.27897 -11.27568 -11.25701
 Alpha  occ. eigenvalues --  -11.25677 -11.25563 -11.25471 -11.25234 -11.25175
 Alpha  occ. eigenvalues --  -11.24831 -11.24777 -11.24372 -11.24238 -11.24224
 Alpha  occ. eigenvalues --  -11.24195 -11.24112 -11.24083 -11.24011 -11.23949
 Alpha  occ. eigenvalues --  -11.23910 -11.23436 -11.23433 -11.23408  -1.28662
 Alpha  occ. eigenvalues --   -1.27409  -1.25807  -1.25627  -1.22808  -1.22380
 Alpha  occ. eigenvalues --   -1.16548  -1.15811  -1.15037  -1.13890  -1.06705
 Alpha  occ. eigenvalues --   -1.06114  -1.05241  -1.04224  -1.00728  -0.98844
 Alpha  occ. eigenvalues --   -0.98232  -0.97460  -0.90777  -0.90722  -0.87960
 Alpha  occ. eigenvalues --   -0.87082  -0.86518  -0.83372  -0.82921  -0.82102
 Alpha  occ. eigenvalues --   -0.81262  -0.79702  -0.78441  -0.76006  -0.74075
 Alpha  occ. eigenvalues --   -0.73453  -0.72167  -0.70749  -0.70059  -0.68264
 Alpha  occ. eigenvalues --   -0.67343  -0.67093  -0.65812  -0.65609  -0.64779
 Alpha  occ. eigenvalues --   -0.64141  -0.63686  -0.63549  -0.63206  -0.62397
 Alpha  occ. eigenvalues --   -0.61355  -0.60640  -0.60378  -0.60046  -0.59663
 Alpha  occ. eigenvalues --   -0.59528  -0.59001  -0.57898  -0.55211  -0.54735
 Alpha  occ. eigenvalues --   -0.54448  -0.54261  -0.53740  -0.53119  -0.53057
 Alpha  occ. eigenvalues --   -0.52952  -0.52034  -0.51821  -0.51050  -0.50193
 Alpha  occ. eigenvalues --   -0.49468  -0.49381  -0.48822  -0.48290  -0.48146
 Alpha  occ. eigenvalues --   -0.47936  -0.45716  -0.44042  -0.42266  -0.40922
 Alpha  occ. eigenvalues --   -0.40745  -0.39875  -0.39831  -0.39308  -0.39113
 Alpha  occ. eigenvalues --   -0.38495  -0.38035  -0.37018  -0.32943  -0.32315
 Alpha  occ. eigenvalues --   -0.31660  -0.30773
 Alpha virt. eigenvalues --    0.02496   0.03537   0.03613   0.03822   0.04268
 Alpha virt. eigenvalues --    0.04584   0.04784   0.04942   0.05091   0.05413
 Alpha virt. eigenvalues --    0.05604   0.05651   0.06157   0.06403   0.06767

 Mulliken charges:
               1
     1  C    1.131066
     2  C    0.668356
     3  C   -0.107920
     4  C    0.752378
     5  H   -0.997307
     6  C    0.814627
     7  C    0.448434
     8  H   -0.878354
     9  C    0.095761
    10  C    0.546559
    11  H   -0.987975
    12  C    0.420478
    13  H   -0.665175
    14  H   -0.680577
    15  C    0.706946
    16  C    0.570705
    17  C    0.833614
    18  C    0.532566
    19  H   -0.957120
    20  C    0.630023
    21  C    0.245848
    22  H   -0.867614
    23  C    0.468274
    24  C    1.378809
    25  H   -0.882691
    26  C    0.657749
    27  H   -0.598649
    28  C    0.666070
    29  C    0.645936
    30  N   -0.730616
    31  N   -0.668554
    32  C    0.825145
    33  C    0.794482
    34  N   -0.361368
    35  N   -0.360541
    36  C    0.764592
    37  C    0.671853
    38  N   -0.377328
    39  N   -0.737925
    40  C    0.621302
    41  C    0.635068
    42  N   -0.497669
    43  N   -0.500857
    44  H   -0.572887
    45  H    0.017965
    46  H   -0.193364
    47  H    0.015039
    48  H   -0.021914
    49  H   -0.032784
    50  H   -0.071618
    51  H   -0.256569
    52  H   -0.267931
    53  H   -0.272121
    54  H   -0.255569
    55  H   -0.227410
    56  H   -0.233335
    57  H   -0.223032
    58  H   -0.235440
    59  H   -0.140306
    60  H   -0.328436
    61  H   -0.146826
    62  H   -0.322289
    63  H   -0.330287
    64  H   -0.112789
    65  H   -0.132289
    66  H   -0.324207
 Sum of Mulliken charges =   0.00000

 Dipole moment (field-independent basis, Debye):
    X=             -5.0675    Y=              0.9027    Z=              0.5785  Tot=              5.1797
 Quadrupole moment (field-independent basis, Debye-Ang):
   XX=           -172.6888   YY=           -205.1627   ZZ=           -197.8912
   XY=             -4.7004   XZ=             15.2525   YZ=             -1.3504

 Normal termination of Gaussian 16 at Thu Nov 11 17:50:41 2021.
