 Gaussian 16, Revision C.01,
 Gaussian 16:  ES64L-G16RevC.01  3-Jul-2019

 ----------------------------------------------------------------------
 #P PBE1PBE/Def2TZVP SP SCF=(YQC,MaxCycle=900) int=(Grid=Superfinegrid)
  EmpiricalDispersion=GD3
 ----------------------------------------------------------------------

 -------------------------
 _2_alde1_3_ami2_1_opt_gas
 -------------------------
 Symbolic Z-matrix:
 Charge =  0 Multiplicity = 1

                         Standard orientation:
 ---------------------------------------------------------------------
 Center     Atomic      Atomic             Coordinates (Angstroms)
 Number     Number       Type             X           Y           Z
 ---------------------------------------------------------------------
      1          6           0        4.565329    1.026182   -0.050054
      2          6           0        3.990631    2.362203    0.092482
      3          6           0        5.915128    0.883239   -0.359853
      4          6           0        6.476311   -0.383673   -0.500366
      5          1           0        6.537135    1.758635   -0.492314
      6          6           0        5.677098   -1.513775   -0.332793
      7          6           0        4.327046   -1.385635   -0.023428
      8          1           0        6.134195   -2.486577   -0.448608
      9          6           0        3.778344   -0.112080    0.115770
     10          6           0        3.504248   -2.581558    0.145613
     11          1           0        2.730995   -0.005164    0.347488
     12          6           0        7.898657   -0.537265   -0.824256
     13          1           0        4.025418   -3.527257   -0.057592
     14          1           0        4.685188    3.185498   -0.128441
     15          6           0       -1.832403    1.646987   -0.484180
     16          6           0       -0.978796    2.826444   -0.495509
     17          6           0       -1.263213    0.378045   -0.497126
     18          6           0       -2.068177   -0.755394   -0.458894
     19          1           0       -0.191291    0.272858   -0.529108
     20          6           0       -3.453680   -0.609708   -0.411149
     21          6           0       -4.031347    0.651322   -0.411463
     22          1           0       -4.098579   -1.476211   -0.387396
     23          6           0       -3.220392    1.775654   -0.441856
     24          6           0       -5.528187    0.794395   -0.321096
     25          1           0       -3.672112    2.757762   -0.428474
     26          6           0       -1.461676   -2.079199   -0.445883
     27          1           0       -2.154152   -2.931117   -0.333123
     28          6           0        1.111433    3.865156   -0.577773
     29          6           0        2.124162    3.765146    0.597315
     30          7           0        0.270784    2.722128   -0.612651
     31          1           0        1.681989    3.881407   -1.512720
     32          7           0        2.794121    2.507924    0.448533
     33          6           0        1.358203    3.685572    1.923583
     34          8           0        8.474905   -1.586222   -0.964090
     35          6           0        1.401831   -3.583849    0.674529
     36          6           0        0.386718   -3.506480   -0.500144
     37          7           0        2.302981   -2.483580    0.502910
     38          6           0        2.031606   -4.983791    0.682216
     39          7           0       -0.215480   -2.222684   -0.557049
     40          1           0       -0.347107   -4.325497   -0.388795
     41          6           0       -7.372279    0.484720    0.994575
     42          6           0       -7.493729   -0.535756   -0.170562
     43          7           0       -5.968919    0.858303    1.063873
     44          1           0       -7.719826    0.086325    1.945828
     45          7           0       -6.224033   -0.364224   -0.882214
     46          1           0       -1.490560    3.798997   -0.394396
     47          1           0       -5.452869    0.162754    1.596365
     48          1           0       -5.839439    1.741541   -0.803139
     49          1           0       -6.336171   -0.304106   -1.885412
     50          1           0        8.436314    0.426486   -0.937264
     51          1           0        0.551279    4.813072   -0.481878
     52          6           0        3.014029    5.015969    0.580113
     53          6           0        0.668726   -3.331968    1.997860
     54          1           0        0.941811   -3.649897   -1.433439
     55          1           0       -7.946273    1.387035    0.760526
     56          6           0       -7.564184   -1.972786    0.357401
     57          1           0        1.268367   -5.725855    0.901662
     58          1           0        2.801182   -5.044229    1.449308
     59          1           0        2.472903   -5.224036   -0.282902
     60          1           0        3.491886    5.148124   -0.388641
     61          1           0        3.781906    4.940180    1.347762
     62          1           0        2.409836    5.896025    0.784184
     63          1           0       -7.520591   -2.674949   -0.471701
     64          1           0       -8.489129   -2.132861    0.905830
     65          1           0       -6.722316   -2.170472    1.016552
     66          6           0       -8.707083   -0.238331   -1.051852
     67          1           0       -9.620881   -0.289862   -0.464451
     68          1           0       -8.774083   -0.964487   -1.859911
     69          1           0       -8.629391    0.758316   -1.483742
     70          1           0        2.058867    3.666346    2.754954
     71          1           0        0.769119    2.773188    1.942382
     72          1           0        0.699150    4.543069    2.036267
     73          1           0       -0.144570   -4.042631    2.125390
     74          1           0        0.268933   -2.321987    1.998747
     75          1           0        1.361312   -3.434424    2.829784
 ---------------------------------------------------------------------

 SCF Done:  E(RPBE1PBE) =  -1568.51656980     a.u. after    7 cycles
 SCF Done:  E(RPBE1PBE) =  -1568.51658226     A.U. after    9 cycles

 The electronic state is 1-A.
 Alpha  occ. eigenvalues --  -19.20051 -14.37514 -14.37130 -14.37012 -14.37006
 Alpha  occ. eigenvalues --  -14.36925 -14.36786 -10.30725 -10.28097 -10.26536
 Alpha  occ. eigenvalues --  -10.26436 -10.26404 -10.26229 -10.26149 -10.26103
 Alpha  occ. eigenvalues --  -10.25997 -10.24789 -10.24761 -10.24648 -10.24476
 Alpha  occ. eigenvalues --  -10.24301 -10.24243 -10.24198 -10.24140 -10.23413
 Alpha  occ. eigenvalues --  -10.23405 -10.23304 -10.23199 -10.23177 -10.22760
 Alpha  occ. eigenvalues --  -10.21967 -10.21586 -10.21367 -10.21177 -10.20705
 Alpha  occ. eigenvalues --  -10.20285 -10.20212  -1.07715  -0.99749  -0.97155
 Alpha  occ. eigenvalues --   -0.96955  -0.95050  -0.94658  -0.90292  -0.89142
 Alpha  occ. eigenvalues --   -0.88520  -0.83725  -0.82960  -0.81934  -0.80147
 Alpha  occ. eigenvalues --   -0.79178  -0.78408  -0.77783  -0.72272  -0.72054
 Alpha  occ. eigenvalues --   -0.71638  -0.71543  -0.71407  -0.70091  -0.68621
 Alpha  occ. eigenvalues --   -0.67899  -0.66706  -0.66051  -0.64540  -0.63591
 Alpha  occ. eigenvalues --   -0.60473  -0.59445  -0.58840  -0.57478  -0.57214
 Alpha  occ. eigenvalues --   -0.56346  -0.54434  -0.53566  -0.53004  -0.52313
 Alpha  occ. eigenvalues --   -0.51585  -0.51041  -0.50223  -0.49734  -0.49298
 Alpha  occ. eigenvalues --   -0.48939  -0.48407  -0.47701  -0.47017  -0.46585
 Alpha  occ. eigenvalues --   -0.46288  -0.46025  -0.45769  -0.45543  -0.45094
 Alpha  occ. eigenvalues --   -0.44836  -0.44236  -0.43905  -0.43511  -0.43169
 Alpha  occ. eigenvalues --   -0.43017  -0.42231  -0.41599  -0.41093  -0.40731
 Alpha  occ. eigenvalues --   -0.40469  -0.40340  -0.39969  -0.39835  -0.39396
 Alpha  occ. eigenvalues --   -0.38946  -0.38737  -0.38307  -0.38147  -0.37822
 Alpha  occ. eigenvalues --   -0.37417  -0.37277  -0.37102  -0.36731  -0.36518
 Alpha  occ. eigenvalues --   -0.35738  -0.35250  -0.34925  -0.34335  -0.34204
 Alpha  occ. eigenvalues --   -0.33325  -0.32808  -0.30852  -0.27456  -0.27198
 Alpha  occ. eigenvalues --   -0.27083  -0.26582  -0.26354  -0.25870  -0.25430
 Alpha  occ. eigenvalues --   -0.24830  -0.24658  -0.24559  -0.23976
 Alpha virt. eigenvalues --   -0.07110  -0.05224  -0.04512  -0.04447  -0.02144
 Alpha virt. eigenvalues --    0.02974   0.03090   0.04271   0.04498   0.05197
 Alpha virt. eigenvalues --    0.05355   0.05875   0.06091   0.06716   0.06845

 Mulliken charges:
               1
     1  C    0.344367
     2  C   -0.191835
     3  C   -0.292913
     4  C    0.204228
     5  H    0.114570
     6  C   -0.326180
     7  C    0.392851
     8  H    0.133466
     9  C   -0.343206
    10  C   -0.189322
    11  H    0.177262
    12  C    0.047658
    13  H    0.082938
    14  H    0.074801
    15  C    0.386325
    16  C   -0.188761
    17  C   -0.355082
    18  C    0.400762
    19  H    0.183706
    20  C   -0.319305
    21  C    0.267085
    22  H    0.128443
    23  C   -0.386080
    24  C   -0.101340
    25  H    0.101885
    26  C   -0.198460
    27  H    0.056609
    28  C   -0.108069
    29  C    0.180257
    30  N   -0.138874
    31  H    0.107691
    32  N   -0.155306
    33  C   -0.392022
    34  O   -0.283429
    35  C    0.181415
    36  C   -0.110166
    37  N   -0.157195
    38  C   -0.395144
    39  N   -0.138725
    40  H    0.073183
    41  C   -0.141309
    42  C    0.124591
    43  N   -0.250327
    44  H    0.129336
    45  N   -0.273911
    46  H    0.056624
    47  H    0.195512
    48  H    0.069370
    49  H    0.194825
    50  H    0.068897
    51  H    0.073187
    52  C   -0.394843
    53  C   -0.393007
    54  H    0.108698
    55  H    0.085262
    56  C   -0.356633
    57  H    0.130299
    58  H    0.136479
    59  H    0.127889
    60  H    0.126158
    61  H    0.135171
    62  H    0.131278
    63  H    0.112778
    64  H    0.114425
    65  H    0.111413
    66  C   -0.426749
    67  H    0.124125
    68  H    0.126616
    69  H    0.127087
    70  H    0.120128
    71  H    0.154260
    72  H    0.105723
    73  H    0.104696
    74  H    0.153179
    75  H    0.120682
 Sum of Mulliken charges =   0.00000

 Dipole moment (field-independent basis, Debye):
    X=             -4.9469    Y=              1.5787    Z=             -0.0055  Tot=              5.1927
 Quadrupole moment (field-independent basis, Debye-Ang):
   XX=           -224.7137   YY=           -199.6867   ZZ=           -223.1703
   XY=             21.5951   XZ=              7.8726   YZ=             -5.0469

 Normal termination of Gaussian 16 at Mon Oct 18 15:12:27 2021.
