 Gaussian 16, Revision C.01,
 Gaussian 16:  ES64L-G16RevC.01  3-Jul-2019

 ----------------------------------------------------------------------
 #P PBE1PBE/Def2TZVP SP SCF=(YQC,MaxCycle=900) int=(Grid=Superfinegrid)
  EmpiricalDispersion=GD3
 ----------------------------------------------------------------------

 -------------------------
 _2_alde1_3_ami4_2_opt_gas
 -------------------------
 Symbolic Z-matrix:
 Charge =  0 Multiplicity = 1

                         Standard orientation:
 ---------------------------------------------------------------------
 Center     Atomic      Atomic             Coordinates (Angstroms)
 Number     Number       Type             X           Y           Z
 ---------------------------------------------------------------------
      1          6           0        2.737052   -1.213206    0.230801
      2          6           0        2.688380   -2.146100   -0.885328
      3          6           0        2.667359   -1.657996    1.549936
      4          6           0        2.613009   -0.741882    2.594806
      5          1           0        2.647314   -2.720553    1.737878
      6          6           0        2.589585    0.626485    2.320140
      7          6           0        2.662428    1.083085    1.009648
      8          1           0        2.515582    1.317419    3.147790
      9          6           0        2.761724    0.153930   -0.025455
     10          6           0        2.542520    2.504060    0.708715
     11          1           0        2.826215    0.526353   -1.035943
     12          6           0        2.552105   -1.203622    3.989451
     13          1           0        2.181584    3.135254    1.534819
     14          1           0        2.839176   -1.700488   -1.879020
     15          6           0       -1.069207   -1.030182   -1.235541
     16          6           0       -0.699504   -2.432570   -1.368561
     17          6           0       -0.254783   -0.038197   -1.780404
     18          6           0       -0.513924    1.306230   -1.540517
     19          1           0        0.599058   -0.343558   -2.364535
     20          6           0       -1.634907    1.663022   -0.792161
     21          6           0       -2.484795    0.686744   -0.283917
     22          1           0       -1.821013    2.711163   -0.613791
     23          6           0       -2.182951   -0.660139   -0.491458
     24          6           0       -3.664965    1.072358    0.476941
     25          1           0       -2.834391   -1.404267   -0.059075
     26          6           0        0.441447    2.304105   -1.995032
     27          1           0        1.234917    1.927156   -2.657530
     28          6           0        0.650437   -4.169813   -2.145749
     29          6           0        2.177800   -4.154876   -1.902897
     30          7           0        0.198301   -2.816164   -2.166516
     31          1           0        0.154538   -4.768570   -1.365580
     32          7           0        2.424818   -3.371189   -0.732602
     33          1           0        2.667020   -3.735971   -2.794881
     34          8           0        2.487049   -0.488755    4.955954
     35          6           0        2.498240    4.330294   -0.740738
     36          6           0        1.519480    4.345645   -1.937880
     37          7           0        2.792175    2.967237   -0.436711
     38          1           0        2.052552    4.865853    0.112020
     39          7           0        0.409789    3.505396   -1.607969
     40          1           0        2.057122    3.993140   -2.831130
     41          6           0       -5.637043    0.625670    1.645124
     42          6           0       -6.891728    0.172514    0.861397
     43          7           0       -4.469245    0.216863    0.937687
     44          1           0       -5.628524    0.116987    2.615258
     45          7           0       -6.983032   -1.251948    0.640229
     46          1           0       -6.889938    0.663205   -0.116034
     47          1           0       -1.225668   -3.128242   -0.696665
     48          1           0       -3.807359    2.154118    0.624251
     49          1           0       -6.159365   -1.565658    0.137268
     50          1           0        2.572651   -2.306513    4.092782
     51          1           0        0.461207   -4.619248   -3.124444
     52          1           0        2.524176   -5.174969   -1.728120
     53          1           0        3.422587    4.829778   -1.043162
     54          1           0        1.160674    5.364745   -2.093965
     55          1           0       -5.680497    1.715559    1.809498
     56          1           0       -7.780423    0.496428    1.409795
     57          1           0       -7.001785   -1.743800    1.528146
 ---------------------------------------------------------------------

 SCF Done:  E(RPBE1PBE) =  -1332.82047766     a.u. after    7 cycles
 SCF Done:  E(RPBE1PBE) =  -1332.82048355     A.U. after    9 cycles

 The electronic state is 1-A.
 Alpha  occ. eigenvalues --  -19.20693 -14.38729 -14.38499 -14.38298 -14.38269
 Alpha  occ. eigenvalues --  -14.38028 -14.35523 -10.31282 -10.27602 -10.27387
 Alpha  occ. eigenvalues --  -10.27203 -10.27144 -10.26960 -10.25850 -10.25825
 Alpha  occ. eigenvalues --  -10.25522 -10.25472 -10.25370 -10.25326 -10.25227
 Alpha  occ. eigenvalues --  -10.25144 -10.25111 -10.25041 -10.24789 -10.24764
 Alpha  occ. eigenvalues --  -10.24714 -10.24698 -10.24424 -10.24317 -10.24295
 Alpha  occ. eigenvalues --  -10.24282  -1.08378  -0.98341  -0.98185  -0.96845
 Alpha  occ. eigenvalues --   -0.95698  -0.95320  -0.91248  -0.90826  -0.89943
 Alpha  occ. eigenvalues --   -0.83127  -0.82286  -0.81356  -0.81112  -0.77888
 Alpha  occ. eigenvalues --   -0.76489  -0.74962  -0.70426  -0.70344  -0.68754
 Alpha  occ. eigenvalues --   -0.67640  -0.67294  -0.65056  -0.63579  -0.62794
 Alpha  occ. eigenvalues --   -0.61307  -0.57723  -0.57292  -0.56640  -0.56337
 Alpha  occ. eigenvalues --   -0.54932  -0.54487  -0.53189  -0.52645  -0.51666
 Alpha  occ. eigenvalues --   -0.51049  -0.51001  -0.50552  -0.49610  -0.49079
 Alpha  occ. eigenvalues --   -0.47714  -0.47676  -0.47507  -0.47234  -0.46908
 Alpha  occ. eigenvalues --   -0.46076  -0.45561  -0.45554  -0.44609  -0.44437
 Alpha  occ. eigenvalues --   -0.43850  -0.42620  -0.41937  -0.41525  -0.41199
 Alpha  occ. eigenvalues --   -0.40706  -0.40552  -0.40127  -0.39582  -0.38568
 Alpha  occ. eigenvalues --   -0.37878  -0.37560  -0.37067  -0.36322  -0.35925
 Alpha  occ. eigenvalues --   -0.35783  -0.35504  -0.33036  -0.31307  -0.28283
 Alpha  occ. eigenvalues --   -0.28059  -0.27975  -0.27862  -0.27650  -0.27561
 Alpha  occ. eigenvalues --   -0.27327  -0.26695  -0.26492  -0.26163  -0.24559
 Alpha virt. eigenvalues --   -0.07709  -0.07012  -0.06387  -0.05984  -0.03494
 Alpha virt. eigenvalues --   -0.02086   0.04418   0.04460   0.04616   0.05060
 Alpha virt. eigenvalues --    0.05200   0.05683   0.06060   0.06412   0.06621

 Mulliken charges:
               1
     1  C    0.366929
     2  C   -0.156238
     3  C   -0.337370
     4  C    0.269138
     5  H    0.130691
     6  C   -0.338819
     7  C    0.318635
     8  H    0.139157
     9  C   -0.277716
    10  C   -0.130703
    11  H    0.127611
    12  C    0.057269
    13  H    0.074033
    14  H    0.081342
    15  C    0.325633
    16  C   -0.138459
    17  C   -0.291620
    18  C    0.372456
    19  H    0.125220
    20  C   -0.370067
    21  C    0.370245
    22  H    0.122642
    23  C   -0.350235
    24  C   -0.163449
    25  H    0.125388
    26  C   -0.162361
    27  H    0.078913
    28  C   -0.087473
    29  C   -0.066220
    30  N   -0.190190
    31  H    0.075680
    32  N   -0.184594
    33  H    0.082309
    34  O   -0.279119
    35  C   -0.085451
    36  C   -0.067616
    37  N   -0.187938
    38  H    0.076156
    39  N   -0.183727
    40  H    0.081503
    41  C   -0.121428
    42  C   -0.083267
    43  N   -0.171234
    44  H    0.113964
    45  N   -0.495756
    46  H    0.105987
    47  H    0.070509
    48  H    0.069179
    49  H    0.223643
    50  H    0.078095
    51  H    0.118265
    52  H    0.118525
    53  H    0.118289
    54  H    0.118001
    55  H    0.068387
    56  H    0.109575
    57  H    0.207685
 Sum of Mulliken charges =   0.00000

 Dipole moment (field-independent basis, Debye):
    X=              0.7188    Y=              0.4911    Z=             -2.0055  Tot=              2.1863
 Quadrupole moment (field-independent basis, Debye-Ang):
   XX=           -194.6075   YY=           -163.0459   ZZ=           -195.4187
   XY=             -3.0731   XZ=            -18.3036   YZ=              1.4402

 Normal termination of Gaussian 16 at Mon Oct 18 00:36:48 2021.
