 Gaussian 16, Revision C.01,
 Gaussian 16:  ES64L-G16RevC.01  3-Jul-2019

 ----------------------------------------------------------------------
 #P PBE1PBE/Def2TZVP SP SCF=(YQC,MaxCycle=900) int=(Grid=Superfinegrid)
  EmpiricalDispersion=GD3 SCRF=(PCM,Solvent=Chloroform)
 ----------------------------------------------------------------------

 -------------------------
 _2_alde1_3_ami1_2_opt_cfm
 -------------------------
 Symbolic Z-matrix:
 Charge =  0 Multiplicity = 1

                         Standard orientation:
 ---------------------------------------------------------------------
 Center     Atomic      Atomic             Coordinates (Angstroms)
 Number     Number       Type             X           Y           Z
 ---------------------------------------------------------------------
      1          6           0       -1.064629    1.426067   -1.894340
      2          6           0       -1.152811    2.840950   -1.565912
      3          6           0        0.139457    0.905012   -2.351602
      4          6           0        0.296484   -0.470816   -2.523429
      5          1           0        0.981298    1.550595   -2.557010
      6          6           0       -0.753453   -1.328527   -2.221937
      7          6           0       -1.960803   -0.822049   -1.742619
      8          1           0       -0.641482   -2.398368   -2.308329
      9          6           0       -2.113687    0.553228   -1.601937
     10          6           0       -2.964972   -1.728690   -1.204980
     11          1           0       -3.031882    0.971615   -1.218315
     12          6           0        1.596252   -1.008377   -2.934803
     13          1           0       -3.834084   -1.253047   -0.727133
     14          1           0       -0.225424    3.414162   -1.716192
     15          6           0       -0.509792    1.120698    1.415673
     16          6           0       -1.386649    2.279637    1.459952
     17          6           0       -1.071484   -0.150167    1.445456
     18          6           0       -0.286800   -1.284149    1.238139
     19          1           0       -2.131603   -0.284237    1.596334
     20          6           0        1.079692   -1.133726    1.034079
     21          6           0        1.666120    0.132831    1.038038
     22          1           0        1.713439   -1.991423    0.866128
     23          6           0        0.864263    1.254062    1.217644
     24          6           0        3.106112    0.284441    0.873639
     25          1           0        1.286437    2.247224    1.193378
     26          6           0       -0.911601   -2.594968    1.129741
     27          1           0       -0.243971   -3.419930    0.836804
     28          6           0       -1.947681    4.492313    1.053693
     29          6           0       -2.095472    4.671853   -0.495045
     30          7           0       -0.979212    3.456720    1.257722
     31          1           0       -2.934924    4.184525    1.437705
     32          6           0       -1.503521    5.775306    1.776555
     33          7           0       -2.181362    3.354670   -1.047189
     34          1           0       -1.187532    5.187088   -0.850690
     35          6           0       -3.332117    5.493965   -0.897296
     36          1           0       -2.183017    6.585394    1.492585
     37          6           0       -1.621638    5.552372    3.284524
     38          6           0       -3.237932    5.826746   -2.386572
     39          6           0       -4.636205    4.753828   -0.613069
     40          8           0        2.596156   -0.353858   -3.097782
     41          6           0       -3.589038   -3.795368   -0.340209
     42          6           0       -2.767400   -4.006728    0.975990
     43          7           0       -2.771882   -2.974580   -1.176719
     44          1           0       -4.522837   -3.277175   -0.063739
     45          6           0       -3.931477   -5.115514   -1.051230
     46          7           0       -2.151957   -2.754061    1.290167
     47          1           0       -2.007614   -4.779804    0.768991
     48          6           0       -3.646650   -4.468885    2.153441
     49          1           0       -4.320477   -5.816977   -0.305502
     50          6           0       -5.023367   -4.853930   -2.088287
     51          1           0       -4.293272   -5.278692    1.799514
     52          6           0       -2.749432   -5.014605    3.263939
     53          6           0        5.847009   -1.164662   -0.687808
     54          6           0        5.278880   -0.542911    0.630685
     55          7           0        4.900926   -1.980887   -1.426745
     56          1           0        6.665562   -1.840893   -0.404075
     57          6           0        6.455988   -0.116300   -1.640701
     58          7           0        3.861113   -0.705025    0.681207
     59          1           0        5.557145    0.523647    0.681597
     60          6           0        5.885242   -1.225308    1.881557
     61          1           0        6.667122   -0.663197   -2.566006
     62          6           0        5.510368    1.033004   -1.985681
     63          1           0        6.973913   -1.208671    1.756230
     64          6           0        5.534837   -0.434483    3.140768
     65          1           0       -2.454701    2.049818    1.596524
     66          1           0        4.385186   -2.567257   -0.779693
     67          1           0        3.487515    1.314439    0.960527
     68          1           0        1.607884   -2.106359   -3.071760
     69          6           0       -0.073242    6.172075    1.421283
     70          1           0       -3.320667    6.431621   -0.332309
     71          6           0       -2.712329   -5.735530   -1.728451
     72          6           0       -4.516963   -3.339565    2.697921
     73          6           0        7.774911    0.426181   -1.092812
     74          6           0        5.421115   -2.672111    2.022460
     75          1           0        4.223770   -1.390457   -1.898667
     76          1           0       -4.791416    4.619319    0.454144
     77          1           0       -4.613811    3.777529   -1.088632
     78          1           0       -5.477003    5.319991   -1.007331
     79          1           0       -2.642216    5.293255    3.559249
     80          1           0       -1.339232    6.452778    3.825118
     81          1           0       -0.964712    4.741439    3.591647
     82          1           0        0.248499    7.000859    2.047906
     83          1           0        0.005862    6.484459    0.383363
     84          1           0        0.589991    5.327580    1.583853
     85          1           0       -3.234427    4.910349   -2.972900
     86          1           0       -2.326008    6.379394   -2.603471
     87          1           0       -4.086940    6.432507   -2.694539
     88          1           0        5.335731    1.676590   -1.125962
     89          1           0        4.553551    0.662664   -2.342062
     90          1           0        5.949911    1.641407   -2.773327
     91          1           0        4.456640   -0.412990    3.289148
     92          1           0        5.893842    0.590575    3.067186
     93          1           0        5.992338   -0.894528    4.013751
     94          1           0        8.219486    1.118510   -1.804296
     95          1           0        8.480318   -0.382771   -0.915899
     96          1           0        7.621163    0.956486   -0.155193
     97          1           0        5.687770   -3.254005    1.144328
     98          1           0        4.341911   -2.703870    2.147906
     99          1           0        5.887582   -3.130109    2.892230
    100          1           0       -5.920175   -4.457549   -1.616267
    101          1           0       -5.285908   -5.774688   -2.603664
    102          1           0       -4.671875   -4.133397   -2.823859
    103          1           0       -2.075120   -4.236235    3.615050
    104          1           0       -2.154709   -5.852503    2.905789
    105          1           0       -3.350764   -5.355603    4.103455
    106          1           0       -5.209750   -2.975343    1.944244
    107          1           0       -3.888926   -2.512971    3.017813
    108          1           0       -5.095694   -3.694499    3.547770
    109          1           0       -2.297927   -5.036871   -2.449373
    110          1           0       -2.999411   -6.648687   -2.244778
    111          1           0       -1.940493   -5.982890   -1.004853
 ---------------------------------------------------------------------

 SCF Done:  E(RPBE1PBE) =  -2039.87830981     a.u. after    6 cycles
 SCF Done:  E(RPBE1PBE) =  -2039.87834101     A.U. after    9 cycles

 The electronic state is 1-A.
 Alpha  occ. eigenvalues --  -19.21559 -14.37803 -14.37727 -14.37663 -14.37519
 Alpha  occ. eigenvalues --  -14.37495 -14.34392 -10.31957 -10.26911 -10.26872
 Alpha  occ. eigenvalues --  -10.26784 -10.26611 -10.26550 -10.25389 -10.25330
 Alpha  occ. eigenvalues --  -10.25330 -10.25258 -10.25105 -10.25094 -10.25047
 Alpha  occ. eigenvalues --  -10.25010 -10.24962 -10.24929 -10.24438 -10.24408
 Alpha  occ. eigenvalues --  -10.24379 -10.24231 -10.23974 -10.23954 -10.23921
 Alpha  occ. eigenvalues --  -10.23864 -10.22669 -10.22608 -10.22585 -10.22520
 Alpha  occ. eigenvalues --  -10.22339 -10.21642 -10.20392 -10.20385 -10.20340
 Alpha  occ. eigenvalues --  -10.20278 -10.20120 -10.20044 -10.20043 -10.20021
 Alpha  occ. eigenvalues --  -10.19996 -10.19979 -10.19935 -10.19586  -1.09319
 Alpha  occ. eigenvalues --   -0.98475  -0.98325  -0.96679  -0.95195  -0.94797
 Alpha  occ. eigenvalues --   -0.91332  -0.90545  -0.89591  -0.85204  -0.84387
 Alpha  occ. eigenvalues --   -0.82930  -0.82615  -0.82101  -0.81080  -0.80765
 Alpha  occ. eigenvalues --   -0.80594  -0.79790  -0.79745  -0.74799  -0.74189
 Alpha  occ. eigenvalues --   -0.72695  -0.70504  -0.70485  -0.70208  -0.70204
 Alpha  occ. eigenvalues --   -0.70154  -0.69955  -0.69653  -0.69410  -0.68763
 Alpha  occ. eigenvalues --   -0.67349  -0.67204  -0.65508  -0.64156  -0.63805
 Alpha  occ. eigenvalues --   -0.62564  -0.60175  -0.59559  -0.58534  -0.58040
 Alpha  occ. eigenvalues --   -0.57602  -0.56848  -0.56719  -0.55768  -0.55296
 Alpha  occ. eigenvalues --   -0.55238  -0.54287  -0.53802  -0.52393  -0.52141
 Alpha  occ. eigenvalues --   -0.51140  -0.50901  -0.50429  -0.50272  -0.49904
 Alpha  occ. eigenvalues --   -0.49282  -0.49054  -0.48913  -0.47958  -0.47698
 Alpha  occ. eigenvalues --   -0.47505  -0.47109  -0.46882  -0.46504  -0.45852
 Alpha  occ. eigenvalues --   -0.45371  -0.45216  -0.45064  -0.44983  -0.44665
 Alpha  occ. eigenvalues --   -0.44132  -0.43798  -0.43655  -0.43362  -0.43314
 Alpha  occ. eigenvalues --   -0.43024  -0.42687  -0.42486  -0.42268  -0.42207
 Alpha  occ. eigenvalues --   -0.41301  -0.40803  -0.40750  -0.40218  -0.40142
 Alpha  occ. eigenvalues --   -0.39791  -0.39738  -0.39480  -0.39383  -0.39024
 Alpha  occ. eigenvalues --   -0.38904  -0.38839  -0.38714  -0.38635  -0.38516
 Alpha  occ. eigenvalues --   -0.38013  -0.37761  -0.37591  -0.37011  -0.36813
 Alpha  occ. eigenvalues --   -0.36196  -0.35561  -0.35129  -0.35120  -0.34968
 Alpha  occ. eigenvalues --   -0.34798  -0.34776  -0.34473  -0.34379  -0.34004
 Alpha  occ. eigenvalues --   -0.33993  -0.33852  -0.33465  -0.33353  -0.33265
 Alpha  occ. eigenvalues --   -0.33091  -0.32543  -0.32418  -0.31877  -0.31706
 Alpha  occ. eigenvalues --   -0.29588  -0.28853  -0.27901  -0.27296  -0.27150
 Alpha  occ. eigenvalues --   -0.26971  -0.26845  -0.26572  -0.26376  -0.25318
 Alpha  occ. eigenvalues --   -0.25123  -0.24047
 Alpha virt. eigenvalues --   -0.08452  -0.07295  -0.05866  -0.05333  -0.03592
 Alpha virt. eigenvalues --   -0.01753   0.03991   0.04116   0.04145   0.04466
 Alpha virt. eigenvalues --    0.04762   0.04940   0.05261   0.05477   0.05905

 Mulliken charges:
               1
     1  C    0.330279
     2  C   -0.108886
     3  C   -0.349934
     4  C    0.284614
     5  H    0.141747
     6  C   -0.290138
     7  C    0.322360
     8  H    0.150891
     9  C   -0.329272
    10  C   -0.125862
    11  H    0.145591
    12  C    0.056676
    13  H    0.087375
    14  H    0.086040
    15  C    0.328739
    16  C   -0.119039
    17  C   -0.305651
    18  C    0.348535
    19  H    0.140629
    20  C   -0.403477
    21  C    0.417827
    22  H    0.136898
    23  C   -0.373756
    24  C   -0.231534
    25  H    0.139213
    26  C   -0.135084
    27  H    0.083221
    28  C    0.107752
    29  C    0.107888
    30  N   -0.271967
    31  H    0.074191
    32  C   -0.004000
    33  N   -0.270722
    34  H    0.076566
    35  C   -0.012707
    36  H    0.077015
    37  C   -0.397652
    38  C   -0.396226
    39  C   -0.411148
    40  O   -0.337952
    41  C    0.118669
    42  C    0.099956
    43  N   -0.263300
    44  H    0.063373
    45  C   -0.013395
    46  N   -0.257374
    47  H    0.059606
    48  C   -0.013964
    49  H    0.073848
    50  C   -0.395514
    51  H    0.074275
    52  C   -0.394085
    53  C    0.050546
    54  C    0.047926
    55  N   -0.515119
    56  H    0.083390
    57  C   -0.055962
    58  N   -0.227224
    59  H    0.068422
    60  C   -0.003540
    61  H    0.078430
    62  C   -0.393526
    63  H    0.088969
    64  C   -0.402834
    65  H    0.081744
    66  H    0.222164
    67  H    0.083449
    68  H    0.107009
    69  C   -0.414439
    70  H    0.077701
    71  C   -0.403285
    72  C   -0.403271
    73  C   -0.381748
    74  C   -0.421126
    75  H    0.207295
    76  H    0.120693
    77  H    0.131854
    78  H    0.123681
    79  H    0.119726
    80  H    0.127355
    81  H    0.126069
    82  H    0.122708
    83  H    0.120868
    84  H    0.133382
    85  H    0.125323
    86  H    0.120843
    87  H    0.127743
    88  H    0.103407
    89  H    0.150566
    90  H    0.125256
    91  H    0.127240
    92  H    0.119876
    93  H    0.128087
    94  H    0.127335
    95  H    0.125085
    96  H    0.115307
    97  H    0.130718
    98  H    0.130863
    99  H    0.125753
   100  H    0.122016
   101  H    0.127473
   102  H    0.124549
   103  H    0.125364
   104  H    0.122005
   105  H    0.127600
   106  H    0.117029
   107  H    0.131534
   108  H    0.124203
   109  H    0.130377
   110  H    0.124299
   111  H    0.117713
 Sum of Mulliken charges =   0.00000

 Dipole moment (field-independent basis, Debye):
    X=             -4.2814    Y=              0.9543    Z=              2.1224  Tot=              4.8729
 Quadrupole moment (field-independent basis, Debye-Ang):
   XX=           -305.8989   YY=           -283.8332   ZZ=           -314.5286
   XY=              9.6194   XZ=              9.9783   YZ=             -4.6191

 Normal termination of Gaussian 16 at Sun Oct 17 22:47:08 2021.
