 Gaussian 16, Revision C.01,
 Gaussian 16:  ES64L-G16RevC.01  3-Jul-2019

 ----------------------------------------------------------------------
 #P PBE1PBE/Def2TZVP SP SCF=(YQC,MaxCycle=900) int=(Grid=Superfinegrid)
  EmpiricalDispersion=GD3 SCRF=(PCM,Solvent=Chloroform)
 ----------------------------------------------------------------------

 -------------------------
 _2_alde1_4_ami4_1_opt_cfm
 -------------------------
 Symbolic Z-matrix:
 Charge =  0 Multiplicity = 1

                         Standard orientation:
 ---------------------------------------------------------------------
 Center     Atomic      Atomic             Coordinates (Angstroms)
 Number     Number       Type             X           Y           Z
 ---------------------------------------------------------------------
      1          6           0       -1.925425   -0.830059    0.491052
      2          6           0       -1.078629   -1.977950    0.793569
      3          6           0       -3.223104   -1.022914    0.010897
      4          6           0       -4.037959    0.059680   -0.270754
      5          1           0       -3.588960   -2.027961   -0.122761
      6          6           0       -3.553429    1.347885   -0.095273
      7          6           0       -2.255682    1.560032    0.365402
      8          1           0       -4.199109    2.184269   -0.318853
      9          6           0       -1.448029    0.463683    0.667373
     10          6           0       -1.742587    2.918240    0.483918
     11          1           0       -0.445637    0.646195    1.024748
     12          6           0       -5.446086   -0.155002   -0.786873
     13          1           0       -2.463295    3.726143    0.273586
     14          1           0       -0.144189   -1.757285    1.331691
     15          6           0        1.843630   -1.191982   -1.189749
     16          6           0        0.993055   -2.370133   -1.281904
     17          6           0        1.283351    0.059253   -1.419477
     18          6           0        2.017588    1.214825   -1.172638
     19          1           0        0.249687    0.135125   -1.729142
     20          6           0        3.346169    1.110973   -0.765222
     21          6           0        3.929173   -0.135659   -0.584684
     22          1           0        3.910533    2.012246   -0.588836
     23          6           0        3.172092   -1.283232   -0.777683
     24          6           0        5.365195   -0.245069   -0.157889
     25          1           0        3.602155   -2.257597   -0.610029
     26          6           0        1.326565    2.491454   -1.229219
     27          1           0        0.362438    2.476123   -1.762732
     28          6           0        0.310784   -4.479024   -0.589118
     29          6           0       -0.536139   -4.245849    0.687542
     30          7           0        1.273388   -3.430822   -0.656391
     31          7           0       -1.415319   -3.148346    0.456234
     32          6           0       -6.455716   -1.020464    1.085168
     33          6           0       -6.670195    0.525099    1.034457
     34          7           0       -5.989420   -1.396423   -0.243759
     35          7           0       -6.312376    0.928509   -0.320821
     36          6           0        0.011813    4.452677    0.771299
     37          6           0        0.853998    4.630904   -0.517154
     38          7           0       -0.536679    3.137099    0.777609
     39          7           0        1.743774    3.517755   -0.624872
     40          6           0        6.915102   -1.139863    1.288219
     41          6           0        7.040724    0.418009    1.272391
     42          7           0        5.645982   -1.439591    0.641015
     43          7           0        5.835031    0.903946    0.616964
     44          1           0        0.070033   -2.254090   -1.870648
     45          1           0        4.911048   -1.549837    1.335605
     46          1           0        6.009710   -0.306680   -1.050342
     47          1           0        5.128453    1.146213    1.307387
     48          1           0       -7.142816    0.974446   -0.904031
     49          1           0       -6.766793   -1.711086   -0.816354
     50          1           0       -5.420142   -0.186982   -1.881798
     51          1           0        7.904267    0.718945    0.673467
     52          1           0        7.145741    0.841467    2.270723
     53          1           0        6.952818   -1.554509    2.295130
     54          1           0        7.718081   -1.587472    0.696682
     55          1           0       -5.991339    1.020952    1.732293
     56          1           0       -7.692410    0.816343    1.274002
     57          1           0       -5.674048   -1.267485    1.807128
     58          1           0       -7.362804   -1.561757    1.351788
     59          1           0        0.154090   -4.077299    1.527884
     60          1           0       -1.145854   -5.132832    0.872642
     61          1           0       -0.368559   -4.503679   -1.454194
     62          1           0        0.839305   -5.429580   -0.495172
     63          1           0        1.437011    5.550797   -0.441318
     64          1           0        0.160343    4.697475   -1.372023
     65          1           0       -0.751733    5.247253    0.803198
     66          1           0        0.673761    4.534160    1.636535
 ---------------------------------------------------------------------

 SCF Done:  E(RPBE1PBE) =  -1446.84042243     a.u. after    6 cycles
 SCF Done:  E(RPBE1PBE) =  -1446.84044420     A.U. after    9 cycles

 The electronic state is 1-A.
 Alpha  occ. eigenvalues --  -14.37680 -14.37634 -14.37571 -14.37269 -14.37262
 Alpha  occ. eigenvalues --  -14.37148 -14.36934 -14.36923 -10.28050 -10.27697
 Alpha  occ. eigenvalues --  -10.26744 -10.26569 -10.26560 -10.26170 -10.24980
 Alpha  occ. eigenvalues --  -10.24877 -10.24855 -10.24851 -10.24227 -10.24043
 Alpha  occ. eigenvalues --  -10.23989 -10.23978 -10.23900 -10.23880 -10.23875
 Alpha  occ. eigenvalues --  -10.23855 -10.23836 -10.23582 -10.23547 -10.23221
 Alpha  occ. eigenvalues --  -10.23165 -10.23083 -10.23071 -10.22655  -0.99509
 Alpha  occ. eigenvalues --   -0.99140  -0.97600  -0.97378  -0.94932  -0.94592
 Alpha  occ. eigenvalues --   -0.89897  -0.89208  -0.87831  -0.87572  -0.82068
 Alpha  occ. eigenvalues --   -0.81507  -0.80498  -0.79844  -0.77264  -0.75248
 Alpha  occ. eigenvalues --   -0.74908  -0.74379  -0.69603  -0.69363  -0.66990
 Alpha  occ. eigenvalues --   -0.66482  -0.66132  -0.63622  -0.63076  -0.61850
 Alpha  occ. eigenvalues --   -0.61667  -0.60953  -0.59825  -0.57480  -0.55886
 Alpha  occ. eigenvalues --   -0.55584  -0.55275  -0.54287  -0.53367  -0.52315
 Alpha  occ. eigenvalues --   -0.51379  -0.51077  -0.50101  -0.50030  -0.49131
 Alpha  occ. eigenvalues --   -0.48632  -0.48064  -0.47944  -0.47305  -0.47194
 Alpha  occ. eigenvalues --   -0.46649  -0.46300  -0.45597  -0.45523  -0.45242
 Alpha  occ. eigenvalues --   -0.44781  -0.44302  -0.43944  -0.41670  -0.41225
 Alpha  occ. eigenvalues --   -0.40860  -0.40779  -0.40610  -0.40256  -0.39917
 Alpha  occ. eigenvalues --   -0.39438  -0.39272  -0.38714  -0.38106  -0.37014
 Alpha  occ. eigenvalues --   -0.36696  -0.36584  -0.35669  -0.35615  -0.35331
 Alpha  occ. eigenvalues --   -0.35085  -0.34941  -0.34426  -0.32623  -0.31245
 Alpha  occ. eigenvalues --   -0.27527  -0.27323  -0.27187  -0.26792  -0.26736
 Alpha  occ. eigenvalues --   -0.26382  -0.26346  -0.26156  -0.25479  -0.24844
 Alpha  occ. eigenvalues --   -0.24362  -0.24283
 Alpha virt. eigenvalues --   -0.06068  -0.05646  -0.04330  -0.03175   0.00788
 Alpha virt. eigenvalues --    0.01219   0.04114   0.04320   0.05267   0.05528
 Alpha virt. eigenvalues --    0.05984   0.06627   0.07157   0.07327   0.07491

 Mulliken charges:
               1
     1  C    0.417151
     2  C   -0.171025
     3  C   -0.388929
     4  C    0.132631
     5  H    0.117828
     6  C   -0.354960
     7  C    0.383400
     8  H    0.122912
     9  C   -0.395314
    10  C   -0.177851
    11  H    0.136093
    12  C    0.171265
    13  H    0.083978
    14  H    0.100658
    15  C    0.342950
    16  C   -0.171694
    17  C   -0.317042
    18  C    0.331320
    19  H    0.144651
    20  C   -0.392138
    21  C    0.245299
    22  H    0.131594
    23  C   -0.385910
    24  C   -0.032004
    25  H    0.131230
    26  C   -0.124293
    27  H    0.083710
    28  C   -0.081632
    29  C   -0.089930
    30  N   -0.211321
    31  N   -0.199089
    32  C   -0.150619
    33  C   -0.151333
    34  N   -0.352875
    35  N   -0.356828
    36  C   -0.117701
    37  C   -0.075692
    38  N   -0.184021
    39  N   -0.197537
    40  C   -0.169151
    41  C   -0.169574
    42  N   -0.299558
    43  N   -0.299839
    44  H    0.104921
    45  H    0.211314
    46  H    0.097831
    47  H    0.212583
    48  H    0.204657
    49  H    0.204413
    50  H    0.123683
    51  H    0.105002
    52  H    0.124965
    53  H    0.124843
    54  H    0.104744
    55  H    0.100851
    56  H    0.130053
    57  H    0.102720
    58  H    0.129793
    59  H    0.087987
    60  H    0.127491
    61  H    0.089930
    62  H    0.126074
    63  H    0.122314
    64  H    0.093937
    65  H    0.095716
    66  H    0.115369
 Sum of Mulliken charges =   0.00000

 Dipole moment (field-independent basis, Debye):
    X=             -5.8849    Y=              0.9869    Z=              0.6737  Tot=              6.0050
 Quadrupole moment (field-independent basis, Debye-Ang):
   XX=           -163.6840   YY=           -198.0645   ZZ=           -193.3045
   XY=             -4.9647   XZ=             17.9421   YZ=             -1.5378

 1\1\GINC-CX3-6-2\SP\RPBE1PBE\def2TZVP\C26H32N8\ATARZIA\18-Oct-2021\0\\
 #P PBE1PBE/Def2TZVP SP SCF=(YQC,MaxCycle=900) int=(Grid=Superfinegrid)
  EmpiricalDispersion=GD3 SCRF=(PCM,Solvent=Chloroform)\\_2_alde1_4_ami
 4_1_opt_cfm\\0,1\C,0,-2.267,-2.0681,-1.4417\C,0,-1.6739,-1.6107,-0.190
 6\C,0,-2.2957,-3.431,-1.7473\C,0,-2.8643,-3.8762,-2.9279\H,0,-1.883,-4
 .1352,-1.0433\C,0,-3.3906,-2.9584,-3.8255\C,0,-3.3547,-1.5938,-3.5463\
 H,0,-3.8313,-3.3185,-4.7434\C,0,-2.7992,-1.1547,-2.3446\C,0,-3.855,-0.
 6407,-4.5278\H,0,-2.781,-0.094,-2.1436\C,0,-2.897,-5.3557,-3.2524\H,0,

 Normal termination of Gaussian 16 at Mon Oct 18 14:31:15 2021.
