 Gaussian 16, Revision C.01,
 Gaussian 16:  ES64L-G16RevC.01  3-Jul-2019

 ----------------------------------------------------------------------
 #P PBE1PBE/Def2TZVP SP SCF=(YQC,MaxCycle=900) int=(Grid=Superfinegrid)
  EmpiricalDispersion=GD3
 ----------------------------------------------------------------------

 -------------------------
 _2_alde1_3_ami3_2_opt_gas
 -------------------------
 Symbolic Z-matrix:
 Charge =  0 Multiplicity = 1

                         Standard orientation:
 ---------------------------------------------------------------------
 Center     Atomic      Atomic             Coordinates (Angstroms)
 Number     Number       Type             X           Y           Z
 ---------------------------------------------------------------------
      1          6           0       -2.733332    1.064861    1.458540
      2          6           0       -3.098842    2.080956    0.483710
      3          6           0       -2.252880    1.408999    2.720559
      4          6           0       -1.801249    0.421646    3.589953
      5          1           0       -2.228693    2.451637    2.998621
      6          6           0       -1.791499   -0.913578    3.182433
      7          6           0       -2.275932   -1.270832    1.929911
      8          1           0       -1.402544   -1.657908    3.862516
      9          6           0       -2.769927   -0.275789    1.087671
     10          6           0       -2.177503   -2.645209    1.454472
     11          1           0       -3.148138   -0.572253    0.121799
     12          6           0       -1.302212    0.777426    4.925735
     13          1           0       -1.471388   -3.285483    2.005364
     14          1           0       -3.534902    1.699448   -0.451233
     15          6           0        0.370106    1.276524   -1.259817
     16          6           0       -0.071791    2.651466   -1.072127
     17          6           0       -0.555953    0.287385   -1.587522
     18          6           0       -0.185904   -1.052238   -1.618581
     19          1           0       -1.574297    0.586955   -1.779390
     20          6           0        1.143418   -1.399413   -1.381653
     21          6           0        2.089750   -0.419158   -1.103703
     22          1           0        1.414743   -2.443672   -1.408756
     23          6           0        1.690553    0.915621   -1.019684
     24          6           0        3.480151   -0.789436   -0.874747
     25          1           0        2.434595    1.656126   -0.768385
     26          6           0       -1.214617   -2.063749   -1.796689
     27          1           0       -2.210563   -1.676637   -2.062048
     28          6           0       -1.651914    4.365199   -1.118396
     29          6           0       -3.041116    4.191534   -0.452630
     30          7           0       -1.192560    3.061216   -1.479866
     31          1           0       -0.973163    4.846844   -0.391440
     32          6           0       -1.801394    5.265120   -2.345493
     33          7           0       -2.860948    3.308331    0.657517
     34          1           0       -3.711820    3.751830   -1.211848
     35          6           0       -3.566704    5.553626   -0.012677
     36          1           0       -2.472468    4.782693   -3.058048
     37          6           0       -2.351724    6.626928   -1.933189
     38          1           0       -2.879699    5.975837    0.722426
     39          6           0       -3.692346    6.480217   -1.218101
     40          1           0       -2.469514    7.256617   -2.817275
     41          1           0       -1.638100    7.116223   -1.266118
     42          1           0       -4.048475    7.460054   -0.894134
     43          1           0       -4.428915    6.069331   -1.912640
     44          8           0       -0.868566    0.000395    5.737152
     45          6           0       -2.550878   -4.354241   -0.084364
     46          6           0       -2.147025   -4.165407   -1.568849
     47          7           0       -2.814553   -3.054451    0.446676
     48          1           0       -1.715152   -4.845983    0.445186
     49          6           0       -3.791342   -5.245465   -0.017593
     50          7           0       -1.013897   -3.292148   -1.586728
     51          1           0       -3.012109   -3.713192   -2.086226
     52          6           0       -1.821392   -5.523767   -2.180877
     53          1           0       -4.610394   -4.750942   -0.542506
     54          6           0       -3.496153   -6.602375   -0.648918
     55          1           0       -0.976460   -5.958041   -1.644235
     56          6           0       -3.036190   -6.442491   -2.095663
     57          1           0       -2.713833   -7.103735   -0.074385
     58          1           0       -4.391509   -7.225980   -0.610497
     59          1           0       -2.789506   -7.419406   -2.515788
     60          1           0       -3.850221   -6.018904   -2.688597
     61          6           0        6.076854   -0.001997    1.102274
     62          6           0        5.712234   -0.324508   -0.359153
     63          7           0        5.290890   -0.864025    1.973834
     64          1           0        5.870828    1.071703    1.264706
     65          6           0        7.560564   -0.274151    1.346818
     66          7           0        4.356318    0.069739   -0.583597
     67          1           0        5.856961   -1.408366   -0.514786
     68          6           0        6.607789    0.469083   -1.315736
     69          1           0        7.736382   -1.343845    1.220425
     70          6           0        8.439070    0.517982    0.385970
     71          1           0        6.403717    1.531857   -1.173615
     72          6           0        8.080447    0.179072   -1.056548
     73          1           0        9.490030    0.290822    0.574875
     74          1           0        8.290626    1.587245    0.554368
     75          1           0        8.695280    0.763611   -1.743905
     76          1           0        8.281232   -0.878632   -1.241306
     77          1           0        0.617523    3.295474   -0.503628
     78          1           0        4.300495   -0.704150    1.821189
     79          1           0        3.712850   -1.860724   -0.972085
     80          1           0       -1.356035    1.862477    5.144322
     81          1           0       -0.826377    5.378530   -2.824400
     82          1           0       -4.537532    5.424312    0.469469
     83          1           0       -4.085980   -5.368663    1.026909
     84          1           0       -1.522924   -5.384297   -3.221665
     85          1           0        7.804957   -0.015394    2.379728
     86          1           0        6.342710    0.211231   -2.343260
     87          1           0        5.492859   -0.657517    2.946213
 ---------------------------------------------------------------------

 SCF Done:  E(RPBE1PBE) =  -1800.62083339     a.u. after    6 cycles
 SCF Done:  E(RPBE1PBE) =  -1800.62086689     A.U. after   10 cycles

 The electronic state is 1-A.
 Alpha  occ. eigenvalues --  -19.20508 -14.38213 -14.37947 -14.37879 -14.37707
 Alpha  occ. eigenvalues --  -14.37554 -14.35485 -10.31100 -10.27177 -10.26930
 Alpha  occ. eigenvalues --  -10.26851 -10.26579 -10.26537 -10.25610 -10.25599
 Alpha  occ. eigenvalues --  -10.25382 -10.25285 -10.25081 -10.25045 -10.24960
 Alpha  occ. eigenvalues --  -10.24870 -10.24825 -10.24798 -10.24563 -10.24452
 Alpha  occ. eigenvalues --  -10.24375 -10.24330 -10.24310 -10.23911 -10.23860
 Alpha  occ. eigenvalues --  -10.23823 -10.22090 -10.22063 -10.21989 -10.21929
 Alpha  occ. eigenvalues --  -10.21907 -10.21825 -10.21747 -10.21638 -10.21303
 Alpha  occ. eigenvalues --  -10.21265 -10.21249 -10.21061  -1.08179  -0.98227
 Alpha  occ. eigenvalues --   -0.98090  -0.96738  -0.95437  -0.95068  -0.91221
 Alpha  occ. eigenvalues --   -0.90886  -0.89724  -0.86314  -0.85751  -0.84272
 Alpha  occ. eigenvalues --   -0.81561  -0.81441  -0.80982  -0.80900  -0.77147
 Alpha  occ. eigenvalues --   -0.76751  -0.76683  -0.75888  -0.75660  -0.74114
 Alpha  occ. eigenvalues --   -0.69085  -0.68817  -0.68269  -0.67616  -0.67298
 Alpha  occ. eigenvalues --   -0.66143  -0.63336  -0.62912  -0.62731  -0.62147
 Alpha  occ. eigenvalues --   -0.61720  -0.60827  -0.58809  -0.58643  -0.57526
 Alpha  occ. eigenvalues --   -0.57159  -0.56814  -0.56237  -0.56081  -0.54446
 Alpha  occ. eigenvalues --   -0.53667  -0.53001  -0.52580  -0.51578  -0.50746
 Alpha  occ. eigenvalues --   -0.50342  -0.49825  -0.49590  -0.49257  -0.48905
 Alpha  occ. eigenvalues --   -0.48305  -0.47955  -0.47695  -0.47193  -0.46908
 Alpha  occ. eigenvalues --   -0.46327  -0.46179  -0.45745  -0.45393  -0.45255
 Alpha  occ. eigenvalues --   -0.44639  -0.44363  -0.44211  -0.44088  -0.44024
 Alpha  occ. eigenvalues --   -0.43368  -0.42516  -0.42439  -0.41888  -0.41305
 Alpha  occ. eigenvalues --   -0.40566  -0.40410  -0.40286  -0.39713  -0.39395
 Alpha  occ. eigenvalues --   -0.38967  -0.38957  -0.38172  -0.38073  -0.37203
 Alpha  occ. eigenvalues --   -0.36773  -0.36513  -0.36436  -0.36309  -0.36150
 Alpha  occ. eigenvalues --   -0.36030  -0.35823  -0.35741  -0.34678  -0.34382
 Alpha  occ. eigenvalues --   -0.34227  -0.33903  -0.33598  -0.32738  -0.32322
 Alpha  occ. eigenvalues --   -0.32078  -0.31569  -0.31304  -0.29623  -0.28063
 Alpha  occ. eigenvalues --   -0.27718  -0.27627  -0.27497  -0.27182  -0.27137
 Alpha  occ. eigenvalues --   -0.26879  -0.26101  -0.25848  -0.25544  -0.24800
 Alpha virt. eigenvalues --   -0.07396  -0.06670  -0.05956  -0.05560  -0.03068
 Alpha virt. eigenvalues --   -0.01614   0.03837   0.04454   0.04536   0.04585
 Alpha virt. eigenvalues --    0.04610   0.04901   0.05150   0.05370   0.05929

 Mulliken charges:
               1
     1  C    0.357636
     2  C   -0.151710
     3  C   -0.335423
     4  C    0.263306
     5  H    0.128842
     6  C   -0.340409
     7  C    0.322663
     8  H    0.139146
     9  C   -0.277682
    10  C   -0.142056
    11  H    0.123909
    12  C    0.051868
    13  H    0.075592
    14  H    0.085052
    15  C    0.330758
    16  C   -0.152013
    17  C   -0.289040
    18  C    0.365983
    19  H    0.121240
    20  C   -0.371182
    21  C    0.373828
    22  H    0.121044
    23  C   -0.358413
    24  C   -0.178083
    25  H    0.123510
    26  C   -0.165803
    27  H    0.082353
    28  C    0.022905
    29  C    0.046478
    30  N   -0.188691
    31  H    0.047333
    32  C   -0.195583
    33  N   -0.188468
    34  H    0.052332
    35  C   -0.169600
    36  H    0.105455
    37  C   -0.171496
    38  H    0.100983
    39  C   -0.187237
    40  H    0.110316
    41  H    0.088973
    42  H    0.110123
    43  H    0.089630
    44  O   -0.280348
    45  C    0.026283
    46  C    0.044811
    47  N   -0.187113
    48  H    0.049149
    49  C   -0.193728
    50  N   -0.186583
    51  H    0.051019
    52  C   -0.172668
    53  H    0.105131
    54  C   -0.173030
    55  H    0.102113
    56  C   -0.185803
    57  H    0.089633
    58  H    0.110331
    59  H    0.109980
    60  H    0.089190
    61  C    0.046823
    62  C    0.051283
    63  N   -0.521914
    64  H    0.077584
    65  C   -0.218590
    66  N   -0.201074
    67  H    0.041838
    68  C   -0.191002
    69  H    0.106365
    70  C   -0.185362
    71  H    0.099815
    72  C   -0.172720
    73  H    0.107135
    74  H    0.087192
    75  H    0.107289
    76  H    0.088623
    77  H    0.070648
    78  H    0.222846
    79  H    0.081945
    80  H    0.077225
    81  H    0.109414
    82  H    0.106729
    83  H    0.109234
    84  H    0.106903
    85  H    0.097561
    86  H    0.106322
    87  H    0.211151
 Sum of Mulliken charges =   0.00000

 Dipole moment (field-independent basis, Debye):
    X=             -0.7414    Y=              0.9937    Z=             -2.6187  Tot=              2.8974
 Quadrupole moment (field-independent basis, Debye-Ang):
   XX=           -245.5557   YY=           -235.0663   ZZ=           -276.4272
   XY=              4.7151   XZ=              6.1799   YZ=              3.6647

 Normal termination of Gaussian 16 at Mon Oct 18 15:26:38 2021.
