 Gaussian 16, Revision C.01,
 Gaussian 16:  ES64L-G16RevC.01  3-Jul-2019

 ----------------------------------------------------------------------
 #P PBE1PBE/Def2TZVP SP SCF=(YQC,MaxCycle=900) int=(Grid=Superfinegrid)
  EmpiricalDispersion=GD3 SCRF=(PCM,Solvent=Dichloromethane)
 ----------------------------------------------------------------------

 -------------------------
 _2_alde1_4_ami2_1_opt_dcm
 -------------------------
 Symbolic Z-matrix:
 Charge =  0 Multiplicity = 1

                         Standard orientation:
 ---------------------------------------------------------------------
 Center     Atomic      Atomic             Coordinates (Angstroms)
 Number     Number       Type             X           Y           Z
 ---------------------------------------------------------------------
      1          6           0        2.903466    1.092003   -0.023019
      2          6           0        2.388342    2.271494   -0.711196
      3          6           0        3.965252    0.353330   -0.540934
      4          6           0        4.442294   -0.760699    0.134748
      5          1           0        4.452955    0.655988   -1.456165
      6          6           0        3.828650   -1.166256    1.311012
      7          6           0        2.741892   -0.458616    1.820383
      8          1           0        4.188134   -2.048605    1.822118
      9          6           0        2.297392    0.680709    1.156470
     10          6           0        2.042749   -0.907728    3.017792
     11          1           0        1.463076    1.235170    1.552228
     12          6           0        5.585515   -1.555433   -0.439591
     13          1           0        2.506706   -1.734781    3.581961
     14          1           0        2.499530    2.285471   -1.809050
     15          6           0       -2.460239    1.783061   -0.383872
     16          6           0       -1.839593    3.088019   -0.593594
     17          6           0       -2.031541    0.950100    0.646272
     18          6           0       -2.598124   -0.307579    0.812196
     19          1           0       -1.244755    1.275448    1.306353
     20          6           0       -3.604408   -0.727673   -0.056160
     21          6           0       -4.056400    0.104341   -1.068574
     22          1           0       -4.050598   -1.705985    0.049725
     23          6           0       -3.482397    1.356298   -1.229753
     24          6           0       -5.193388   -0.329171   -1.956729
     25          1           0       -3.830214    2.000777   -2.025216
     26          6           0       -2.116769   -1.205012    1.860443
     27          1           0       -2.239878   -2.274324    1.634368
     28          6           0       -0.102085    4.651347   -0.057976
     29          6           0        1.260960    4.321619   -0.720596
     30          7           0       -0.809968    3.409369    0.051890
     31          7           0        1.844201    3.202255   -0.063832
     32          6           0        6.286056   -2.884623   -2.162595
     33          6           0        7.095644   -1.562870   -2.274286
     34          7           0        5.113355   -2.579655   -1.358832
     35          7           0        6.481970   -0.723457   -1.242423
     36          6           0        0.195227   -0.798821    4.468002
     37          6           0       -1.062811   -1.565253    3.968152
     38          7           0        0.956981   -0.364718    3.350705
     39          7           0       -1.608321   -0.751315    2.916495
     40          6           0       -7.435232   -0.771703   -2.052899
     41          6           0       -6.715846   -2.137072   -2.229623
     42          7           0       -6.471773    0.116416   -1.424103
     43          7           0       -5.306124   -1.786308   -2.038120
     44          1           0       -2.335092    3.722276   -1.343237
     45          1           0       -6.468755   -0.032607   -0.418547
     46          1           0       -5.080510    0.134984   -2.956042
     47          1           0       -4.698772   -2.184913   -2.741541
     48          1           0        7.158288   -0.222482   -0.681916
     49          1           0        4.389512   -2.172071   -1.944958
     50          1           0        6.120644   -2.077940    0.377449
     51          1           0       -8.346181   -0.844939   -1.461962
     52          1           0       -7.684836   -0.352817   -3.033248
     53          1           0        6.002855   -3.291413   -3.131556
     54          1           0        6.872665   -3.636083   -1.624328
     55          1           0        1.919666    5.185997   -0.583792
     56          1           0        1.124438    4.154828   -1.803766
     57          1           0        0.759530   -1.443118    5.163901
     58          1           0       -0.141341    0.101461    4.987265
     59          6           0       -7.124575   -3.122712   -1.129498
     60          1           0       -6.963654   -2.677125   -0.150756
     61          1           0       -6.521207   -4.024783   -1.196781
     62          1           0       -8.173228   -3.392369   -1.228597
     63          6           0       -6.990177   -2.741600   -3.606787
     64          1           0       -8.057088   -2.905467   -3.740230
     65          1           0       -6.478204   -3.696682   -3.708913
     66          1           0       -6.642176   -2.073090   -4.392891
     67          6           0        8.587244   -1.798463   -2.032197
     68          1           0        8.982496   -2.498054   -2.765224
     69          1           0        8.751193   -2.210175   -1.037516
     70          1           0        9.135972   -0.862195   -2.116882
     71          6           0        6.881657   -0.894457   -3.636495
     72          1           0        7.309872   -1.500981   -4.430732
     73          1           0        7.354012    0.084872   -3.647517
     74          1           0        5.818937   -0.762170   -3.824426
     75          6           0        0.150478    5.105961    1.384358
     76          1           0       -0.796471    5.259944    1.895993
     77          1           0        0.718006    6.032983    1.398944
     78          1           0        0.709593    4.330532    1.897821
     79          6           0       -0.796039    5.761952   -0.857038
     80          1           0       -0.928271    5.475118   -1.898754
     81          1           0       -0.191740    6.665070   -0.826767
     82          1           0       -1.770302    5.981172   -0.424871
     83          6           0       -2.095192   -1.618849    5.101627
     84          1           0       -1.661983   -2.079755    5.985988
     85          1           0       -2.960243   -2.199532    4.788097
     86          1           0       -2.425425   -0.613306    5.347863
     87          6           0       -0.660187   -2.989249    3.561175
     88          1           0       -0.173876   -3.486354    4.397111
     89          1           0        0.029462   -2.957491    2.719234
     90          1           0       -1.531890   -3.576961    3.282004
 ---------------------------------------------------------------------

 SCF Done:  E(RPBE1PBE) =  -1761.09860662     a.u. after    7 cycles
 SCF Done:  E(RPBE1PBE) =  -1761.09862826     A.U. after    7 cycles

 The electronic state is 1-A.
 Alpha  occ. eigenvalues --  -14.37434 -14.37415 -14.37405 -14.37175 -14.37142
 Alpha  occ. eigenvalues --  -14.36933 -14.36277 -14.36264 -10.27806 -10.27797
 Alpha  occ. eigenvalues --  -10.26411 -10.26257 -10.26141 -10.26093 -10.26057
 Alpha  occ. eigenvalues --  -10.25968 -10.25548 -10.25539 -10.24493 -10.24072
 Alpha  occ. eigenvalues --  -10.23958 -10.23932 -10.23590 -10.23583 -10.23538
 Alpha  occ. eigenvalues --  -10.23517 -10.23482 -10.23452 -10.23274 -10.23149
 Alpha  occ. eigenvalues --  -10.22908 -10.22745 -10.22405 -10.22392 -10.20913
 Alpha  occ. eigenvalues --  -10.20695 -10.20694 -10.20686 -10.20665 -10.20048
 Alpha  occ. eigenvalues --  -10.20022 -10.19833  -0.99417  -0.99383  -0.97198
 Alpha  occ. eigenvalues --   -0.97041  -0.94961  -0.94585  -0.89705  -0.89139
 Alpha  occ. eigenvalues --   -0.88166  -0.88155  -0.83488  -0.82969  -0.81856
 Alpha  occ. eigenvalues --   -0.80729  -0.80030  -0.77984  -0.77762  -0.77051
 Alpha  occ. eigenvalues --   -0.72224  -0.72017  -0.71245  -0.70999  -0.70883
 Alpha  occ. eigenvalues --   -0.70875  -0.69839  -0.69785  -0.67615  -0.67321
 Alpha  occ. eigenvalues --   -0.66003  -0.65067  -0.64463  -0.63420  -0.60575
 Alpha  occ. eigenvalues --   -0.59783  -0.58374  -0.58230  -0.57534  -0.57160
 Alpha  occ. eigenvalues --   -0.55740  -0.55353  -0.53433  -0.52862  -0.52059
 Alpha  occ. eigenvalues --   -0.51707  -0.51200  -0.51102  -0.50214  -0.50198
 Alpha  occ. eigenvalues --   -0.49165  -0.48586  -0.48281  -0.47708  -0.47370
 Alpha  occ. eigenvalues --   -0.46783  -0.46327  -0.46008  -0.45603  -0.45456
 Alpha  occ. eigenvalues --   -0.45196  -0.44998  -0.44827  -0.44632  -0.43583
 Alpha  occ. eigenvalues --   -0.43235  -0.42786  -0.42654  -0.42404  -0.41968
 Alpha  occ. eigenvalues --   -0.41243  -0.41018  -0.40740  -0.40681  -0.40432
 Alpha  occ. eigenvalues --   -0.40205  -0.40138  -0.40076  -0.39597  -0.39235
 Alpha  occ. eigenvalues --   -0.38886  -0.38609  -0.37865  -0.37532  -0.37460
 Alpha  occ. eigenvalues --   -0.37340  -0.37292  -0.37097  -0.36664  -0.36449
 Alpha  occ. eigenvalues --   -0.36176  -0.36027  -0.35701  -0.35431  -0.34576
 Alpha  occ. eigenvalues --   -0.34415  -0.34266  -0.34239  -0.33652  -0.33126
 Alpha  occ. eigenvalues --   -0.31754  -0.30990  -0.27200  -0.27008  -0.26219
 Alpha  occ. eigenvalues --   -0.26190  -0.25883  -0.25783  -0.25536  -0.25324
 Alpha  occ. eigenvalues --   -0.24927  -0.24504  -0.23637  -0.23609
 Alpha virt. eigenvalues --   -0.04962  -0.04713  -0.04228  -0.03855   0.02137
 Alpha virt. eigenvalues --    0.02718   0.03945   0.04012   0.04741   0.04947
 Alpha virt. eigenvalues --    0.05156   0.05408   0.06102   0.06293   0.07148

 Mulliken charges:
               1
     1  C    0.342513
     2  C   -0.196716
     3  C   -0.329186
     4  C    0.279217
     5  H    0.133897
     6  C   -0.399778
     7  C    0.378956
     8  H    0.122711
     9  C   -0.336908
    10  C   -0.200752
    11  H    0.162871
    12  C   -0.079547
    13  H    0.091002
    14  H    0.086772
    15  C    0.377150
    16  C   -0.199718
    17  C   -0.381978
    18  C    0.359297
    19  H    0.140972
    20  C   -0.310613
    21  C    0.251889
    22  H    0.130534
    23  C   -0.405028
    24  C   -0.076464
    25  H    0.121373
    26  C   -0.186027
    27  H    0.091584
    28  C    0.230923
    29  C   -0.089044
    30  N   -0.205967
    31  N   -0.201407
    32  C   -0.150335
    33  C    0.155682
    34  N   -0.300003
    35  N   -0.305452
    36  C   -0.100225
    37  C    0.156684
    38  N   -0.173084
    39  N   -0.175427
    40  C   -0.140673
    41  C    0.138278
    42  N   -0.302946
    43  N   -0.302465
    44  H    0.099233
    45  H    0.211495
    46  H    0.086552
    47  H    0.211801
    48  H    0.210812
    49  H    0.211116
    50  H    0.085828
    51  H    0.138940
    52  H    0.093092
    53  H    0.139087
    54  H    0.094898
    55  H    0.124585
    56  H    0.086942
    57  H    0.087458
    58  H    0.113548
    59  C   -0.385957
    60  H    0.119838
    61  H    0.116406
    62  H    0.121033
    63  C   -0.439084
    64  H    0.129975
    65  H    0.132169
    66  H    0.132902
    67  C   -0.440588
    68  H    0.129706
    69  H    0.133185
    70  H    0.131857
    71  C   -0.389900
    72  H    0.121197
    73  H    0.117183
    74  H    0.120247
    75  C   -0.428431
    76  H    0.124534
    77  H    0.117245
    78  H    0.140976
    79  C   -0.408003
    80  H    0.133758
    81  H    0.138505
    82  H    0.140138
    83  C   -0.376086
    84  H    0.127766
    85  H    0.129612
    86  H    0.132369
    87  C   -0.442416
    88  H    0.136088
    89  H    0.148055
    90  H    0.137773
 Sum of Mulliken charges =   0.00000

 Dipole moment (field-independent basis, Debye):
    X=              1.0450    Y=             -3.4068    Z=             -3.9789  Tot=              5.3413
 Quadrupole moment (field-independent basis, Debye-Ang):
   XX=           -211.7710   YY=           -240.7310   ZZ=           -234.5296
   XY=              5.1919   XZ=              3.2422   YZ=            -11.8614

 Normal termination of Gaussian 16 at Mon Oct 18 07:54:23 2021.
