 Gaussian 16, Revision C.01,
 Gaussian 16:  ES64L-G16RevC.01  3-Jul-2019

 ----------------------------------------------------------------------
 #P PBE1PBE/Def2TZVP SP SCF=(YQC,MaxCycle=900) int=(Grid=Superfinegrid)
  EmpiricalDispersion=GD3
 ----------------------------------------------------------------------

 -------------------------
 _2_alde1_4_ami3_2_opt_gas
 -------------------------
 Symbolic Z-matrix:
 Charge =  0 Multiplicity = 1

                         Standard orientation:
 ---------------------------------------------------------------------
 Center     Atomic      Atomic             Coordinates (Angstroms)
 Number     Number       Type             X           Y           Z
 ---------------------------------------------------------------------
      1          6           0        2.284012   -0.154844    1.711568
      2          6           0        1.801929   -1.037295    2.765853
      3          6           0        3.080855   -0.641537    0.682370
      4          6           0        3.463035    0.187897   -0.373296
      5          1           0        3.427048   -1.663959    0.680311
      6          6           0        2.995392    1.496891   -0.418378
      7          6           0        2.194541    1.997730    0.606903
      8          1           0        3.238003    2.146494   -1.245578
      9          6           0        1.872363    1.176514    1.681196
     10          6           0        1.620556    3.332347    0.540692
     11          1           0        1.265240    1.539540    2.495157
     12          6           0        4.329946   -0.314347   -1.430683
     13          1           0        1.120780    3.673869    1.459720
     14          1           0        1.858785   -2.114873    2.544484
     15          1           0        4.569714    0.400495   -2.232701
     16          6           0       -1.973166    0.433572    1.944117
     17          6           0       -1.430993    0.269539    3.283586
     18          6           0       -1.658628    1.580059    1.223826
     19          6           0       -2.035732    1.709988   -0.111701
     20          1           0       -1.082717    2.375579    1.669386
     21          6           0       -2.792267    0.705709   -0.702942
     22          6           0       -3.169909   -0.423289    0.025443
     23          1           0       -3.104210    0.779780   -1.733659
     24          6           0       -2.733975   -0.565047    1.338504
     25          6           0       -4.000364   -1.458119   -0.580503
     26          1           0       -2.971796   -1.448143    1.912013
     27          6           0       -1.558924    2.844496   -0.891679
     28          1           0       -4.199885   -2.322952    0.063259
     29          1           0       -1.577937    2.709479   -1.984761
     30          6           0       -0.696366   -0.929112    5.117753
     31          6           0        0.706348   -1.488837    4.776763
     32          7           0       -1.429610   -0.836566    3.891774
     33          7           0        1.304251   -0.594142    3.836008
     34          6           0        5.639584   -1.951121   -2.465568
     35          6           0        4.967679   -3.151015   -3.156955
     36          7           0        4.780496   -1.492275   -1.418262
     37          7           0        3.769981   -2.678786   -3.838125
     38          6           0        0.867182    5.241785   -0.521304
     39          6           0       -0.510972    4.914168   -1.146411
     40          7           0        1.629988    4.030861   -0.510517
     41          7           0       -1.106543    3.888361   -0.348863
     42          6           0       -6.630297   -1.517378   -2.721970
     43          6           0       -5.298962   -2.262744   -2.411979
     44          7           0       -6.445333   -0.248824   -3.395635
     45          7           0       -4.438808   -1.328689   -1.756190
     46          1           0       -0.964289    1.168449    3.713568
     47          1           0        3.140430   -2.244680   -3.170899
     48          1           0        3.281024   -3.457196   -4.267217
     49          1           0       -5.829928    0.337634   -2.841696
     50          1           0       -5.993658   -0.397620   -4.292960
     51          6           0       -7.535950   -2.416080   -3.562660
     52          6           0        5.914036   -3.763371   -4.188796
     53          6           0       -1.370514    6.179862   -1.145172
     54          6           0       -1.388824   -1.858297    6.109641
     55          1           0        4.746025   -3.900057   -2.375021
     56          6           0        7.235452   -4.180268   -3.554375
     57          1           0        6.090670   -3.023217   -4.971092
     58          1           0        5.429138   -4.627081   -4.649733
     59          6           0        7.900105   -2.982030   -2.885954
     60          1           0        7.895336   -4.598276   -4.317211
     61          1           0        7.051908   -4.956020   -2.807074
     62          6           0        6.971280   -2.379241   -1.840010
     63          1           0        8.134648   -2.229047   -3.641688
     64          1           0        8.835666   -3.286980   -2.412689
     65          1           0        7.436943   -1.509644   -1.371201
     66          1           0        6.762780   -3.110425   -1.056749
     67          1           0        5.814154   -1.169969   -3.226885
     68          1           0       -7.119995   -1.300204   -1.764198
     69          6           0       -7.807866   -3.742553   -2.862858
     70          1           0       -7.054197   -2.601722   -4.526169
     71          1           0       -8.468949   -1.884231   -3.752957
     72          6           0       -6.497530   -4.461540   -2.558403
     73          1           0       -8.439761   -4.370423   -3.493946
     74          1           0       -8.344852   -3.557092   -1.929814
     75          6           0       -5.596584   -3.583484   -1.696363
     76          1           0       -5.986338   -4.699572   -3.494550
     77          1           0       -6.699113   -5.401496   -2.040038
     78          1           0       -4.813983   -2.476072   -3.376431
     79          1           0       -4.659098   -4.104604   -1.483962
     80          1           0       -6.098630   -3.376926   -0.747634
     81          1           0       -0.356162    4.579381   -2.187897
     82          6           0       -0.686282    7.282182   -1.947038
     83          1           0       -1.524906    6.500118   -0.113358
     84          1           0       -2.347276    5.947004   -1.575354
     85          6           0        0.699110    7.585269   -1.382754
     86          1           0       -1.301419    8.184081   -1.927592
     87          1           0       -0.590892    6.963816   -2.987875
     88          6           0        1.556509    6.324269   -1.345841
     89          1           0        0.678038    5.606696    0.503704
     90          1           0        1.719685    5.945171   -2.355986
     91          1           0        2.532172    6.541056   -0.906808
     92          1           0        0.597464    7.981604   -0.369711
     93          1           0        1.189292    8.346914   -1.992432
     94          1           0       -0.544945    0.066422    5.571061
     95          6           0       -0.561998   -1.977393    7.385978
     96          1           0       -1.513989   -2.837526    5.644580
     97          1           0       -2.381513   -1.464396    6.335659
     98          6           0        0.845844   -2.478180    7.074927
     99          1           0       -1.053411   -2.660567    8.081455
    100          1           0       -0.498906   -0.998244    7.866787
    101          6           0        1.534127   -1.570149    6.060979
    102          1           0        0.787825   -3.491222    6.669813
    103          1           0        1.437587   -2.517395    7.991712
    104          1           0        2.528103   -1.953761    5.819805
    105          1           0        1.651312   -0.564653    6.468866
    106          1           0        0.589338   -2.502959    4.353846
 ---------------------------------------------------------------------

 SCF Done:  E(RPBE1PBE) =  -2070.54454776     a.u. after    6 cycles
 SCF Done:  E(RPBE1PBE) =  -2070.54459381     A.U. after   10 cycles

 The electronic state is 1-A.
 Alpha  occ. eigenvalues --  -14.37595 -14.37569 -14.37519 -14.37469 -14.37171
 Alpha  occ. eigenvalues --  -14.37131 -14.35457 -14.34825 -10.26587 -10.26559
 Alpha  occ. eigenvalues --  -10.26498 -10.26403 -10.26123 -10.26090 -10.25222
 Alpha  occ. eigenvalues --  -10.25164 -10.24866 -10.24814 -10.24770 -10.24498
 Alpha  occ. eigenvalues --  -10.24477 -10.24367 -10.24023 -10.24022 -10.24013
 Alpha  occ. eigenvalues --  -10.23993 -10.23935 -10.23929 -10.23528 -10.23521
 Alpha  occ. eigenvalues --  -10.23515 -10.23510 -10.23499 -10.23496 -10.21815
 Alpha  occ. eigenvalues --  -10.21762 -10.21744 -10.21736 -10.21716 -10.21633
 Alpha  occ. eigenvalues --  -10.21594 -10.21517 -10.21456 -10.21348 -10.21271
 Alpha  occ. eigenvalues --  -10.21262 -10.21222 -10.21214 -10.21111 -10.21014
 Alpha  occ. eigenvalues --   -0.97642  -0.97507  -0.96563  -0.96354  -0.94912
 Alpha  occ. eigenvalues --   -0.94578  -0.91043  -0.90917  -0.89795  -0.89174
 Alpha  occ. eigenvalues --   -0.85892  -0.85353  -0.84302  -0.84195  -0.80774
 Alpha  occ. eigenvalues --   -0.80734  -0.80545  -0.80503  -0.76837  -0.76584
 Alpha  occ. eigenvalues --   -0.76257  -0.75888  -0.75638  -0.75175  -0.74060
 Alpha  occ. eigenvalues --   -0.74031  -0.68439  -0.68069  -0.67861  -0.67166
 Alpha  occ. eigenvalues --   -0.66965  -0.65854  -0.63213  -0.62900  -0.62675
 Alpha  occ. eigenvalues --   -0.62249  -0.61804  -0.61646  -0.60983  -0.60378
 Alpha  occ. eigenvalues --   -0.58799  -0.58378  -0.58145  -0.57430  -0.56227
 Alpha  occ. eigenvalues --   -0.55993  -0.55674  -0.55129  -0.53770  -0.53106
 Alpha  occ. eigenvalues --   -0.52473  -0.52328  -0.51112  -0.51056  -0.50314
 Alpha  occ. eigenvalues --   -0.49590  -0.49477  -0.49375  -0.49049  -0.48963
 Alpha  occ. eigenvalues --   -0.48688  -0.48148  -0.47432  -0.47395  -0.47181
 Alpha  occ. eigenvalues --   -0.46646  -0.46362  -0.46177  -0.45892  -0.45429
 Alpha  occ. eigenvalues --   -0.44970  -0.44840  -0.44356  -0.44043  -0.43897
 Alpha  occ. eigenvalues --   -0.43577  -0.43519  -0.43147  -0.42260  -0.42115
 Alpha  occ. eigenvalues --   -0.42064  -0.41829  -0.41387  -0.41229  -0.41101
 Alpha  occ. eigenvalues --   -0.40100  -0.39941  -0.39594  -0.39499  -0.39314
 Alpha  occ. eigenvalues --   -0.38381  -0.38187  -0.37811  -0.37651  -0.37021
 Alpha  occ. eigenvalues --   -0.36671  -0.36432  -0.36164  -0.36077  -0.35957
 Alpha  occ. eigenvalues --   -0.35760  -0.35691  -0.35567  -0.35542  -0.35425
 Alpha  occ. eigenvalues --   -0.35123  -0.34148  -0.34089  -0.33955  -0.33739
 Alpha  occ. eigenvalues --   -0.33561  -0.33478  -0.33164  -0.32376  -0.32263
 Alpha  occ. eigenvalues --   -0.32082  -0.31662  -0.31295  -0.29914  -0.29202
 Alpha  occ. eigenvalues --   -0.27376  -0.27194  -0.26911  -0.26609  -0.26503
 Alpha  occ. eigenvalues --   -0.25980  -0.25720  -0.25527  -0.25314  -0.25131
 Alpha  occ. eigenvalues --   -0.24702  -0.23890
 Alpha virt. eigenvalues --   -0.06000  -0.05684  -0.05493  -0.04961  -0.02222
 Alpha virt. eigenvalues --   -0.01026   0.04299   0.04514   0.04588   0.04630
 Alpha virt. eigenvalues --    0.04769   0.04847   0.04907   0.05212   0.05322

 Mulliken charges:
               1
     1  C    0.336525
     2  C   -0.156609
     3  C   -0.359283
     4  C    0.373776
     5  H    0.122134
     6  C   -0.371275
     7  C    0.374849
     8  H    0.119779
     9  C   -0.286370
    10  C   -0.172648
    11  H    0.118466
    12  C   -0.174147
    13  H    0.085028
    14  H    0.068582
    15  H    0.079192
    16  C    0.363538
    17  C   -0.178242
    18  C   -0.274110
    19  C    0.334247
    20  H    0.118385
    21  C   -0.358093
    22  C    0.361744
    23  H    0.122888
    24  C   -0.366825
    25  C   -0.154622
    26  H    0.118301
    27  C   -0.165836
    28  H    0.086764
    29  H    0.069360
    30  C    0.052946
    31  C    0.018426
    32  N   -0.189152
    33  N   -0.185712
    34  C    0.050274
    35  C    0.051816
    36  N   -0.203993
    37  N   -0.523653
    38  C    0.051996
    39  C    0.018563
    40  N   -0.188070
    41  N   -0.185264
    42  C   -0.000769
    43  C   -0.041194
    44  N   -0.476972
    45  N   -0.161809
    46  H    0.085309
    47  H    0.223229
    48  H    0.209171
    49  H    0.223252
    50  H    0.202890
    51  C   -0.182127
    52  C   -0.216917
    53  C   -0.198178
    54  C   -0.167807
    55  H    0.076815
    56  C   -0.185416
    57  H    0.105701
    58  H    0.096021
    59  C   -0.171649
    60  H    0.106688
    61  H    0.086842
    62  C   -0.194109
    63  H    0.088565
    64  H    0.107156
    65  H    0.106746
    66  H    0.100163
    67  H    0.041366
    68  H    0.079708
    69  C   -0.186894
    70  H    0.084858
    71  H    0.118646
    72  C   -0.154348
    73  H    0.108040
    74  H    0.091918
    75  C   -0.250300
    76  H    0.090196
    77  H    0.107745
    78  H    0.079239
    79  H    0.114132
    80  H    0.102753
    81  H    0.048036
    82  C   -0.168555
    83  H    0.105255
    84  H    0.108640
    85  C   -0.186294
    86  H    0.109240
    87  H    0.088092
    88  C   -0.168815
    89  H    0.051227
    90  H    0.100100
    91  H    0.105677
    92  H    0.088707
    93  H    0.108659
    94  H    0.051371
    95  C   -0.186604
    96  H    0.098838
    97  H    0.105796
    98  C   -0.168059
    99  H    0.108538
   100  H    0.088981
   101  C   -0.198485
   102  H    0.087518
   103  H    0.109136
   104  H    0.108364
   105  H    0.105453
   106  H    0.046849
 Sum of Mulliken charges =   0.00000

 Dipole moment (field-independent basis, Debye):
    X=              0.6475    Y=             -1.7656    Z=              0.5684  Tot=              1.9646
 Quadrupole moment (field-independent basis, Debye-Ang):
   XX=           -311.9139   YY=           -278.7899   ZZ=           -291.9520
   XY=              5.8624   XZ=             -2.9356   YZ=              0.6700

 Normal termination of Gaussian 16 at Sun Oct 17 22:04:23 2021.
