 Gaussian 16, Revision C.01,
 Gaussian 16:  ES64L-G16RevC.01  3-Jul-2019

 ----------------------------------------------------------------------
 #P PBE1PBE/Def2TZVP SP SCF=(YQC,MaxCycle=900) int=(Grid=Superfinegrid)
  EmpiricalDispersion=GD3
 ----------------------------------------------------------------------

 -------------------------
 _2_alde1_4_ami4_2_opt_gas
 -------------------------
 Symbolic Z-matrix:
 Charge =  0 Multiplicity = 1

                         Standard orientation:
 ---------------------------------------------------------------------
 Center     Atomic      Atomic             Coordinates (Angstroms)
 Number     Number       Type             X           Y           Z
 ---------------------------------------------------------------------
      1          6           0        1.835827    2.034753    0.314493
      2          6           0        1.469435    3.399659   -0.028876
      3          6           0        2.686607    1.286280   -0.497701
      4          6           0        2.947952   -0.048215   -0.206480
      5          1           0        3.129514    1.765779   -1.357393
      6          6           0        2.315611   -0.648269    0.883759
      7          6           0        1.467349    0.086467    1.703190
      8          1           0        2.502444   -1.694292    1.073372
      9          6           0        1.254802    1.436343    1.426444
     10          6           0        0.733969   -0.560413    2.782965
     11          1           0        0.600648    1.993141    2.078695
     12          6           0        3.856963   -0.812213   -1.048796
     13          1           0        0.720419   -1.661063    2.754746
     14          1           0        0.869919    3.929118    0.726162
     15          1           0        4.286244   -0.269054   -1.905245
     16          6           0       -1.931724    1.855071   -1.258369
     17          6           0       -1.259167    2.888185   -2.033395
     18          6           0       -1.954845    1.926772    0.132138
     19          6           0       -2.469811    0.880233    0.891503
     20          1           0       -1.531894    2.800079    0.603247
     21          6           0       -3.022738   -0.223115    0.247324
     22          6           0       -3.051861   -0.287954   -1.143592
     23          1           0       -3.427789   -1.035875    0.827433
     24          6           0       -2.482514    0.743048   -1.888940
     25          6           0       -3.647335   -1.430766   -1.823952
     26          1           0       -2.471940    0.680304   -2.968844
     27          6           0       -2.331744    0.927923    2.339232
     28          1           0       -3.600983   -1.412083   -2.924739
     29          1           0       -1.985683    1.890176    2.746214
     30          6           0       -0.122559    4.909774   -2.276174
     31          6           0        1.161448    5.185118   -1.459729
     32          7           0       -0.927371    3.996210   -1.531617
     33          7           0        1.757935    3.924717   -1.140493
     34          6           0        5.058741   -2.727844   -1.630615
     35          6           0        6.287359   -3.129720   -0.780888
     36          7           0        4.132315   -2.020004   -0.810428
     37          7           0        5.984140   -3.955455    0.365134
     38          6           0       -0.727707   -0.568972    4.599929
     39          6           0       -2.150656    0.018278    4.454090
     40          7           0        0.117935    0.098486    3.663686
     41          7           0       -2.525729   -0.077152    3.077392
     42          6           0       -4.021856   -4.770114   -1.449738
     43          6           0       -4.745683   -3.490100   -1.883404
     44          7           0       -2.676743   -4.776127   -2.001909
     45          7           0       -4.188700   -2.375161   -1.188486
     46          1           0       -1.024159    2.622924   -3.076622
     47          1           0        5.326444   -3.466674    0.963930
     48          1           0        5.539405   -4.817986    0.067126
     49          1           0       -2.161837   -3.974857   -1.649082
     50          1           0       -2.181423   -5.612653   -1.713203
     51          1           0       -2.134533    1.059507    4.810791
     52          1           0       -2.845302   -0.572818    5.053907
     53          1           0       -0.756915   -1.658325    4.439775
     54          1           0       -0.368172   -0.357996    5.610818
     55          1           0        6.774502   -2.220372   -0.417902
     56          1           0        6.991961   -3.668524   -1.420241
     57          1           0        5.392665   -2.143645   -2.504807
     58          1           0        4.560634   -3.639671   -1.978209
     59          1           0        0.884333    5.754003   -0.559522
     60          1           0        1.857351    5.764075   -2.069983
     61          1           0        0.145824    4.521315   -3.271583
     62          1           0       -0.669442    5.850097   -2.387368
     63          1           0       -4.553531   -5.635612   -1.854098
     64          1           0       -4.046917   -4.823140   -0.349952
     65          1           0       -5.796503   -3.566829   -1.588581
     66          1           0       -4.676926   -3.388904   -2.978290
 ---------------------------------------------------------------------

 SCF Done:  E(RPBE1PBE) =  -1446.81489218     a.u. after    6 cycles
 SCF Done:  E(RPBE1PBE) =  -1446.81492006     A.U. after    9 cycles

 The electronic state is 1-A.
 Alpha  occ. eigenvalues --  -14.38129 -14.38105 -14.38015 -14.37813 -14.37648
 Alpha  occ. eigenvalues --  -14.37426 -14.35797 -14.35433 -10.27094 -10.26963
 Alpha  occ. eigenvalues --  -10.26907 -10.26678 -10.26573 -10.26341 -10.25464
 Alpha  occ. eigenvalues --  -10.25273 -10.25098 -10.24893 -10.24595 -10.24468
 Alpha  occ. eigenvalues --  -10.24455 -10.24413 -10.24410 -10.24341 -10.24327
 Alpha  occ. eigenvalues --  -10.24317 -10.24298 -10.24178 -10.24158 -10.23960
 Alpha  occ. eigenvalues --  -10.23955 -10.23935 -10.23869 -10.23328  -0.97814
 Alpha  occ. eigenvalues --   -0.97577  -0.96659  -0.96447  -0.95122  -0.94730
 Alpha  occ. eigenvalues --   -0.90822  -0.90638  -0.89903  -0.89438  -0.82460
 Alpha  occ. eigenvalues --   -0.81793  -0.80963  -0.80433  -0.77503  -0.75954
 Alpha  occ. eigenvalues --   -0.74933  -0.74737  -0.69791  -0.69725  -0.67727
 Alpha  occ. eigenvalues --   -0.67306  -0.66419  -0.64607  -0.63094  -0.62619
 Alpha  occ. eigenvalues --   -0.61366  -0.59861  -0.57741  -0.56600  -0.56311
 Alpha  occ. eigenvalues --   -0.55472  -0.54227  -0.53431  -0.52695  -0.52318
 Alpha  occ. eigenvalues --   -0.51519  -0.51215  -0.50675  -0.50314  -0.50144
 Alpha  occ. eigenvalues --   -0.49428  -0.48998  -0.48611  -0.48133  -0.47285
 Alpha  occ. eigenvalues --   -0.46740  -0.46467  -0.46093  -0.45426  -0.44975
 Alpha  occ. eigenvalues --   -0.44797  -0.44247  -0.44036  -0.42476  -0.42298
 Alpha  occ. eigenvalues --   -0.41664  -0.40887  -0.40839  -0.40506  -0.40301
 Alpha  occ. eigenvalues --   -0.39830  -0.39516  -0.39118  -0.38257  -0.37542
 Alpha  occ. eigenvalues --   -0.36927  -0.36538  -0.36256  -0.35810  -0.35517
 Alpha  occ. eigenvalues --   -0.35331  -0.35133  -0.34846  -0.31105  -0.30663
 Alpha  occ. eigenvalues --   -0.27598  -0.27509  -0.27265  -0.27142  -0.26969
 Alpha  occ. eigenvalues --   -0.26825  -0.26520  -0.25930  -0.25798  -0.25593
 Alpha  occ. eigenvalues --   -0.24963  -0.24418
 Alpha virt. eigenvalues --   -0.06858  -0.06103  -0.05559  -0.05276  -0.02641
 Alpha virt. eigenvalues --   -0.01458   0.04571   0.04747   0.04858   0.05071
 Alpha virt. eigenvalues --    0.05443   0.05857   0.06080   0.06173   0.06358

 Mulliken charges:
               1
     1  C    0.373303
     2  C   -0.160477
     3  C   -0.370301
     4  C    0.371709
     5  H    0.121275
     6  C   -0.354440
     7  C    0.330104
     8  H    0.123842
     9  C   -0.288854
    10  C   -0.142374
    11  H    0.125234
    12  C   -0.165108
    13  H    0.068419
    14  H    0.079386
    15  H    0.067982
    16  C    0.285354
    17  C   -0.141821
    18  C   -0.285000
    19  C    0.425115
    20  H    0.124297
    21  C   -0.392961
    22  C    0.381039
    23  H    0.133665
    24  C   -0.333935
    25  C   -0.179025
    26  H    0.111879
    27  C   -0.171269
    28  H    0.068658
    29  H    0.077247
    30  C   -0.081968
    31  C   -0.066635
    32  N   -0.187190
    33  N   -0.185546
    34  C   -0.120617
    35  C   -0.082994
    36  N   -0.171532
    37  N   -0.495844
    38  C   -0.082948
    39  C   -0.064376
    40  N   -0.188780
    41  N   -0.176202
    42  C   -0.092246
    43  C   -0.058898
    44  N   -0.527588
    45  N   -0.180283
    46  H    0.064455
    47  H    0.224271
    48  H    0.206907
    49  H    0.225453
    50  H    0.214360
    51  H    0.079107
    52  H    0.116600
    53  H    0.073679
    54  H    0.115908
    55  H    0.106188
    56  H    0.108845
    57  H    0.067624
    58  H    0.112176
    59  H    0.081046
    60  H    0.116094
    61  H    0.072074
    62  H    0.116065
    63  H    0.098629
    64  H    0.099148
    65  H    0.114763
    66  H    0.067308
 Sum of Mulliken charges =   0.00000

 Dipole moment (field-independent basis, Debye):
    X=             -0.5337    Y=              0.4904    Z=             -1.4056  Tot=              1.5815
 Quadrupole moment (field-independent basis, Debye-Ang):
   XX=           -218.3038   YY=           -189.2563   ZZ=           -190.2292
   XY=              5.2696   XZ=             -8.0972   YZ=             -3.0482

 1\1\GINC-CX3-6-1\SP\RPBE1PBE\def2TZVP\C26H32N8\ATARZIA\18-Oct-2021\0\\
 #P PBE1PBE/Def2TZVP SP SCF=(YQC,MaxCycle=900) int=(Grid=Superfinegrid)
  EmpiricalDispersion=GD3\\_2_alde1_4_ami4_2_opt_gas\\0,1\C,0,-4.0063,-
 1.3784,-1.2704\C,0,-4.7277,-0.9629,-0.0779\C,0,-3.2907,-2.5744,-1.305\
 C,0,-2.5271,-2.9086,-2.4182\H,0,-3.3398,-3.2274,-0.4469\C,0,-2.4462,-2
 .0146,-3.4872\C,0,-3.1562,-0.8203,-3.4672\H,0,-1.8202,-2.2745,-4.3272\
 C,0,-3.9565,-0.523,-2.3649\C,0,-2.9986,0.1551,-4.5377\H,0,-4.5077,0.40
 41,-2.3709\C,0,-1.8036,-4.1715,-2.4517\H,0,-2.1417,-0.0111,-5.2089\H,0

 Normal termination of Gaussian 16 at Mon Oct 18 03:42:48 2021.
