 Gaussian 16, Revision C.01,
 Gaussian 16:  ES64L-G16RevC.01  3-Jul-2019

 ----------------------------------------------------------------------
 #P MP2/aug-cc-pVDZ SP SCF=(YQC,MaxCycle=900) int=(Grid=Superfinegrid)
 SCRF=(PCM,Solvent=Dichloromethane)
 ----------------------------------------------------------------------

 -----------------------------
 _2_alde1_3_ami3_2_opt_dcm_mp2
 -----------------------------
 Symbolic Z-matrix:
 Charge =  0 Multiplicity = 1

                         Standard orientation:
 ---------------------------------------------------------------------
 Center     Atomic      Atomic             Coordinates (Angstroms)
 Number     Number       Type             X           Y           Z
 ---------------------------------------------------------------------
      1          6           0       -2.733332    1.064861    1.458540
      2          6           0       -3.098842    2.080956    0.483710
      3          6           0       -2.252880    1.408999    2.720559
      4          6           0       -1.801249    0.421646    3.589953
      5          1           0       -2.228693    2.451637    2.998621
      6          6           0       -1.791499   -0.913578    3.182433
      7          6           0       -2.275932   -1.270832    1.929911
      8          1           0       -1.402544   -1.657908    3.862516
      9          6           0       -2.769927   -0.275789    1.087671
     10          6           0       -2.177503   -2.645209    1.454472
     11          1           0       -3.148138   -0.572253    0.121799
     12          6           0       -1.302212    0.777426    4.925735
     13          1           0       -1.471388   -3.285483    2.005364
     14          1           0       -3.534902    1.699448   -0.451233
     15          6           0        0.370106    1.276524   -1.259817
     16          6           0       -0.071791    2.651466   -1.072127
     17          6           0       -0.555953    0.287385   -1.587522
     18          6           0       -0.185904   -1.052238   -1.618581
     19          1           0       -1.574297    0.586955   -1.779390
     20          6           0        1.143418   -1.399413   -1.381653
     21          6           0        2.089750   -0.419158   -1.103703
     22          1           0        1.414743   -2.443672   -1.408756
     23          6           0        1.690553    0.915621   -1.019684
     24          6           0        3.480151   -0.789436   -0.874747
     25          1           0        2.434595    1.656126   -0.768385
     26          6           0       -1.214617   -2.063749   -1.796689
     27          1           0       -2.210563   -1.676637   -2.062048
     28          6           0       -1.651914    4.365199   -1.118396
     29          6           0       -3.041116    4.191534   -0.452630
     30          7           0       -1.192560    3.061216   -1.479866
     31          1           0       -0.973163    4.846844   -0.391440
     32          6           0       -1.801394    5.265120   -2.345493
     33          7           0       -2.860948    3.308331    0.657517
     34          1           0       -3.711820    3.751830   -1.211848
     35          6           0       -3.566704    5.553626   -0.012677
     36          1           0       -2.472468    4.782693   -3.058048
     37          6           0       -2.351724    6.626928   -1.933189
     38          1           0       -2.879699    5.975837    0.722426
     39          6           0       -3.692346    6.480217   -1.218101
     40          1           0       -2.469514    7.256617   -2.817275
     41          1           0       -1.638100    7.116223   -1.266118
     42          1           0       -4.048475    7.460054   -0.894134
     43          1           0       -4.428915    6.069331   -1.912640
     44          8           0       -0.868566    0.000395    5.737152
     45          6           0       -2.550878   -4.354241   -0.084364
     46          6           0       -2.147025   -4.165407   -1.568849
     47          7           0       -2.814553   -3.054451    0.446676
     48          1           0       -1.715152   -4.845983    0.445186
     49          6           0       -3.791342   -5.245465   -0.017593
     50          7           0       -1.013897   -3.292148   -1.586728
     51          1           0       -3.012109   -3.713192   -2.086226
     52          6           0       -1.821392   -5.523767   -2.180877
     53          1           0       -4.610394   -4.750942   -0.542506
     54          6           0       -3.496153   -6.602375   -0.648918
     55          1           0       -0.976460   -5.958041   -1.644235
     56          6           0       -3.036190   -6.442491   -2.095663
     57          1           0       -2.713833   -7.103735   -0.074385
     58          1           0       -4.391509   -7.225980   -0.610497
     59          1           0       -2.789506   -7.419406   -2.515788
     60          1           0       -3.850221   -6.018904   -2.688597
     61          6           0        6.076854   -0.001997    1.102274
     62          6           0        5.712234   -0.324508   -0.359153
     63          7           0        5.290890   -0.864025    1.973834
     64          1           0        5.870828    1.071703    1.264706
     65          6           0        7.560564   -0.274151    1.346818
     66          7           0        4.356318    0.069739   -0.583597
     67          1           0        5.856961   -1.408366   -0.514786
     68          6           0        6.607789    0.469083   -1.315736
     69          1           0        7.736382   -1.343845    1.220425
     70          6           0        8.439070    0.517982    0.385970
     71          1           0        6.403717    1.531857   -1.173615
     72          6           0        8.080447    0.179072   -1.056548
     73          1           0        9.490030    0.290822    0.574875
     74          1           0        8.290626    1.587245    0.554368
     75          1           0        8.695280    0.763611   -1.743905
     76          1           0        8.281232   -0.878632   -1.241306
     77          1           0        0.617523    3.295474   -0.503628
     78          1           0        4.300495   -0.704150    1.821189
     79          1           0        3.712850   -1.860724   -0.972085
     80          1           0       -1.356035    1.862477    5.144322
     81          1           0       -0.826377    5.378530   -2.824400
     82          1           0       -4.537532    5.424312    0.469469
     83          1           0       -4.085980   -5.368663    1.026909
     84          1           0       -1.522924   -5.384297   -3.221665
     85          1           0        7.804957   -0.015394    2.379728
     86          1           0        6.342710    0.211231   -2.343260
     87          1           0        5.492859   -0.657517    2.946213
 ---------------------------------------------------------------------

 SCF Done:  E(RHF) =  -1790.63766557     a.u. after    7 cycles
 SCF Done:  E(RHF) =  -1790.63771100     A.U. after   14 cycles
 E2 =    -0.6260707090D+01 EUMP2 =    -0.17968984180899D+04

 The electronic state is 1-A.
 Alpha  occ. eigenvalues --  -20.57528 -15.56468 -15.56294 -15.56257 -15.56202
 Alpha  occ. eigenvalues --  -15.56000 -15.54417 -11.34997 -11.29032 -11.28881
 Alpha  occ. eigenvalues --  -11.28834 -11.28779 -11.28648 -11.26862 -11.26688
 Alpha  occ. eigenvalues --  -11.26587 -11.25892 -11.25875 -11.25857 -11.25793
 Alpha  occ. eigenvalues --  -11.25782 -11.25616 -11.25577 -11.25554 -11.25526
 Alpha  occ. eigenvalues --  -11.25485 -11.25303 -11.25280 -11.25277 -11.25234
 Alpha  occ. eigenvalues --  -11.25195 -11.22147 -11.22146 -11.22030 -11.22008
 Alpha  occ. eigenvalues --  -11.21977 -11.21945 -11.21922 -11.21878 -11.21804
 Alpha  occ. eigenvalues --  -11.21753 -11.21700 -11.21628  -1.41252  -1.27050
 Alpha  occ. eigenvalues --   -1.26847  -1.25663  -1.23968  -1.23475  -1.18875
 Alpha  occ. eigenvalues --   -1.18458  -1.17105  -1.11963  -1.11298  -1.09947
 Alpha  occ. eigenvalues --   -1.06943  -1.06661  -1.06129  -1.06111  -1.00803
 Alpha  occ. eigenvalues --   -1.00380  -1.00327  -0.99681  -0.99180  -0.97561
 Alpha  occ. eigenvalues --   -0.90893  -0.90744  -0.89780  -0.89016  -0.88601
 Alpha  occ. eigenvalues --   -0.86831  -0.83348  -0.83102  -0.82702  -0.81966
 Alpha  occ. eigenvalues --   -0.81540  -0.80307  -0.77317  -0.77126  -0.76359
 Alpha  occ. eigenvalues --   -0.76166  -0.75556  -0.74885  -0.74635  -0.71907
 Alpha  occ. eigenvalues --   -0.70729  -0.70042  -0.69283  -0.67501  -0.67210
 Alpha  occ. eigenvalues --   -0.66711  -0.66091  -0.65643  -0.65429  -0.65269
 Alpha  occ. eigenvalues --   -0.64285  -0.63763  -0.63176  -0.62909  -0.62573
 Alpha  occ. eigenvalues --   -0.61920  -0.61366  -0.60930  -0.60422  -0.60308
 Alpha  occ. eigenvalues --   -0.59397  -0.59355  -0.59230  -0.58029  -0.57957
 Alpha  occ. eigenvalues --   -0.56883  -0.56209  -0.56141  -0.55461  -0.54641
 Alpha  occ. eigenvalues --   -0.54336  -0.54054  -0.53564  -0.53201  -0.53009
 Alpha  occ. eigenvalues --   -0.52584  -0.52302  -0.52149  -0.51964  -0.50240
 Alpha  occ. eigenvalues --   -0.49633  -0.49230  -0.49020  -0.48713  -0.48694
 Alpha  occ. eigenvalues --   -0.47543  -0.47336  -0.47184  -0.46671  -0.46419
 Alpha  occ. eigenvalues --   -0.46296  -0.45898  -0.45451  -0.43934  -0.43807
 Alpha  occ. eigenvalues --   -0.43649  -0.43011  -0.42642  -0.41659  -0.41310
 Alpha  occ. eigenvalues --   -0.41050  -0.40827  -0.40482  -0.40152  -0.39487
 Alpha  occ. eigenvalues --   -0.38551  -0.34786  -0.33060  -0.32597  -0.32345
 Alpha virt. eigenvalues --    0.03358   0.03524   0.03604   0.03819   0.04123
 Alpha virt. eigenvalues --    0.04149   0.04361   0.04380   0.04561   0.05029
 Alpha virt. eigenvalues --    0.05092   0.05305   0.05445   0.05519   0.05578

 Mulliken charges:
               1
     1  C    0.929143
     2  C    0.744900
     3  C    1.099124
     4  C   -0.024762
     5  H   -0.845785
     6  C    0.310578
     7  C    0.812294
     8  H   -0.746514
     9  C    0.615015
    10  C    0.319876
    11  H   -1.084884
    12  C    1.308397
    13  H   -0.766912
    14  H   -0.733924
    15  C    0.906297
    16  C    0.197875
    17  C    0.306316
    18  C    1.168953
    19  H   -1.082617
    20  C    0.450714
    21  C    0.568466
    22  H   -0.864889
    23  C    0.030236
    24  C    0.399103
    25  H   -0.831026
    26  C    0.706075
    27  H   -0.714371
    28  C   -0.077693
    29  C   -0.044144
    30  N   -0.374681
    31  H   -0.297065
    32  C    0.760308
    33  N   -0.741605
    34  H   -0.355098
    35  C    0.760733
    36  H   -0.122669
    37  C    0.567877
    38  H   -0.104310
    39  C    0.493393
    40  H   -0.136098
    41  H   -0.084126
    42  H   -0.145043
    43  H   -0.082974
    44  O   -0.873687
    45  C   -0.202617
    46  C   -0.183965
    47  N   -0.354136
    48  H   -0.282927
    49  C    0.828497
    50  N   -0.620087
    51  H   -0.416847
    52  C    0.789319
    53  H   -0.109300
    54  C    0.530255
    55  H   -0.111434
    56  C    0.555400
    57  H   -0.082316
    58  H   -0.142811
    59  H   -0.145437
    60  H   -0.079559
    61  C    0.665222
    62  C   -0.531620
    63  N   -0.427124
    64  H   -0.207030
    65  C    0.628456
    66  N   -0.240868
    67  H   -0.326062
    68  C    0.857662
    69  H   -0.026080
    70  C    0.493735
    71  H   -0.148423
    72  C    0.612725
    73  H   -0.154894
    74  H   -0.104245
    75  H   -0.121783
    76  H   -0.107993
    77  H   -0.819811
    78  H   -0.016073
    79  H   -0.791911
    80  H   -0.301593
    81  H   -0.226922
    82  H   -0.192224
    83  H   -0.230819
    84  H   -0.190001
    85  H   -0.149801
    86  H   -0.220919
    87  H   -0.014439
 Sum of Mulliken charges =   0.00000

 Dipole moment (field-independent basis, Debye):
    X=             -1.0477    Y=              1.5211    Z=             -3.1237  Tot=              3.6289
 Quadrupole moment (field-independent basis, Debye-Ang):
   XX=           -249.0955   YY=           -238.8029   ZZ=           -287.3271
   XY=              5.2924   XZ=              7.0529   YZ=              6.1542

 Normal termination of Gaussian 16 at Tue Oct 26 02:21:18 2021.
