 Gaussian 16, Revision C.01,
 Gaussian 16:  ES64L-G16RevC.01  3-Jul-2019

 ----------------------------------------------------------------------
 #P MP2/aug-cc-pVDZ SP SCF=(YQC,MaxCycle=900) int=(Grid=Superfinegrid)
 SCRF=(PCM,Solvent=Dichloromethane)
 ----------------------------------------------------------------------

 -----------------------------
 _2_alde1_3_ami2_2_opt_dcm_mp2
 -----------------------------
 Symbolic Z-matrix:
 Charge =  0 Multiplicity = 1

                         Standard orientation:
 ---------------------------------------------------------------------
 Center     Atomic      Atomic             Coordinates (Angstroms)
 Number     Number       Type             X           Y           Z
 ---------------------------------------------------------------------
      1          6           0        3.231124    1.864318    0.232485
      2          6           0        2.544822    3.148296    0.369751
      3          6           0        4.524160    1.828132   -0.274926
      4          6           0        5.182629    0.610621   -0.452097
      5          1           0        5.040897    2.737375   -0.548189
      6          6           0        4.543056   -0.574009   -0.108008
      7          6           0        3.251446   -0.554065    0.418739
      8          1           0        5.030550   -1.528815   -0.234060
      9          6           0        2.602593    0.666521    0.582841
     10          6           0        2.600405   -1.810301    0.792077
     11          1           0        1.598463    0.714168    0.978034
     12          6           0        6.547064    0.593245   -0.998163
     13          1           0        1.655805   -1.705105    1.338113
     14          1           0        3.176169    4.028209    0.189171
     15          6           0       -0.998421    0.747095   -1.025324
     16          6           0       -0.552091    2.125497   -1.146916
     17          6           0       -0.095170   -0.268164   -1.332024
     18          6           0       -0.398383   -1.594359   -1.044305
     19          1           0        0.876647   -0.017462   -1.735700
     20          6           0       -1.649414   -1.911646   -0.520909
     21          6           0       -2.587443   -0.912510   -0.274457
     22          1           0       -1.869904   -2.946247   -0.305533
     23          6           0       -2.244956    0.419436   -0.503902
     24          6           0       -3.901068   -1.264734    0.245743
     25          1           0       -2.946597    1.201213   -0.264379
     26          6           0        0.641513   -2.603365   -1.184411
     27          1           0        1.494820   -2.337068   -1.827008
     28          6           0       -0.448389    4.331736   -0.480615
     29          6           0        0.514964    4.370356    0.745480
     30          7           0       -1.105727    3.066641   -0.515663
     31          1           0        0.149601    4.520133   -1.387540
     32          7           0        1.318855    3.186136    0.648275
     33          6           0       -0.302534    4.222654    2.033609
     34          8           0        7.175539    1.565696   -1.328900
     35          6           0        2.573231   -4.196673    0.751995
     36          6           0        1.713777   -4.547731   -0.505543
     37          7           0        3.146050   -2.908036    0.491424
     38          6           0        3.744660   -5.179930    0.837426
     39          7           0        0.584661   -3.686514   -0.536880
     40          1           0        1.363808   -5.576756   -0.405407
     41          6           0       -6.070699   -0.761794    0.945676
     42          6           0       -7.155021   -0.311860   -0.079679
     43          7           0       -4.780568   -0.390898    0.476513
     44          1           0       -6.164886   -1.844397    1.135889
     45          7           0       -7.052078    1.100799   -0.396921
     46          6           0       -8.538776   -0.574394    0.516176
     47          1           0        0.354052    2.275471   -1.755149
     48          1           0       -4.075271   -2.338011    0.422754
     49          1           0       -6.125114    1.298263   -0.758874
     50          1           0        6.975864   -0.424434   -1.088560
     51          1           0       -1.198287    5.116119   -0.363448
     52          6           0        1.269886    5.703487    0.740283
     53          6           0        1.705238   -4.290235    2.011002
     54          1           0        2.356888   -4.450348   -1.393277
     55          1           0       -6.244081   -0.220755    1.882463
     56          6           0       -6.984909   -1.100764   -1.379543
     57          1           0        3.384352   -6.203394    0.895150
     58          1           0        4.337381   -4.964184    1.723034
     59          1           0        4.381191   -5.074553   -0.036713
     60          1           0        0.563961    6.520324    0.862647
     61          1           0        1.804510    5.853122   -0.195920
     62          1           0        1.981532    5.734489    1.563355
     63          1           0       -7.127648   -2.164360   -1.205303
     64          1           0       -5.989378   -0.942278   -1.788489
     65          1           0       -7.715720   -0.758509   -2.106600
     66          1           0       -7.177523    1.660027    0.440287
     67          1           0        1.458731   -5.330452    2.205296
     68          1           0        0.777959   -3.738711    1.882800
     69          1           0        2.248756   -3.891803    2.865832
     70          1           0       -8.676894   -1.633385    0.717780
     71          1           0       -9.299743   -0.245281   -0.185716
     72          1           0       -8.666818   -0.023712    1.445764
     73          1           0        0.361258    4.206331    2.895036
     74          1           0       -0.860298    3.291865    1.995860
     75          1           0       -0.997449    5.051284    2.135799
 ---------------------------------------------------------------------

 SCF Done:  E(RHF) =  -1559.85987496     a.u. after    7 cycles
 SCF Done:  E(RHF) =  -1559.85991757     A.U. after   18 cycles
 E2 =    -0.5437411014D+01 EUMP2 =    -0.15652973285844D+04

 The electronic state is 1-A.
 Alpha  occ. eigenvalues --  -20.57583 -15.56307 -15.56254 -15.56179 -15.56067
 Alpha  occ. eigenvalues --  -15.55649 -15.53980 -11.35045 -11.29196 -11.29082
 Alpha  occ. eigenvalues --  -11.29064 -11.28796 -11.28485 -11.27045 -11.27024
 Alpha  occ. eigenvalues --  -11.26704 -11.26609 -11.26552 -11.26157 -11.25918
 Alpha  occ. eigenvalues --  -11.25886 -11.25833 -11.25823 -11.25667 -11.25559
 Alpha  occ. eigenvalues --  -11.25449 -11.25390 -11.25334 -11.25262 -11.25053
 Alpha  occ. eigenvalues --  -11.25005 -11.21934 -11.21522 -11.21463 -11.21331
 Alpha  occ. eigenvalues --  -11.21146 -11.21030  -1.41317  -1.27170  -1.26715
 Alpha  occ. eigenvalues --   -1.25422  -1.23912  -1.23374  -1.19252  -1.18491
 Alpha  occ. eigenvalues --   -1.17128  -1.09865  -1.08600  -1.06576  -1.05871
 Alpha  occ. eigenvalues --   -1.04991  -1.03217  -1.02439  -0.95444  -0.94899
 Alpha  occ. eigenvalues --   -0.94397  -0.94077  -0.94050  -0.93547  -0.90869
 Alpha  occ. eigenvalues --   -0.90410  -0.88697  -0.88058  -0.85935  -0.82340
 Alpha  occ. eigenvalues --   -0.81111  -0.78948  -0.76943  -0.75647  -0.74819
 Alpha  occ. eigenvalues --   -0.73966  -0.72917  -0.71962  -0.70554  -0.69166
 Alpha  occ. eigenvalues --   -0.68907  -0.67223  -0.66905  -0.65958  -0.65860
 Alpha  occ. eigenvalues --   -0.65570  -0.65064  -0.64744  -0.63560  -0.63117
 Alpha  occ. eigenvalues --   -0.62874  -0.62699  -0.62297  -0.61998  -0.61255
 Alpha  occ. eigenvalues --   -0.60998  -0.59785  -0.59476  -0.57295  -0.56653
 Alpha  occ. eigenvalues --   -0.56320  -0.56205  -0.55358  -0.55138  -0.54760
 Alpha  occ. eigenvalues --   -0.54095  -0.53786  -0.53683  -0.53461  -0.53101
 Alpha  occ. eigenvalues --   -0.52864  -0.52696  -0.52263  -0.52140  -0.51549
 Alpha  occ. eigenvalues --   -0.51194  -0.50696  -0.49910  -0.49857  -0.49165
 Alpha  occ. eigenvalues --   -0.48795  -0.48406  -0.46696  -0.46306  -0.45186
 Alpha  occ. eigenvalues --   -0.44032  -0.43793  -0.42925  -0.40930  -0.40802
 Alpha  occ. eigenvalues --   -0.40425  -0.40184  -0.39597  -0.38887  -0.37953
 Alpha  occ. eigenvalues --   -0.34843  -0.33308  -0.32673  -0.32155
 Alpha virt. eigenvalues --    0.03346   0.03627   0.03690   0.04102   0.04312
 Alpha virt. eigenvalues --    0.04509   0.04608   0.04795   0.04988   0.05053
 Alpha virt. eigenvalues --    0.05275   0.05641   0.05792   0.05996   0.06164

 Mulliken charges:
               1
     1  C    0.966678
     2  C   -0.104813
     3  C   -0.147247
     4  C    0.471722
     5  H   -0.756859
     6  C    0.550752
     7  C    1.277135
     8  H   -0.825820
     9  C    0.277632
    10  C    0.119363
    11  H   -1.079356
    12  C    1.167711
    13  H   -0.830478
    14  H   -0.745696
    15  C    1.000253
    16  C    0.660282
    17  C    0.387805
    18  C    0.886172
    19  H   -0.964843
    20  C    0.593535
    21  C    0.866250
    22  H   -0.892834
    23  C   -0.017136
    24  C    0.542410
    25  H   -0.994566
    26  C    0.877823
    27  H   -0.574781
    28  C    1.370992
    29  C   -3.200202
    30  N   -0.630496
    31  H   -0.139875
    32  N    0.424426
    33  C    1.399882
    34  O   -0.868541
    35  C   -3.425864
    36  C    1.413267
    37  N   -0.333004
    38  C    1.500695
    39  N   -0.660258
    40  H   -0.262441
    41  C    1.583724
    42  C   -3.596560
    43  N   -0.397489
    44  H   -0.139909
    45  N   -0.090513
    46  C    1.450153
    47  H   -0.632527
    48  H   -0.683633
    49  H    0.023358
    50  H   -0.300347
    51  H   -0.242058
    52  C    1.528908
    53  C    1.523256
    54  H   -0.143335
    55  H   -0.263523
    56  C    1.438269
    57  H   -0.055811
    58  H   -0.006728
    59  H   -0.018526
    60  H   -0.173965
    61  H    0.017913
    62  H    0.088261
    63  H   -0.001495
    64  H   -0.011142
    65  H   -0.041241
    66  H    0.002366
    67  H   -0.108220
    68  H    0.044404
    69  H    0.029102
    70  H    0.008597
    71  H    0.036434
    72  H   -0.045596
    73  H   -0.090148
    74  H   -0.008371
    75  H   -0.023278
 Sum of Mulliken charges =   0.00000

 Dipole moment (field-independent basis, Debye):
    X=              0.7431    Y=             -2.4047    Z=              1.5298  Tot=              2.9454
 Quadrupole moment (field-independent basis, Debye-Ang):
   XX=           -271.6298   YY=           -206.2030   ZZ=           -226.8473
   XY=              0.8612   XZ=             -5.7598   YZ=              2.6467

 Normal termination of Gaussian 16 at Tue Oct 26 06:21:05 2021.
