 Gaussian 16, Revision C.01,
 Gaussian 16:  ES64L-G16RevC.01  3-Jul-2019

 ---------------------------------------------------------------------
 #P MP2/aug-cc-pVDZ SP SCF=(YQC,MaxCycle=900) int=(Grid=Superfinegrid)
 ---------------------------------------------------------------------

 -----------------------------
 _2_alde1_4_ami3_2_opt_gas_mp2
 -----------------------------
 Symbolic Z-matrix:
 Charge =  0 Multiplicity = 1

                         Standard orientation:
 ---------------------------------------------------------------------
 Center     Atomic      Atomic             Coordinates (Angstroms)
 Number     Number       Type             X           Y           Z
 ---------------------------------------------------------------------
      1          6           0        2.284012   -0.154844    1.711568
      2          6           0        1.801929   -1.037295    2.765853
      3          6           0        3.080855   -0.641537    0.682370
      4          6           0        3.463035    0.187897   -0.373296
      5          1           0        3.427048   -1.663959    0.680311
      6          6           0        2.995392    1.496891   -0.418378
      7          6           0        2.194541    1.997730    0.606903
      8          1           0        3.238003    2.146494   -1.245578
      9          6           0        1.872363    1.176514    1.681196
     10          6           0        1.620556    3.332347    0.540692
     11          1           0        1.265240    1.539540    2.495157
     12          6           0        4.329946   -0.314347   -1.430683
     13          1           0        1.120780    3.673869    1.459720
     14          1           0        1.858785   -2.114873    2.544484
     15          1           0        4.569714    0.400495   -2.232701
     16          6           0       -1.973166    0.433572    1.944117
     17          6           0       -1.430993    0.269539    3.283586
     18          6           0       -1.658628    1.580059    1.223826
     19          6           0       -2.035732    1.709988   -0.111701
     20          1           0       -1.082717    2.375579    1.669386
     21          6           0       -2.792267    0.705709   -0.702942
     22          6           0       -3.169909   -0.423289    0.025443
     23          1           0       -3.104210    0.779780   -1.733659
     24          6           0       -2.733975   -0.565047    1.338504
     25          6           0       -4.000364   -1.458119   -0.580503
     26          1           0       -2.971796   -1.448143    1.912013
     27          6           0       -1.558924    2.844496   -0.891679
     28          1           0       -4.199885   -2.322952    0.063259
     29          1           0       -1.577937    2.709479   -1.984761
     30          6           0       -0.696366   -0.929112    5.117753
     31          6           0        0.706348   -1.488837    4.776763
     32          7           0       -1.429610   -0.836566    3.891774
     33          7           0        1.304251   -0.594142    3.836008
     34          6           0        5.639584   -1.951121   -2.465568
     35          6           0        4.967679   -3.151015   -3.156955
     36          7           0        4.780496   -1.492275   -1.418262
     37          7           0        3.769981   -2.678786   -3.838125
     38          6           0        0.867182    5.241785   -0.521304
     39          6           0       -0.510972    4.914168   -1.146411
     40          7           0        1.629988    4.030861   -0.510517
     41          7           0       -1.106543    3.888361   -0.348863
     42          6           0       -6.630297   -1.517378   -2.721970
     43          6           0       -5.298962   -2.262744   -2.411979
     44          7           0       -6.445333   -0.248824   -3.395635
     45          7           0       -4.438808   -1.328689   -1.756190
     46          1           0       -0.964289    1.168449    3.713568
     47          1           0        3.140430   -2.244680   -3.170899
     48          1           0        3.281024   -3.457196   -4.267217
     49          1           0       -5.829928    0.337634   -2.841696
     50          1           0       -5.993658   -0.397620   -4.292960
     51          6           0       -7.535950   -2.416080   -3.562660
     52          6           0        5.914036   -3.763371   -4.188796
     53          6           0       -1.370514    6.179862   -1.145172
     54          6           0       -1.388824   -1.858297    6.109641
     55          1           0        4.746025   -3.900057   -2.375021
     56          6           0        7.235452   -4.180268   -3.554375
     57          1           0        6.090670   -3.023217   -4.971092
     58          1           0        5.429138   -4.627081   -4.649733
     59          6           0        7.900105   -2.982030   -2.885954
     60          1           0        7.895336   -4.598276   -4.317211
     61          1           0        7.051908   -4.956020   -2.807074
     62          6           0        6.971280   -2.379241   -1.840010
     63          1           0        8.134648   -2.229047   -3.641688
     64          1           0        8.835666   -3.286980   -2.412689
     65          1           0        7.436943   -1.509644   -1.371201
     66          1           0        6.762780   -3.110425   -1.056749
     67          1           0        5.814154   -1.169969   -3.226885
     68          1           0       -7.119995   -1.300204   -1.764198
     69          6           0       -7.807866   -3.742553   -2.862858
     70          1           0       -7.054197   -2.601722   -4.526169
     71          1           0       -8.468949   -1.884231   -3.752957
     72          6           0       -6.497530   -4.461540   -2.558403
     73          1           0       -8.439761   -4.370423   -3.493946
     74          1           0       -8.344852   -3.557092   -1.929814
     75          6           0       -5.596584   -3.583484   -1.696363
     76          1           0       -5.986338   -4.699572   -3.494550
     77          1           0       -6.699113   -5.401496   -2.040038
     78          1           0       -4.813983   -2.476072   -3.376431
     79          1           0       -4.659098   -4.104604   -1.483962
     80          1           0       -6.098630   -3.376926   -0.747634
     81          1           0       -0.356162    4.579381   -2.187897
     82          6           0       -0.686282    7.282182   -1.947038
     83          1           0       -1.524906    6.500118   -0.113358
     84          1           0       -2.347276    5.947004   -1.575354
     85          6           0        0.699110    7.585269   -1.382754
     86          1           0       -1.301419    8.184081   -1.927592
     87          1           0       -0.590892    6.963816   -2.987875
     88          6           0        1.556509    6.324269   -1.345841
     89          1           0        0.678038    5.606696    0.503704
     90          1           0        1.719685    5.945171   -2.355986
     91          1           0        2.532172    6.541056   -0.906808
     92          1           0        0.597464    7.981604   -0.369711
     93          1           0        1.189292    8.346914   -1.992432
     94          1           0       -0.544945    0.066422    5.571061
     95          6           0       -0.561998   -1.977393    7.385978
     96          1           0       -1.513989   -2.837526    5.644580
     97          1           0       -2.381513   -1.464396    6.335659
     98          6           0        0.845844   -2.478180    7.074927
     99          1           0       -1.053411   -2.660567    8.081455
    100          1           0       -0.498906   -0.998244    7.866787
    101          6           0        1.534127   -1.570149    6.060979
    102          1           0        0.787825   -3.491222    6.669813
    103          1           0        1.437587   -2.517395    7.991712
    104          1           0        2.528103   -1.953761    5.819805
    105          1           0        1.651312   -0.564653    6.468866
    106          1           0        0.589338   -2.502959    4.353846
 ---------------------------------------------------------------------

 SCF Done:  E(RHF) =  -2058.87956344     a.u. after    6 cycles
 SCF Done:  E(RHF) =  -2058.87971733     A.U. after   20 cycles
 E2 =    -0.7309350764D+01 EUMP2 =    -0.20661890680963D+04

 The electronic state is 1-A.
 Alpha  occ. eigenvalues --  -15.55954 -15.55930 -15.55929 -15.55898 -15.55515
 Alpha  occ. eigenvalues --  -15.55466 -15.54039 -15.53364 -11.28608 -11.28581
 Alpha  occ. eigenvalues --  -11.28536 -11.28510 -11.28208 -11.28162 -11.25718
 Alpha  occ. eigenvalues --  -11.25643 -11.25515 -11.25421 -11.25355 -11.25170
 Alpha  occ. eigenvalues --  -11.25110 -11.25048 -11.25045 -11.25030 -11.25020
 Alpha  occ. eigenvalues --  -11.24996 -11.24990 -11.24978 -11.24810 -11.24807
 Alpha  occ. eigenvalues --  -11.24779 -11.24773 -11.24716 -11.24708 -11.22508
 Alpha  occ. eigenvalues --  -11.22438 -11.22285 -11.22221 -11.22189 -11.22154
 Alpha  occ. eigenvalues --  -11.22129 -11.22109 -11.22061 -11.21906 -11.21871
 Alpha  occ. eigenvalues --  -11.21848 -11.21779 -11.21754 -11.21682 -11.21645
 Alpha  occ. eigenvalues --   -1.26492  -1.26297  -1.25328  -1.25102  -1.23412
 Alpha  occ. eigenvalues --   -1.22982  -1.18492  -1.18326  -1.17055  -1.16347
 Alpha  occ. eigenvalues --   -1.11804  -1.11170  -1.10048  -1.09895  -1.05860
 Alpha  occ. eigenvalues --   -1.05838  -1.05665  -1.05607  -1.00758  -1.00445
 Alpha  occ. eigenvalues --   -1.00171  -0.99847  -0.99470  -0.98865  -0.97500
 Alpha  occ. eigenvalues --   -0.97462  -0.90151  -0.89668  -0.89346  -0.88498
 Alpha  occ. eigenvalues --   -0.88254  -0.86696  -0.83539  -0.83134  -0.82927
 Alpha  occ. eigenvalues --   -0.82313  -0.81799  -0.81634  -0.80616  -0.79930
 Alpha  occ. eigenvalues --   -0.77597  -0.77002  -0.76765  -0.76079  -0.75055
 Alpha  occ. eigenvalues --   -0.74695  -0.74191  -0.73451  -0.70680  -0.70148
 Alpha  occ. eigenvalues --   -0.69318  -0.68905  -0.67148  -0.67049  -0.66389
 Alpha  occ. eigenvalues --   -0.65702  -0.65584  -0.65230  -0.64963  -0.64862
 Alpha  occ. eigenvalues --   -0.64122  -0.63504  -0.62878  -0.62683  -0.62469
 Alpha  occ. eigenvalues --   -0.62148  -0.61626  -0.61257  -0.60918  -0.60568
 Alpha  occ. eigenvalues --   -0.59992  -0.59906  -0.59323  -0.59104  -0.59039
 Alpha  occ. eigenvalues --   -0.57650  -0.57569  -0.57390  -0.56638  -0.56209
 Alpha  occ. eigenvalues --   -0.56038  -0.55517  -0.55370  -0.54398  -0.54036
 Alpha  occ. eigenvalues --   -0.53811  -0.53652  -0.53003  -0.52647  -0.52451
 Alpha  occ. eigenvalues --   -0.52181  -0.52039  -0.51616  -0.51462  -0.50224
 Alpha  occ. eigenvalues --   -0.49932  -0.49436  -0.49107  -0.48930  -0.48659
 Alpha  occ. eigenvalues --   -0.48611  -0.48448  -0.47221  -0.47160  -0.47015
 Alpha  occ. eigenvalues --   -0.46863  -0.46756  -0.46484  -0.46386  -0.46340
 Alpha  occ. eigenvalues --   -0.45981  -0.45440  -0.44985  -0.44266  -0.43691
 Alpha  occ. eigenvalues --   -0.43472  -0.42783  -0.42419  -0.40860  -0.40603
 Alpha  occ. eigenvalues --   -0.40436  -0.40347  -0.39870  -0.39297  -0.39034
 Alpha  occ. eigenvalues --   -0.38823  -0.38143  -0.37038  -0.32385  -0.32102
 Alpha  occ. eigenvalues --   -0.32020  -0.31494
 Alpha virt. eigenvalues --    0.02844   0.03251   0.03391   0.03480   0.03749
 Alpha virt. eigenvalues --    0.03849   0.03911   0.04034   0.04128   0.04393
 Alpha virt. eigenvalues --    0.04683   0.04833   0.04881   0.05236   0.05264

 Mulliken charges:
               1
     1  C    0.776607
     2  C    0.274378
     3  C    0.192709
     4  C    0.430306
     5  H   -0.850506
     6  C    0.741342
     7  C    0.889627
     8  H   -0.856117
     9  C    0.532046
    10  C    0.844529
    11  H   -1.111909
    12  C    0.276838
    13  H   -0.695970
    14  H   -0.806329
    15  H   -0.806146
    16  C    1.031025
    17  C    0.678872
    18  C    0.472718
    19  C    0.841647
    20  H   -1.115450
    21  C    0.192801
    22  C    0.332886
    23  H   -0.805831
    24  C    0.778289
    25  C    0.542098
    26  H   -0.870389
    27  C    0.221741
    28  H   -0.761139
    29  H   -0.805378
    30  C   -0.131653
    31  C   -0.266074
    32  N   -0.501135
    33  N   -0.330798
    34  C   -0.456433
    35  C    0.595819
    36  N   -0.202557
    37  N   -0.356111
    38  C   -0.202665
    39  C   -0.248803
    40  N   -0.551448
    41  N   -0.326463
    42  C    0.186986
    43  C    0.334421
    44  N   -0.375762
    45  N   -0.509148
    46  H   -0.696242
    47  H   -0.022612
    48  H   -0.032914
    49  H   -0.002473
    50  H    0.026359
    51  C    0.754722
    52  C    0.644178
    53  C    0.839874
    54  C    0.810963
    55  H   -0.209488
    56  C    0.493424
    57  H   -0.019445
    58  H   -0.155478
    59  C    0.620367
    60  H   -0.156007
    61  H   -0.108296
    62  C    0.847877
    63  H   -0.113535
    64  H   -0.123652
    65  H   -0.221635
    66  H   -0.133206
    67  H   -0.309076
    68  H   -0.292461
    69  C    0.445346
    70  H   -0.101593
    71  H   -0.111267
    72  C    0.469189
    73  H   -0.161852
    74  H   -0.099142
    75  C    0.661705
    76  H   -0.076796
    77  H   -0.113288
    78  H   -0.364193
    79  H   -0.206116
    80  H   -0.156465
    81  H   -0.324254
    82  C    0.539582
    83  H   -0.106730
    84  H   -0.238616
    85  C    0.528993
    86  H   -0.145304
    87  H   -0.082073
    88  C    0.847351
    89  H   -0.425567
    90  H   -0.104336
    91  H   -0.182982
    92  H   -0.079447
    93  H   -0.149627
    94  H   -0.409638
    95  C    0.522073
    96  H   -0.105310
    97  H   -0.186093
    98  C    0.542095
    99  H   -0.149483
   100  H   -0.077529
   101  C    0.832827
   102  H   -0.080816
   103  H   -0.145776
   104  H   -0.234150
   105  H   -0.108618
   106  H   -0.326819
 Sum of Mulliken charges =   0.00000

 Dipole moment (field-independent basis, Debye):
    X=              0.8129    Y=             -1.8970    Z=              0.6953  Tot=              2.1778
 Quadrupole moment (field-independent basis, Debye-Ang):
   XX=           -320.5126   YY=           -285.7174   ZZ=           -299.9051
   XY=              7.1052   XZ=             -4.4126   YZ=              1.4180

 Normal termination of Gaussian 16 at Tue Oct 26 13:22:37 2021.
