 Gaussian 16, Revision C.01,
 Gaussian 16:  ES64L-G16RevC.01  3-Jul-2019

 ----------------------------------------------------------------------
 #P PBE1PBE/Def2TZVP SP SCF=(YQC,MaxCycle=900) int=(Grid=Superfinegrid)
  EmpiricalDispersion=GD3 SCRF=(PCM,Solvent=Chloroform)
 ----------------------------------------------------------------------

 -------------------------
 _2_alde1_3_ami3_2_opt_cfm
 -------------------------
 Symbolic Z-matrix:
 Charge =  0 Multiplicity = 1

                         Standard orientation:
 ---------------------------------------------------------------------
 Center     Atomic      Atomic             Coordinates (Angstroms)
 Number     Number       Type             X           Y           Z
 ---------------------------------------------------------------------
      1          6           0       -2.733332    1.064861    1.458540
      2          6           0       -3.098842    2.080956    0.483710
      3          6           0       -2.252880    1.408999    2.720559
      4          6           0       -1.801249    0.421646    3.589953
      5          1           0       -2.228693    2.451637    2.998621
      6          6           0       -1.791499   -0.913578    3.182433
      7          6           0       -2.275932   -1.270832    1.929911
      8          1           0       -1.402544   -1.657908    3.862516
      9          6           0       -2.769927   -0.275789    1.087671
     10          6           0       -2.177503   -2.645209    1.454472
     11          1           0       -3.148138   -0.572253    0.121799
     12          6           0       -1.302212    0.777426    4.925735
     13          1           0       -1.471388   -3.285483    2.005364
     14          1           0       -3.534902    1.699448   -0.451233
     15          6           0        0.370106    1.276524   -1.259817
     16          6           0       -0.071791    2.651466   -1.072127
     17          6           0       -0.555953    0.287385   -1.587522
     18          6           0       -0.185904   -1.052238   -1.618581
     19          1           0       -1.574297    0.586955   -1.779390
     20          6           0        1.143418   -1.399413   -1.381653
     21          6           0        2.089750   -0.419158   -1.103703
     22          1           0        1.414743   -2.443672   -1.408756
     23          6           0        1.690553    0.915621   -1.019684
     24          6           0        3.480151   -0.789436   -0.874747
     25          1           0        2.434595    1.656126   -0.768385
     26          6           0       -1.214617   -2.063749   -1.796689
     27          1           0       -2.210563   -1.676637   -2.062048
     28          6           0       -1.651914    4.365199   -1.118396
     29          6           0       -3.041116    4.191534   -0.452630
     30          7           0       -1.192560    3.061216   -1.479866
     31          1           0       -0.973163    4.846844   -0.391440
     32          6           0       -1.801394    5.265120   -2.345493
     33          7           0       -2.860948    3.308331    0.657517
     34          1           0       -3.711820    3.751830   -1.211848
     35          6           0       -3.566704    5.553626   -0.012677
     36          1           0       -2.472468    4.782693   -3.058048
     37          6           0       -2.351724    6.626928   -1.933189
     38          1           0       -2.879699    5.975837    0.722426
     39          6           0       -3.692346    6.480217   -1.218101
     40          1           0       -2.469514    7.256617   -2.817275
     41          1           0       -1.638100    7.116223   -1.266118
     42          1           0       -4.048475    7.460054   -0.894134
     43          1           0       -4.428915    6.069331   -1.912640
     44          8           0       -0.868566    0.000395    5.737152
     45          6           0       -2.550878   -4.354241   -0.084364
     46          6           0       -2.147025   -4.165407   -1.568849
     47          7           0       -2.814553   -3.054451    0.446676
     48          1           0       -1.715152   -4.845983    0.445186
     49          6           0       -3.791342   -5.245465   -0.017593
     50          7           0       -1.013897   -3.292148   -1.586728
     51          1           0       -3.012109   -3.713192   -2.086226
     52          6           0       -1.821392   -5.523767   -2.180877
     53          1           0       -4.610394   -4.750942   -0.542506
     54          6           0       -3.496153   -6.602375   -0.648918
     55          1           0       -0.976460   -5.958041   -1.644235
     56          6           0       -3.036190   -6.442491   -2.095663
     57          1           0       -2.713833   -7.103735   -0.074385
     58          1           0       -4.391509   -7.225980   -0.610497
     59          1           0       -2.789506   -7.419406   -2.515788
     60          1           0       -3.850221   -6.018904   -2.688597
     61          6           0        6.076854   -0.001997    1.102274
     62          6           0        5.712234   -0.324508   -0.359153
     63          7           0        5.290890   -0.864025    1.973834
     64          1           0        5.870828    1.071703    1.264706
     65          6           0        7.560564   -0.274151    1.346818
     66          7           0        4.356318    0.069739   -0.583597
     67          1           0        5.856961   -1.408366   -0.514786
     68          6           0        6.607789    0.469083   -1.315736
     69          1           0        7.736382   -1.343845    1.220425
     70          6           0        8.439070    0.517982    0.385970
     71          1           0        6.403717    1.531857   -1.173615
     72          6           0        8.080447    0.179072   -1.056548
     73          1           0        9.490030    0.290822    0.574875
     74          1           0        8.290626    1.587245    0.554368
     75          1           0        8.695280    0.763611   -1.743905
     76          1           0        8.281232   -0.878632   -1.241306
     77          1           0        0.617523    3.295474   -0.503628
     78          1           0        4.300495   -0.704150    1.821189
     79          1           0        3.712850   -1.860724   -0.972085
     80          1           0       -1.356035    1.862477    5.144322
     81          1           0       -0.826377    5.378530   -2.824400
     82          1           0       -4.537532    5.424312    0.469469
     83          1           0       -4.085980   -5.368663    1.026909
     84          1           0       -1.522924   -5.384297   -3.221665
     85          1           0        7.804957   -0.015394    2.379728
     86          1           0        6.342710    0.211231   -2.343260
     87          1           0        5.492859   -0.657517    2.946213
 ---------------------------------------------------------------------

 SCF Done:  E(RPBE1PBE) =  -1800.63273361     a.u. after    6 cycles
 SCF Done:  E(RPBE1PBE) =  -1800.63275332     A.U. after    8 cycles

 The electronic state is 1-A.
 Alpha  occ. eigenvalues --  -19.21224 -14.38262 -14.38017 -14.37987 -14.37917
 Alpha  occ. eigenvalues --  -14.37718 -14.35737 -10.31690 -10.27147 -10.26919
 Alpha  occ. eigenvalues --  -10.26887 -10.26719 -10.26622 -10.25431 -10.25425
 Alpha  occ. eigenvalues --  -10.25216 -10.25214 -10.25198 -10.25157 -10.25141
 Alpha  occ. eigenvalues --  -10.25067 -10.25011 -10.24970 -10.24631 -10.24541
 Alpha  occ. eigenvalues --  -10.24538 -10.24526 -10.24492 -10.24058 -10.24039
 Alpha  occ. eigenvalues --  -10.23995 -10.21791 -10.21789 -10.21557 -10.21532
 Alpha  occ. eigenvalues --  -10.21505 -10.21480 -10.21455 -10.21426 -10.21266
 Alpha  occ. eigenvalues --  -10.21164 -10.21114 -10.21027  -1.08972  -0.98265
 Alpha  occ. eigenvalues --   -0.98123  -0.96919  -0.95523  -0.95142  -0.91391
 Alpha  occ. eigenvalues --   -0.91055  -0.89901  -0.86123  -0.85551  -0.84262
 Alpha  occ. eigenvalues --   -0.81637  -0.81548  -0.81054  -0.81012  -0.76955
 Alpha  occ. eigenvalues --   -0.76621  -0.76508  -0.75873  -0.75573  -0.74142
 Alpha  occ. eigenvalues --   -0.69159  -0.68951  -0.68348  -0.67669  -0.67382
 Alpha  occ. eigenvalues --   -0.66081  -0.63189  -0.62883  -0.62669  -0.62076
 Alpha  occ. eigenvalues --   -0.61682  -0.60774  -0.58594  -0.58469  -0.57550
 Alpha  occ. eigenvalues --   -0.57295  -0.56742  -0.56233  -0.56106  -0.54560
 Alpha  occ. eigenvalues --   -0.53738  -0.53067  -0.52614  -0.51475  -0.50758
 Alpha  occ. eigenvalues --   -0.50411  -0.49796  -0.49687  -0.49311  -0.48936
 Alpha  occ. eigenvalues --   -0.48335  -0.47863  -0.47556  -0.47293  -0.47135
 Alpha  occ. eigenvalues --   -0.46417  -0.46167  -0.45713  -0.45442  -0.45330
 Alpha  occ. eigenvalues --   -0.44584  -0.44400  -0.44291  -0.44174  -0.43956
 Alpha  occ. eigenvalues --   -0.43617  -0.42418  -0.42256  -0.41919  -0.41321
 Alpha  occ. eigenvalues --   -0.40689  -0.40388  -0.40149  -0.39786  -0.39401
 Alpha  occ. eigenvalues --   -0.39070  -0.38988  -0.38223  -0.38110  -0.37162
 Alpha  occ. eigenvalues --   -0.36734  -0.36419  -0.36246  -0.36162  -0.36084
 Alpha  occ. eigenvalues --   -0.35974  -0.35749  -0.35719  -0.34532  -0.34124
 Alpha  occ. eigenvalues --   -0.33924  -0.33696  -0.33504  -0.32558  -0.32251
 Alpha  occ. eigenvalues --   -0.31953  -0.31545  -0.31292  -0.29667  -0.28593
 Alpha  occ. eigenvalues --   -0.27908  -0.27807  -0.27673  -0.27397  -0.27302
 Alpha  occ. eigenvalues --   -0.27075  -0.26218  -0.26085  -0.25713  -0.25160
 Alpha virt. eigenvalues --   -0.07729  -0.06822  -0.06154  -0.05730  -0.03238
 Alpha virt. eigenvalues --   -0.01746   0.04236   0.04752   0.04760   0.04925
 Alpha virt. eigenvalues --    0.05026   0.05054   0.05242   0.05296   0.05948

 Mulliken charges:
               1
     1  C    0.351336
     2  C   -0.156348
     3  C   -0.336842
     4  C    0.258963
     5  H    0.131633
     6  C   -0.340008
     7  C    0.312465
     8  H    0.141131
     9  C   -0.283449
    10  C   -0.149387
    11  H    0.134960
    12  C    0.070309
    13  H    0.091157
    14  H    0.101374
    15  C    0.322271
    16  C   -0.159739
    17  C   -0.297217
    18  C    0.359136
    19  H    0.132580
    20  C   -0.378941
    21  C    0.371737
    22  H    0.122529
    23  C   -0.364467
    24  C   -0.177243
    25  H    0.124944
    26  C   -0.169471
    27  H    0.098809
    28  C    0.016548
    29  C    0.044898
    30  N   -0.196634
    31  H    0.056711
    32  C   -0.196627
    33  N   -0.202313
    34  H    0.062010
    35  C   -0.171558
    36  H    0.105644
    37  C   -0.179141
    38  H    0.101342
    39  C   -0.194281
    40  H    0.113774
    41  H    0.094109
    42  H    0.113412
    43  H    0.094574
    44  O   -0.319873
    45  C    0.021055
    46  C    0.042818
    47  N   -0.195343
    48  H    0.058098
    49  C   -0.194873
    50  N   -0.200840
    51  H    0.060546
    52  C   -0.174409
    53  H    0.105384
    54  C   -0.180401
    55  H    0.102095
    56  C   -0.192917
    57  H    0.094531
    58  H    0.113744
    59  H    0.113309
    60  H    0.094172
    61  C    0.036913
    62  C    0.056037
    63  N   -0.553183
    64  H    0.079761
    65  C   -0.213016
    66  N   -0.211741
    67  H    0.044621
    68  C   -0.194689
    69  H    0.099461
    70  C   -0.193759
    71  H    0.099940
    72  C   -0.179510
    73  H    0.110819
    74  H    0.092116
    75  H    0.111263
    76  H    0.093078
    77  H    0.086431
    78  H    0.232160
    79  H    0.095782
    80  H    0.095885
    81  H    0.113395
    82  H    0.109348
    83  H    0.113129
    84  H    0.109442
    85  H    0.106984
    86  H    0.110507
    87  H    0.227041
 Sum of Mulliken charges =   0.00000

 Dipole moment (field-independent basis, Debye):
    X=             -0.9596    Y=              1.2303    Z=             -2.9895  Tot=              3.3722
 Quadrupole moment (field-independent basis, Debye-Ang):
   XX=           -242.5436   YY=           -230.6631   ZZ=           -278.7031
   XY=              5.6226   XZ=              7.2609   YZ=              4.0485

 Normal termination of Gaussian 16 at Mon Oct 18 00:58:34 2021.
