 Gaussian 16, Revision C.01,
 Gaussian 16:  ES64L-G16RevC.01  3-Jul-2019

 ----------------------------------------------------------------------
 #P PBE1PBE/Def2TZVP SP SCF=(YQC,MaxCycle=900) int=(Grid=Superfinegrid)
  EmpiricalDispersion=GD3
 ----------------------------------------------------------------------

 -------------------------
 _2_alde1_4_ami3_1_opt_gas
 -------------------------
 Symbolic Z-matrix:
 Charge =  0 Multiplicity = 1

                         Standard orientation:
 ---------------------------------------------------------------------
 Center     Atomic      Atomic             Coordinates (Angstroms)
 Number     Number       Type             X           Y           Z
 ---------------------------------------------------------------------
      1          6           0        1.850040    1.154403   -1.930407
      2          6           0        2.751299    2.146725   -1.368995
      3          6           0        0.663136    1.522196   -2.563079
      4          6           0       -0.233611    0.555370   -2.995045
      5          1           0        0.449819    2.571043   -2.699353
      6          6           0        0.035609   -0.784404   -2.757720
      7          6           0        1.218443   -1.169613   -2.128508
      8          1           0       -0.682049   -1.524949   -3.077385
      9          6           0        2.132742   -0.194276   -1.743991
     10          6           0        1.448200   -2.563211   -1.776955
     11          1           0        3.045528   -0.510249   -1.264189
     12          6           0       -1.518658    0.990203   -3.662143
     13          1           0        0.552673   -3.206017   -1.785907
     14          1           0        3.692414    1.744827   -0.963119
     15          6           0        1.218165    1.169815    2.128516
     16          6           0        1.447609    2.563473    1.776882
     17          6           0        2.132655    0.194691    1.743876
     18          6           0        1.850184   -1.154052    1.930306
     19          1           0        3.045388    0.510753    1.264128
     20          6           0        0.663391   -1.522173    2.563040
     21          6           0       -0.233471   -0.555514    2.994959
     22          1           0        0.450233   -2.571030    2.699318
     23          6           0        0.035433    0.784311    2.757775
     24          6           0       -1.518471   -0.990520    3.662203
     25          1           0       -0.682394    1.524741    3.077435
     26          6           0        2.751726   -2.146168    1.368902
     27          1           0        3.692633   -1.744113    0.962971
     28          6           0        2.702833    4.325049    0.912894
     29          6           0        3.322787    4.210093   -0.503218
     30          7           0        2.578429    2.997392    1.426078
     31          7           0        2.458033    3.371046   -1.274739
     32          6           0       -3.436822   -0.159419   -3.066633
     33          6           0       -3.650815    1.339618   -2.794138
     34          7           0       -2.354662   -0.161579   -4.040028
     35          7           0       -2.296201    1.868684   -2.755693
     36          6           0        2.703775   -4.324576   -0.912840
     37          6           0        3.323659   -4.209488    0.503195
     38          7           0        2.579050   -2.996913   -1.425968
     39          7           0        2.458696   -3.370590    1.274740
     40          6           0       -3.650524   -1.340334    2.794076
     41          6           0       -3.436824    0.158812    3.066760
     42          7           0       -2.295870   -1.869135    2.755732
     43          7           0       -2.354698    0.160946    4.040140
     44          1           0        0.551935    3.206086    1.785827
     45          1           0       -1.919490   -1.798167    1.813807
     46          1           0       -1.264889   -1.570151    4.561026
     47          1           0       -2.735229    0.025159    4.971285
     48          1           0       -1.919805    1.797709   -1.813737
     49          1           0       -2.735236   -0.025933   -4.971274
     50          1           0       -1.265154    1.569786   -4.561102
     51          6           0       -4.747827    0.819612    3.439606
     52          6           0       -4.538997    1.528838   -1.581858
     53          6           0        3.620899    5.178329    1.788138
     54          6           0        3.450905   -5.600709    1.115020
     55          1           0        1.717793    4.818654    0.822556
     56          6           0        3.449689    5.601373   -1.114935
     57          1           0        4.322740    3.755801   -0.383258
     58          6           0        4.336453    6.481321   -0.239307
     59          1           0        2.453540    6.036521   -1.208221
     60          1           0        3.873233    5.513739   -2.117354
     61          6           0        3.782982    6.568117    1.180603
     62          1           0        4.405839    7.481468   -0.671741
     63          1           0        5.343790    6.059350   -0.208542
     64          1           0        2.810942    7.066711    1.159338
     65          1           0        4.451860    7.164915    1.804279
     66          1           0        4.589850    4.683210    1.870719
     67          1           0        3.192718    5.249450    2.790519
     68          1           0       -4.140789    1.788277   -3.671693
     69          6           0       -5.878324    0.847485   -1.881872
     70          1           0       -4.692167    2.588745   -1.371848
     71          1           0       -4.068197    1.071333   -0.707325
     72          6           0       -5.712752   -0.626540   -2.264951
     73          1           0       -6.362902    1.378102   -2.704727
     74          1           0       -6.531701    0.920853   -1.010159
     75          6           0       -4.747782   -0.820520   -3.439523
     76          1           0       -6.689435   -1.041662   -2.521236
     77          1           0       -5.332683   -1.181375   -1.404344
     78          1           0       -5.154066   -0.354965   -4.341125
     79          1           0       -4.605588   -1.883724   -3.639532
     80          1           0       -3.040811   -0.627615   -2.152960
     81          1           0       -3.040840    0.627087    2.153088
     82          6           0       -5.712759    0.625646    2.264928
     83          1           0       -4.605803    1.882943    3.639599
     84          1           0       -5.154083    0.353996    4.341035
     85          6           0       -5.878145   -0.848415    1.881844
     86          1           0       -5.332740    1.180508    1.404369
     87          1           0       -6.689509    1.040640    2.521201
     88          6           0       -4.538714   -1.529630    1.581749
     89          1           0       -6.531438   -0.921879    1.010001
     90          1           0       -6.362662   -1.379119    2.704652
     91          1           0       -4.691707   -2.589441    1.371756
     92          1           0       -4.067959   -1.071933    0.707349
     93          1           0       -4.140513   -1.789075    3.671602
     94          1           0        4.323547   -3.755016    0.383256
     95          6           0        3.621971   -5.177582   -1.788134
     96          1           0        1.718755   -4.818318   -0.822523
     97          6           0        3.784352   -6.567369   -1.180640
     98          1           0        4.590843   -4.682231   -1.870659
     99          1           0        3.193852   -5.248764   -2.790492
    100          6           0        4.337735   -6.480500    0.239361
    101          1           0        4.453317   -7.164038   -1.804254
    102          1           0        2.812437   -7.066219   -1.159283
    103          1           0        5.345068   -6.058233    0.208576
    104          1           0        4.407416   -7.480648    0.671823
    105          1           0        2.454777   -6.036193    1.208203
    106          1           0        3.874392   -5.513097    2.117345
 ---------------------------------------------------------------------

 SCF Done:  E(RPBE1PBE) =  -2070.56091090     a.u. after    7 cycles
 SCF Done:  E(RPBE1PBE) =  -2070.56093835     A.U. after    8 cycles

 The electronic state is 1-A.
 Alpha  occ. eigenvalues --  -14.37267 -14.37266 -14.36818 -14.36818 -14.36798
 Alpha  occ. eigenvalues --  -14.36797 -14.36442 -14.36442 -10.27814 -10.27813
 Alpha  occ. eigenvalues --  -10.25834 -10.25834 -10.25397 -10.25396 -10.24674
 Alpha  occ. eigenvalues --  -10.24674 -10.24582 -10.24582 -10.24541 -10.24540
 Alpha  occ. eigenvalues --  -10.24300 -10.24300 -10.23095 -10.23094 -10.23087
 Alpha  occ. eigenvalues --  -10.23086 -10.23041 -10.23041 -10.22546 -10.22546
 Alpha  occ. eigenvalues --  -10.22521 -10.22521 -10.22465 -10.22464 -10.22461
 Alpha  occ. eigenvalues --  -10.22460 -10.22407 -10.22406 -10.22403 -10.22402
 Alpha  occ. eigenvalues --  -10.22230 -10.22230 -10.21243 -10.21243 -10.21209
 Alpha  occ. eigenvalues --  -10.21209 -10.21132 -10.21131 -10.20833 -10.20832
 Alpha  occ. eigenvalues --   -0.99326  -0.99323  -0.96990  -0.96876  -0.94145
 Alpha  occ. eigenvalues --   -0.93817  -0.89377  -0.88699  -0.88258  -0.88243
 Alpha  occ. eigenvalues --   -0.86060  -0.85792  -0.85327  -0.84697  -0.79989
 Alpha  occ. eigenvalues --   -0.79970  -0.79719  -0.79632  -0.76796  -0.76765
 Alpha  occ. eigenvalues --   -0.76285  -0.75947  -0.75631  -0.74665  -0.74339
 Alpha  occ. eigenvalues --   -0.74254  -0.67571  -0.67281  -0.66745  -0.66322
 Alpha  occ. eigenvalues --   -0.66241  -0.65192  -0.63154  -0.63153  -0.62649
 Alpha  occ. eigenvalues --   -0.62543  -0.62188  -0.61633  -0.61260  -0.60682
 Alpha  occ. eigenvalues --   -0.59950  -0.59621  -0.58017  -0.57836  -0.57078
 Alpha  occ. eigenvalues --   -0.56906  -0.55472  -0.55021  -0.53197  -0.52590
 Alpha  occ. eigenvalues --   -0.52351  -0.52165  -0.51521  -0.50993  -0.50529
 Alpha  occ. eigenvalues --   -0.50356  -0.49528  -0.48732  -0.48307  -0.48277
 Alpha  occ. eigenvalues --   -0.48150  -0.47910  -0.47728  -0.47619  -0.46819
 Alpha  occ. eigenvalues --   -0.46752  -0.46430  -0.46001  -0.45969  -0.45178
 Alpha  occ. eigenvalues --   -0.44784  -0.44298  -0.44169  -0.44098  -0.43431
 Alpha  occ. eigenvalues --   -0.43255  -0.43029  -0.43029  -0.41804  -0.41690
 Alpha  occ. eigenvalues --   -0.41627  -0.41584  -0.41389  -0.41361  -0.40485
 Alpha  occ. eigenvalues --   -0.40358  -0.39739  -0.39586  -0.39536  -0.39452
 Alpha  occ. eigenvalues --   -0.37831  -0.37726  -0.37479  -0.37314  -0.37238
 Alpha  occ. eigenvalues --   -0.37039  -0.36768  -0.36615  -0.36221  -0.35957
 Alpha  occ. eigenvalues --   -0.35605  -0.35435  -0.35288  -0.35089  -0.35048
 Alpha  occ. eigenvalues --   -0.34794  -0.34780  -0.34103  -0.33875  -0.33799
 Alpha  occ. eigenvalues --   -0.33745  -0.33494  -0.33221  -0.33160  -0.33016
 Alpha  occ. eigenvalues --   -0.32988  -0.31700  -0.31106  -0.30336  -0.29668
 Alpha  occ. eigenvalues --   -0.26642  -0.26480  -0.26166  -0.26095  -0.25949
 Alpha  occ. eigenvalues --   -0.25782  -0.24836  -0.24508  -0.24432  -0.24305
 Alpha  occ. eigenvalues --   -0.24145  -0.24095
 Alpha virt. eigenvalues --   -0.05387  -0.04752  -0.03353  -0.02816   0.01652
 Alpha virt. eigenvalues --    0.02182   0.02758   0.03271   0.04104   0.04377
 Alpha virt. eigenvalues --    0.04412   0.04928   0.05215   0.05230   0.05516

 Mulliken charges:
               1
     1  C    0.402835
     2  C   -0.178487
     3  C   -0.409211
     4  C    0.119635
     5  H    0.131442
     6  C   -0.319975
     7  C    0.317854
     8  H    0.143990
     9  C   -0.280483
    10  C   -0.166963
    11  H    0.117717
    12  C    0.056559
    13  H    0.061455
    14  H    0.080435
    15  C    0.317881
    16  C   -0.166990
    17  C   -0.280500
    18  C    0.402940
    19  H    0.117723
    20  C   -0.409370
    21  C    0.119752
    22  H    0.131442
    23  C   -0.320014
    24  C    0.056631
    25  H    0.143987
    26  C   -0.178500
    27  H    0.080460
    28  C    0.033936
    29  C    0.047105
    30  N   -0.188121
    31  N   -0.186732
    32  C   -0.074612
    33  C   -0.061682
    34  N   -0.259102
    35  N   -0.253632
    36  C    0.033940
    37  C    0.047092
    38  N   -0.188137
    39  N   -0.186762
    40  C   -0.061755
    41  C   -0.074618
    42  N   -0.253630
    43  N   -0.259062
    44  H    0.061463
    45  H    0.199164
    46  H    0.085968
    47  H    0.186747
    48  H    0.199172
    49  H    0.186766
    50  H    0.085972
    51  C   -0.133501
    52  C   -0.189290
    53  C   -0.193359
    54  C   -0.171692
    55  H    0.043242
    56  C   -0.171736
    57  H    0.048677
    58  C   -0.183751
    59  H    0.100839
    60  H    0.104786
    61  C   -0.169901
    62  H    0.107002
    63  H    0.087666
    64  H    0.086496
    65  H    0.107327
    66  H    0.104059
    67  H    0.106428
    68  H    0.053716
    69  C   -0.189917
    70  H    0.112962
    71  H    0.079445
    72  C   -0.211222
    73  H    0.102020
    74  H    0.116391
    75  C   -0.133564
    76  H    0.111552
    77  H    0.103924
    78  H    0.087724
    79  H    0.110514
    80  H    0.062093
    81  H    0.062082
    82  C   -0.211258
    83  H    0.110485
    84  H    0.087740
    85  C   -0.189933
    86  H    0.103941
    87  H    0.111555
    88  C   -0.189250
    89  H    0.116378
    90  H    0.102029
    91  H    0.112971
    92  H    0.079431
    93  H    0.053700
    94  H    0.048685
    95  C   -0.193350
    96  H    0.043238
    97  C   -0.169890
    98  H    0.104057
    99  H    0.106434
   100  C   -0.183805
   101  H    0.107343
   102  H    0.086487
   103  H    0.087640
   104  H    0.107017
   105  H    0.100803
   106  H    0.104809
 Sum of Mulliken charges =   0.00000

 Dipole moment (field-independent basis, Debye):
    X=             -4.1032    Y=             -0.0001    Z=             -0.0003  Tot=              4.1032
 Quadrupole moment (field-independent basis, Debye-Ang):
   XX=           -275.6761   YY=           -296.9232   ZZ=           -298.4166
   XY=              0.0018   XZ=             -0.0007   YZ=              6.0380

 1\1\GINC-CX3-6-1\SP\RPBE1PBE\def2TZVP\C42H56N8\ATARZIA\18-Oct-2021\0\\
 #P PBE1PBE/Def2TZVP SP SCF=(YQC,MaxCycle=900) int=(Grid=Superfinegrid)
  EmpiricalDispersion=GD3\\_2_alde1_4_ami3_1_opt_gas\\0,1\C,0,-3.8474,-
 1.9079,-0.377\C,0,-4.1136,-1.5038,0.9934\C,0,-3.1019,-3.0495,-0.669\C,
 0,-2.7684,-3.3565,-1.9805\H,0,-2.7795,-3.682,0.1435\C,0,-3.1453,-2.498
 1,-3.0027\C,0,-3.8927,-1.3537,-2.7286\H,0,-2.8584,-2.7363,-4.0159\C,0,
 -4.2633,-1.0821,-1.4156\C,0,-4.1894,-0.3951,-3.7829\H,0,-4.8468,-0.195
 9,-1.2222\C,0,-1.9447,-4.5931,-2.2594\H,0,-3.5757,-0.4903,-4.6937\H,0,

 Normal termination of Gaussian 16 at Mon Oct 18 05:01:48 2021.
