 Gaussian 16, Revision C.01,
 Gaussian 16:  ES64L-G16RevC.01  3-Jul-2019

 ----------------------------------------------------------------------
 #P PBE1PBE/Def2TZVP SP SCF=(YQC,MaxCycle=900) int=(Grid=Superfinegrid)
  EmpiricalDispersion=GD3
 ----------------------------------------------------------------------

 -------------------------
 _2_alde1_4_ami2_2_opt_gas
 -------------------------
 Symbolic Z-matrix:
 Charge =  0 Multiplicity = 1

                         Standard orientation:
 ---------------------------------------------------------------------
 Center     Atomic      Atomic             Coordinates (Angstroms)
 Number     Number       Type             X           Y           Z
 ---------------------------------------------------------------------
      1          6           0       -2.436857   -1.447134   -1.149762
      2          6           0       -1.973667   -1.793561   -2.486512
      3          6           0       -3.241430   -0.333160   -0.943384
      4          6           0       -3.608179    0.049707    0.347892
      5          1           0       -3.602408    0.252354   -1.775207
      6          6           0       -3.119935   -0.664627    1.436931
      7          6           0       -2.311421   -1.783813    1.244715
      8          1           0       -3.352684   -0.365675    2.447687
      9          6           0       -2.002881   -2.184914   -0.049654
     10          6           0       -1.710595   -2.488837    2.365688
     11          1           0       -1.391223   -3.054571   -0.229024
     12          6           0       -4.476987    1.197937    0.561527
     13          1           0       -1.182431   -3.418833    2.107648
     14          1           0       -2.104582   -1.012519   -3.251661
     15          6           0        1.685618   -1.695475   -0.818341
     16          6           0        1.224038   -2.758695   -1.701743
     17          6           0        1.425004   -1.779670    0.544353
     18          6           0        1.746549   -0.727495    1.400553
     19          1           0        0.942903   -2.647378    0.965797
     20          6           0        2.384232    0.394040    0.884865
     21          6           0        2.694538    0.474600   -0.473636
     22          1           0        2.652021    1.224870    1.520265
     23          6           0        2.324209   -0.563219   -1.321635
     24          6           0        3.388590    1.639025   -1.003459
     25          1           0        2.518768   -0.514110   -2.382329
     26          6           0        1.351099   -0.767523    2.805106
     27          1           0        3.557918    1.639114   -2.093157
     28          1           0        1.436253    0.193452    3.326495
     29          6           0        0.632425   -3.602517   -3.828991
     30          6           0       -0.841135   -3.136927   -4.019446
     31          7           0        1.243019   -2.630762   -2.956392
     32          7           0       -1.418977   -2.897408   -2.738713
     33          6           0       -5.787223    2.990785   -0.159228
     34          6           0       -5.144582    4.268688   -0.776025
     35          7           0       -4.953459    1.862418   -0.399377
     36          7           0       -4.817845    4.089847   -2.179849
     37          6           0       -0.934285   -2.700291    4.527972
     38          6           0        0.406091   -1.918967    4.673160
     39          7           0       -1.733896   -2.041421    3.546004
     40          7           0        0.918597   -1.826397    3.331935
     41          6           0        6.000433    3.570989   -0.344758
     42          6           0        4.509665    3.670921   -0.795642
     43          7           0        6.636368    2.357194   -0.824692
     44          7           0        3.767323    2.585209   -0.258227
     45          1           0       -4.189962    3.299228   -2.279103
     46          1           0       -5.656417    3.882761   -2.712107
     47          1           0        6.171827    1.539685   -0.443912
     48          1           0        6.593460    2.303584   -1.836781
     49          1           0       -5.988400    3.154986    0.912713
     50          1           0       -6.737542    2.806195   -0.672809
     51          1           0       -1.391913   -3.947506   -4.505160
     52          1           0       -0.868176   -2.244827   -4.665212
     53          1           0        4.475863    3.701921   -1.899779
     54          1           0        4.088073    4.596065   -0.395963
     55          6           0        6.074141    3.572351    1.181598
     56          1           0        5.713781    4.516679    1.579456
     57          1           0        7.103959    3.422115    1.493500
     58          1           0        5.461216    2.768994    1.581180
     59          6           0        6.767772    4.763051   -0.917800
     60          1           0        7.813245    4.685530   -0.633012
     61          1           0        6.364085    5.697862   -0.538768
     62          1           0        6.707295    4.773014   -2.004268
     63          6           0       -3.850923    4.599927   -0.029442
     64          1           0       -3.380679    5.464142   -0.489621
     65          1           0       -3.160015    3.761043   -0.081319
     66          1           0       -4.056357    4.820421    1.015000
     67          6           0       -6.133119    5.429001   -0.654548
     68          1           0       -7.059344    5.200187   -1.177505
     69          1           0       -5.697923    6.319230   -1.099723
     70          1           0       -6.363746    5.630445    0.388267
     71          6           0        0.141254   -0.589628    5.385795
     72          1           0       -0.562577    0.005635    4.808937
     73          1           0        1.064430   -0.030101    5.523535
     74          1           0       -0.286771   -0.783949    6.365491
     75          1           0       -1.462958   -2.687646    5.482886
     76          1           0       -0.698486   -3.736910    4.243002
     77          6           0        1.393097   -2.767347    5.483227
     78          1           0        2.315893   -2.212484    5.637891
     79          1           0        1.627883   -3.682460    4.945647
     80          1           0        0.966127   -3.020793    6.450120
     81          6           0        0.633501   -5.045316   -3.308955
     82          1           0        1.623023   -5.312592   -2.942422
     83          1           0        0.367338   -5.721463   -4.117481
     84          1           0       -0.092714   -5.165127   -2.509693
     85          6           0        1.366489   -3.521269   -5.169568
     86          1           0        1.447089   -2.483785   -5.482175
     87          1           0        0.836232   -4.084933   -5.933157
     88          1           0        2.369621   -3.927012   -5.063224
     89          1           0       -4.701338    1.439351    1.612248
     90          1           0        0.829280   -3.638764   -1.183137
 ---------------------------------------------------------------------

 SCF Done:  E(RPBE1PBE) =  -1761.07864645     a.u. after    6 cycles
 SCF Done:  E(RPBE1PBE) =  -1761.07868052     A.U. after   10 cycles

 The electronic state is 1-A.
 Alpha  occ. eigenvalues --  -14.38141 -14.38006 -14.37703 -14.37662 -14.37453
 Alpha  occ. eigenvalues --  -14.37093 -14.35591 -14.35037 -10.26998 -10.26890
 Alpha  occ. eigenvalues --  -10.26821 -10.26712 -10.26669 -10.26460 -10.26440
 Alpha  occ. eigenvalues --  -10.26280 -10.25827 -10.25734 -10.25096 -10.24519
 Alpha  occ. eigenvalues --  -10.24425 -10.24415 -10.24300 -10.24265 -10.24175
 Alpha  occ. eigenvalues --  -10.24115 -10.24114 -10.24040 -10.23948 -10.23932
 Alpha  occ. eigenvalues --  -10.23913 -10.23636 -10.23629 -10.23621 -10.21326
 Alpha  occ. eigenvalues --  -10.20906 -10.20841 -10.20627 -10.20504 -10.20466
 Alpha  occ. eigenvalues --  -10.20086 -10.19725  -0.97848  -0.97689  -0.96742
 Alpha  occ. eigenvalues --   -0.96654  -0.95020  -0.94666  -0.91634  -0.91518
 Alpha  occ. eigenvalues --   -0.90085  -0.89435  -0.83938  -0.82867  -0.81033
 Alpha  occ. eigenvalues --   -0.80619  -0.79984  -0.78211  -0.78014  -0.77967
 Alpha  occ. eigenvalues --   -0.72891  -0.72181  -0.72038  -0.71931  -0.71693
 Alpha  occ. eigenvalues --   -0.71451  -0.70937  -0.70796  -0.68169  -0.67632
 Alpha  occ. eigenvalues --   -0.65911  -0.65798  -0.64597  -0.62927  -0.60862
 Alpha  occ. eigenvalues --   -0.59007  -0.57318  -0.57136  -0.56543  -0.56072
 Alpha  occ. eigenvalues --   -0.55065  -0.54223  -0.53846  -0.53605  -0.52496
 Alpha  occ. eigenvalues --   -0.51317  -0.50956  -0.50738  -0.50214  -0.50019
 Alpha  occ. eigenvalues --   -0.49801  -0.49163  -0.48798  -0.48482  -0.48037
 Alpha  occ. eigenvalues --   -0.47930  -0.47608  -0.47221  -0.47044  -0.46554
 Alpha  occ. eigenvalues --   -0.46524  -0.45478  -0.45228  -0.45059  -0.44812
 Alpha  occ. eigenvalues --   -0.44439  -0.43129  -0.42451  -0.42331  -0.41787
 Alpha  occ. eigenvalues --   -0.41517  -0.41404  -0.41093  -0.40867  -0.40126
 Alpha  occ. eigenvalues --   -0.39876  -0.39764  -0.39408  -0.39140  -0.38990
 Alpha  occ. eigenvalues --   -0.38952  -0.38887  -0.38597  -0.38309  -0.37981
 Alpha  occ. eigenvalues --   -0.37297  -0.37276  -0.37191  -0.36816  -0.36594
 Alpha  occ. eigenvalues --   -0.36374  -0.36129  -0.35717  -0.35274  -0.34920
 Alpha  occ. eigenvalues --   -0.34524  -0.34416  -0.34134  -0.33870  -0.33638
 Alpha  occ. eigenvalues --   -0.30704  -0.30259  -0.27491  -0.27228  -0.27014
 Alpha  occ. eigenvalues --   -0.26901  -0.26476  -0.26453  -0.26218  -0.25974
 Alpha  occ. eigenvalues --   -0.25636  -0.25460  -0.24656  -0.24373
 Alpha virt. eigenvalues --   -0.06411  -0.06099  -0.05704  -0.05247  -0.02531
 Alpha virt. eigenvalues --   -0.01415   0.03853   0.03974   0.04376   0.04574
 Alpha virt. eigenvalues --    0.04879   0.05385   0.05750   0.05931   0.06137

 Mulliken charges:
               1
     1  C    0.325899
     2  C   -0.153243
     3  C   -0.351508
     4  C    0.370939
     5  H    0.126869
     6  C   -0.359465
     7  C    0.371167
     8  H    0.123465
     9  C   -0.282529
    10  C   -0.166346
    11  H    0.131613
    12  C   -0.165331
    13  H    0.077587
    14  H    0.068094
    15  C    0.388951
    16  C   -0.194336
    17  C   -0.292234
    18  C    0.315701
    19  H    0.118035
    20  C   -0.348477
    21  C    0.387152
    22  H    0.132107
    23  C   -0.365724
    24  C   -0.217139
    25  H    0.120125
    26  C   -0.141763
    27  H    0.061953
    28  H    0.084779
    29  C    0.189901
    30  C   -0.096441
    31  N   -0.188885
    32  N   -0.194240
    33  C   -0.123351
    34  C    0.138693
    35  N   -0.174906
    36  N   -0.497092
    37  C   -0.043319
    38  C    0.129637
    39  N   -0.196071
    40  N   -0.188727
    41  C    0.123324
    42  C   -0.115097
    43  N   -0.493868
    44  N   -0.162097
    45  H    0.219680
    46  H    0.204055
    47  H    0.224203
    48  H    0.203898
    49  H    0.069170
    50  H    0.112778
    51  H    0.112439
    52  H    0.079184
    53  H    0.076736
    54  H    0.110092
    55  C   -0.371164
    56  H    0.106982
    57  H    0.127807
    58  H    0.131301
    59  C   -0.352036
    60  H    0.133784
    61  H    0.114284
    62  H    0.110524
    63  C   -0.376641
    64  H    0.130886
    65  H    0.130472
    66  H    0.107464
    67  C   -0.354666
    68  H    0.111950
    69  H    0.133571
    70  H    0.112442
    71  C   -0.431127
    72  H    0.151354
    73  H    0.125701
    74  H    0.123637
    75  H    0.110978
    76  H    0.077236
    77  C   -0.360317
    78  H    0.123002
    79  H    0.130737
    80  H    0.118401
    81  C   -0.425804
    82  H    0.132402
    83  H    0.127075
    84  H    0.142426
    85  C   -0.350618
    86  H    0.126054
    87  H    0.111689
    88  H    0.121264
    89  H    0.068986
    90  H    0.093928
 Sum of Mulliken charges =   0.00000

 Dipole moment (field-independent basis, Debye):
    X=             -1.3170    Y=             -0.8457    Z=              0.2385  Tot=              1.5832
 Quadrupole moment (field-independent basis, Debye-Ang):
   XX=           -264.8274   YY=           -253.1665   ZZ=           -238.2023
   XY=             -1.8057   XZ=             -3.9043   YZ=              4.7302

 Normal termination of Gaussian 16 at Mon Oct 18 12:33:10 2021.
