 Gaussian 16, Revision C.01,
 Gaussian 16:  ES64L-G16RevC.01  3-Jul-2019

 ----------------------------------------------------------------------
 #P PBE1PBE/Def2TZVP SP SCF=(YQC,MaxCycle=900) int=(Grid=Superfinegrid)
  EmpiricalDispersion=GD3 SCRF=(PCM,Solvent=Dichloromethane)
 ----------------------------------------------------------------------

 -------------------------
 _2_alde1_3_ami3_1_opt_dcm
 -------------------------
 Symbolic Z-matrix:
 Charge =  0 Multiplicity = 1

                         Standard orientation:
 ---------------------------------------------------------------------
 Center     Atomic      Atomic             Coordinates (Angstroms)
 Number     Number       Type             X           Y           Z
 ---------------------------------------------------------------------
      1          6           0        3.120299   -1.049935    0.823595
      2          6           0        3.083598   -2.051722   -0.230498
      3          6           0        3.178659   -1.412313    2.167879
      4          6           0        3.098528   -0.439216    3.158414
      5          1           0        3.275014   -2.457693    2.418518
      6          6           0        2.917288    0.899417    2.806128
      7          6           0        2.865354    1.274826    1.469193
      8          1           0        2.822028    1.632226    3.594644
      9          6           0        2.995955    0.294528    0.486839
     10          6           0        2.576073    2.652430    1.090511
     11          1           0        2.960272    0.604808   -0.545734
     12          6           0        3.172146   -0.813586    4.577529
     13          1           0        2.126504    3.273581    1.880656
     14          1           0        3.107242   -1.654868   -1.256071
     15          6           0       -0.766808   -1.276636   -0.443808
     16          6           0       -0.277190   -2.646689   -0.470264
     17          6           0       -0.068313   -0.272609   -1.106850
     18          6           0       -0.431287    1.060805   -0.953221
     19          1           0        0.783023   -0.551793   -1.707269
     20          6           0       -1.546877    1.381246   -0.180005
     21          6           0       -2.284451    0.382826    0.439656
     22          1           0       -1.817780    2.419423   -0.065741
     23          6           0       -1.875981   -0.938334    0.329490
     24          6           0       -3.515409    0.753623    1.236949
     25          1           0       -2.433931   -1.699384    0.853765
     26          6           0        0.425421    2.092025   -1.513274
     27          1           0        1.236479    1.723844   -2.161161
     28          6           0        1.156289   -4.345156   -1.170446
     29          6           0        2.693528   -4.155728   -1.099050
     30          7           0        0.577808   -3.045662   -1.307680
     31          1           0        0.822494   -4.841562   -0.240960
     32          6           0        0.823553   -5.234739   -2.368603
     33          7           0        2.954050   -3.285089    0.005087
     34          1           0        3.008268   -3.699714   -2.054261
     35          6           0        3.364512   -5.513045   -0.918166
     36          6           0        1.506260   -6.591005   -2.222018
     37          6           0        3.018073   -6.428990   -2.087958
     38          8           0        3.099267   -0.048699    5.504833
     39          6           0        2.309162    4.385962   -0.441362
     40          6           0        1.350765    4.204399   -1.646060
     41          7           0        2.774556    3.085533   -0.076372
     42          1           0        1.746377    4.860402    0.382511
     43          6           0        3.465322    5.294539   -0.859454
     44          7           0        0.312329    3.315560   -1.224038
     45          1           0        1.943645    3.769382   -2.470820
     46          6           0        0.796047    5.563426   -2.059501
     47          6           0        2.930311    6.652866   -1.302072
     48          6           0        1.935694    6.499540   -2.449866
     49          6           0       -5.341052   -0.570746    0.778415
     50          6           0       -5.731042    0.893721    0.514249
     51          7           0       -4.226089   -0.443382    1.706052
     52          1           0       -4.929374   -0.995724   -0.148716
     53          6           0       -6.552261   -1.374538    1.202611
     54          7           0       -4.444720    1.568533    0.414531
     55          1           0       -6.229207    1.290231    1.412457
     56          6           0       -6.687524    0.978979   -0.657834
     57          6           0       -7.575525   -1.294548    0.064678
     58          6           0       -7.926509    0.150779   -0.301367
     59          1           0       -0.664673   -3.300476    0.327432
     60          1           0       -4.584311   -0.290723    2.644022
     61          1           0       -3.202153    1.357142    2.100373
     62          1           0       -4.128146    1.571534   -0.551369
     63          1           0        3.308003   -1.900998    4.742407
     64          1           0        3.761044    7.289661   -1.612940
     65          1           0        2.435006    7.136897   -0.457141
     66          1           0        1.532867    7.476562   -2.723673
     67          1           0        2.451983    6.093651   -3.323022
     68          1           0        0.110603    5.429303   -2.898486
     69          1           0        0.228618    5.979800   -1.225822
     70          1           0        4.149216    5.412456   -0.016102
     71          1           0        4.013433    4.817245   -1.673442
     72          1           0       -6.969218    2.014424   -0.855428
     73          1           0       -6.210647    0.576451   -1.555356
     74          1           0       -8.620986    0.149093   -1.143556
     75          1           0       -8.431890    0.621401    0.545208
     76          1           0       -8.486039   -1.823370    0.352493
     77          1           0       -7.163098   -1.795941   -0.814069
     78          1           0       -6.975049   -0.954755    2.118795
     79          1           0       -6.282199   -2.413798    1.396570
     80          1           0        3.025248   -5.951047    0.021951
     81          1           0        4.445143   -5.372534   -0.853150
     82          1           0        1.156409   -4.737227   -3.281127
     83          1           0       -0.259887   -5.359588   -2.428940
     84          1           0        1.274924   -7.212994   -3.089117
     85          1           0        1.116985   -7.095434   -1.334491
     86          1           0        3.483888   -7.405448   -1.941917
     87          1           0        3.418550   -6.001715   -3.010396
 ---------------------------------------------------------------------

 SCF Done:  E(RPBE1PBE) =  -1800.63823075     a.u. after    6 cycles
 SCF Done:  E(RPBE1PBE) =  -1800.63825839     A.U. after    9 cycles

 The electronic state is 1-A.
 Alpha  occ. eigenvalues --  -19.21301 -14.38217 -14.37930 -14.37783 -14.37539
 Alpha  occ. eigenvalues --  -14.37215 -14.36870 -10.31740 -10.27992 -10.27084
 Alpha  occ. eigenvalues --  -10.26815 -10.26674 -10.26420 -10.25327 -10.25283
 Alpha  occ. eigenvalues --  -10.25177 -10.25159 -10.25113 -10.25104 -10.25043
 Alpha  occ. eigenvalues --  -10.25042 -10.24988 -10.24929 -10.24179 -10.24087
 Alpha  occ. eigenvalues --  -10.24073 -10.24016 -10.23921 -10.23385 -10.23220
 Alpha  occ. eigenvalues --  -10.23163 -10.21692 -10.21673 -10.21666 -10.21627
 Alpha  occ. eigenvalues --  -10.21589 -10.21557 -10.21442 -10.21428 -10.21414
 Alpha  occ. eigenvalues --  -10.21376 -10.21357 -10.21333  -1.09063  -0.99310
 Alpha  occ. eigenvalues --   -0.98153  -0.98015  -0.95375  -0.95000  -0.91137
 Alpha  occ. eigenvalues --   -0.89798  -0.88175  -0.85998  -0.85597  -0.85084
 Alpha  occ. eigenvalues --   -0.81603  -0.81495  -0.80649  -0.80340  -0.76795
 Alpha  occ. eigenvalues --   -0.76435  -0.76318  -0.76045  -0.75354  -0.74328
 Alpha  occ. eigenvalues --   -0.69016  -0.68887  -0.68144  -0.67330  -0.66817
 Alpha  occ. eigenvalues --   -0.65827  -0.63099  -0.62880  -0.62395  -0.62000
 Alpha  occ. eigenvalues --   -0.61947  -0.61259  -0.59095  -0.58575  -0.58469
 Alpha  occ. eigenvalues --   -0.57563  -0.57242  -0.56634  -0.55906  -0.54512
 Alpha  occ. eigenvalues --   -0.53579  -0.52954  -0.52571  -0.51437  -0.51251
 Alpha  occ. eigenvalues --   -0.50545  -0.49963  -0.49438  -0.48496  -0.48317
 Alpha  occ. eigenvalues --   -0.48016  -0.47738  -0.47639  -0.47306  -0.47207
 Alpha  occ. eigenvalues --   -0.46489  -0.45656  -0.45580  -0.45314  -0.45014
 Alpha  occ. eigenvalues --   -0.44484  -0.44310  -0.44239  -0.44055  -0.43793
 Alpha  occ. eigenvalues --   -0.43449  -0.42155  -0.42138  -0.41515  -0.40966
 Alpha  occ. eigenvalues --   -0.40740  -0.40479  -0.40396  -0.40213  -0.40040
 Alpha  occ. eigenvalues --   -0.38959  -0.38843  -0.37870  -0.37333  -0.37124
 Alpha  occ. eigenvalues --   -0.36806  -0.36375  -0.36205  -0.36109  -0.35936
 Alpha  occ. eigenvalues --   -0.35861  -0.35763  -0.35376  -0.34437  -0.34187
 Alpha  occ. eigenvalues --   -0.33821  -0.33763  -0.33595  -0.33076  -0.32420
 Alpha  occ. eigenvalues --   -0.32376  -0.31875  -0.31448  -0.30609  -0.28656
 Alpha  occ. eigenvalues --   -0.27826  -0.27752  -0.27635  -0.27178  -0.27103
 Alpha  occ. eigenvalues --   -0.26466  -0.26137  -0.25362  -0.25124  -0.24344
 Alpha virt. eigenvalues --   -0.07704  -0.06736  -0.05834  -0.04285  -0.02721
 Alpha virt. eigenvalues --    0.01671   0.04368   0.04791   0.04920   0.04950
 Alpha virt. eigenvalues --    0.05029   0.05151   0.05166   0.05314   0.05995

 Mulliken charges:
               1
     1  C    0.343069
     2  C   -0.153383
     3  C   -0.336195
     4  C    0.257965
     5  H    0.131357
     6  C   -0.339223
     7  C    0.308267
     8  H    0.141036
     9  C   -0.276389
    10  C   -0.152998
    11  H    0.136953
    12  C    0.074285
    13  H    0.093497
    14  H    0.104010
    15  C    0.312182
    16  C   -0.169508
    17  C   -0.326836
    18  C    0.394993
    19  H    0.132367
    20  C   -0.433731
    21  C    0.143652
    22  H    0.124977
    23  C   -0.332741
    24  C    0.085193
    25  H    0.137486
    26  C   -0.179365
    27  H    0.100821
    28  C    0.021679
    29  C    0.043298
    30  N   -0.198853
    31  H    0.057037
    32  C   -0.195969
    33  N   -0.205885
    34  H    0.063736
    35  C   -0.171418
    36  C   -0.181078
    37  C   -0.195224
    38  O   -0.327629
    39  C    0.022106
    40  C    0.043448
    41  N   -0.196705
    42  H    0.059251
    43  C   -0.193887
    44  N   -0.204522
    45  H    0.061563
    46  C   -0.175035
    47  C   -0.182533
    48  C   -0.194218
    49  C   -0.048898
    50  C   -0.106031
    51  N   -0.300964
    52  H    0.069668
    53  C   -0.147631
    54  N   -0.286643
    55  H    0.067282
    56  C   -0.172936
    57  C   -0.200201
    58  C   -0.198097
    59  H    0.087177
    60  H    0.205823
    61  H    0.102678
    62  H    0.213795
    63  H    0.098984
    64  H    0.114026
    65  H    0.095429
    66  H    0.113570
    67  H    0.094991
    68  H    0.109183
    69  H    0.101970
    70  H    0.113336
    71  H    0.104972
    72  H    0.111077
    73  H    0.100346
    74  H    0.115449
    75  H    0.100646
    76  H    0.116088
    77  H    0.100435
    78  H    0.100123
    79  H    0.107831
    80  H    0.100999
    81  H    0.109359
    82  H    0.104679
    83  H    0.112873
    84  H    0.113825
    85  H    0.094880
    86  H    0.113642
    87  H    0.095365
 Sum of Mulliken charges =   0.00000

 Dipole moment (field-independent basis, Debye):
    X=             -2.7823    Y=             -1.6815    Z=             -3.4394  Tot=              4.7327
 Quadrupole moment (field-independent basis, Debye-Ang):
   XX=           -237.7803   YY=           -234.5683   ZZ=           -272.9386
   XY=              6.5408   XZ=            -18.1578   YZ=             -1.6729

 Normal termination of Gaussian 16 at Mon Oct 18 16:22:50 2021.
