 Gaussian 16, Revision C.01,
 Gaussian 16:  ES64L-G16RevC.01  3-Jul-2019

 ---------------------------------------------------------------------
 #P MP2/aug-cc-pVDZ SP SCF=(YQC,MaxCycle=900) int=(Grid=Superfinegrid)
 ---------------------------------------------------------------------

 -----------------------------
 _2_alde1_3_ami1_1_opt_gas_mp2
 -----------------------------
 Symbolic Z-matrix:
 Charge =  0 Multiplicity = 1

                         Standard orientation:
 ---------------------------------------------------------------------
 Center     Atomic      Atomic             Coordinates (Angstroms)
 Number     Number       Type             X           Y           Z
 ---------------------------------------------------------------------
      1          6           0        5.276168   -0.848099    0.228012
      2          6           0        4.652270   -2.164646    0.318193
      3          6           0        6.657806   -0.702746    0.287344
      4          6           0        7.237860    0.563799    0.210684
      5          1           0        7.307125   -1.559706    0.397370
      6          6           0        6.429299    1.690238    0.070607
      7          6           0        5.045778    1.555948    0.001662
      8          1           0        6.884191    2.669929    0.011045
      9          6           0        4.479201    0.285626    0.082677
     10          6           0        4.182644    2.722513   -0.155027
     11          1           0        3.407264    0.178794    0.032286
     12          6           0        8.696902    0.700730    0.277992
     13          1           0        4.682564    3.706411   -0.136495
     14          1           0        5.338030   -3.027022    0.367008
     15          6           0       -1.287633   -1.498658   -0.446517
     16          6           0       -0.412550   -2.653770   -0.602958
     17          6           0       -0.733396   -0.247213   -0.200090
     18          6           0       -1.548205    0.869260   -0.047225
     19          1           0        0.336600   -0.142324   -0.127523
     20          6           0       -2.930968    0.725157   -0.146268
     21          6           0       -3.493444   -0.517772   -0.398842
     22          1           0       -3.584634    1.578297   -0.036857
     23          6           0       -2.672529   -1.626405   -0.543444
     24          6           0       -4.990240   -0.669397   -0.468326
     25          1           0       -3.114752   -2.594468   -0.733653
     26          6           0       -0.944824    2.170842    0.210412
     27          1           0       -1.635246    3.030903    0.255856
     28          6           0        1.741082   -3.593904   -0.758617
     29          6           0        2.731350   -3.520395    0.434959
     30          7           0        0.836577   -2.504808   -0.615152
     31          1           0        1.236677   -4.578402   -0.746702
     32          6           0        2.464356   -3.442126   -2.117096
     33          7           0        3.399473   -2.267810    0.345367
     34          1           0        3.422942   -4.381766    0.384936
     35          6           0        1.995698   -3.569982    1.794545
     36          1           0        2.938506   -2.456375   -2.122474
     37          6           0        3.524315   -4.520984   -2.324066
     38          6           0        1.170817   -4.844863    1.950210
     39          6           0        3.008227   -3.474012    2.935054
     40          8           0        9.479877   -0.207307    0.396637
     41          6           0        2.050526    3.670345   -0.467232
     42          6           0        0.946336    3.515686    0.613517
     43          7           0        2.943760    2.575183   -0.308676
     44          1           0        2.545576    4.651494   -0.341395
     45          6           0        1.466763    3.605070   -1.898045
     46          7           0        0.298927    2.272088    0.370187
     47          1           0        0.258936    4.380344    0.550518
     48          6           0        1.539902    3.476745    2.040833
     49          1           0        1.002034    2.621405   -2.011544
     50          6           0        0.424599    4.694003   -2.138516
     51          1           0        2.199525    2.605651    2.092405
     52          6           0        2.333581    4.739736    2.365037
     53          6           0       -7.004507    0.550341   -0.331099
     54          6           0       -6.957205   -0.578672    0.739992
     55          7           0       -5.649662    0.572366   -0.870688
     56          1           0       -7.171517    1.516437    0.168204
     57          6           0       -8.123501    0.366443   -1.377890
     58          6           0       -7.522167   -0.191031    2.109091
     59          1           0       -9.045797    0.153470   -0.827458
     60          6           0       -8.326829    1.660442   -2.166233
     61          1           0       -6.943764    0.662517    2.484298
     62          6           0       -8.991816    0.214675    2.026546
     63          1           0       -0.908638   -3.633928   -0.711067
     64          1           0        9.049390    1.750231    0.208481
     65          6           0        1.445796   -3.502467   -3.254749
     66          1           0        1.335031   -2.699311    1.835288
     67          6           0        2.591664    3.739153   -2.923675
     68          6           0        0.417249    3.302427    3.062699
     69          6           0       -7.866090   -0.794652   -2.337604
     70          6           0       -7.365116   -1.358441    3.082932
     71          1           0        2.494928   -3.490376    3.893684
     72          1           0        3.578205   -2.550807    2.867951
     73          1           0        3.700300   -4.314245    2.902406
     74          1           0        3.095160   -5.511419   -2.181686
     75          1           0        4.358057   -4.400289   -1.638488
     76          1           0        3.915732   -4.461195   -3.337313
     77          1           0        0.937845   -4.465801   -3.260343
     78          1           0        1.945092   -3.372879   -4.212179
     79          1           0        0.702040   -2.717072   -3.146699
     80          1           0        1.786257   -5.724333    1.768012
     81          1           0        0.327103   -4.860669    1.266478
     82          1           0        0.778882   -4.906272    2.963128
     83          1           0       -7.419008    1.936021   -2.699625
     84          1           0       -8.589462    2.478790   -1.499247
     85          1           0       -9.126965    1.540492   -2.893412
     86          1           0       -9.586010   -0.597781    1.613248
     87          1           0       -9.127632    1.096093    1.405459
     88          1           0       -9.369019    0.439563    3.021804
     89          1           0       -7.715648   -1.727268   -1.798783
     90          1           0       -6.989470   -0.608965   -2.956056
     91          1           0       -8.719830   -0.920627   -3.000149
     92          1           0       -6.332293   -1.692101    3.118871
     93          1           0       -7.982207   -2.195388    2.763855
     94          1           0       -7.675795   -1.062574    4.082457
     95          1           0        0.135919    4.699788   -3.187386
     96          1           0        0.829556    5.673769   -1.890245
     97          1           0       -0.471573    4.526473   -1.548264
     98          1           0        2.622557    4.732319    3.413817
     99          1           0        1.730800    5.627859    2.183111
    100          1           0        3.240699    4.806321    1.771076
    101          1           0        0.829659    3.250552    4.067679
    102          1           0       -0.136718    2.386850    2.871658
    103          1           0       -0.272709    4.143885    3.017820
    104          1           0        3.094656    4.699028   -2.814800
    105          1           0        2.188628    3.676505   -3.931737
    106          1           0        3.324043    2.945630   -2.798546
    107          1           0       -5.624430    0.720234   -1.870898
    108          7           0       -5.551008   -0.965356    0.837978
    109          1           0       -7.505264   -1.453983    0.369472
    110          1           0       -5.242212   -1.518073   -1.132678
    111          1           0       -5.090413   -0.367471    1.520946
 ---------------------------------------------------------------------

 SCF Done:  E(RHF) =  -2028.29561401     a.u. after    7 cycles
 SCF Done:  E(RHF) =  -2028.29562116     A.U. after   19 cycles
 E2 =    -0.7274670770D+01 EUMP2 =    -0.20355702919332D+04

 The electronic state is 1-A.
 Alpha  occ. eigenvalues --  -20.56373 -15.55569 -15.55411 -15.54974 -15.54852
 Alpha  occ. eigenvalues --  -15.54816 -15.54671 -11.34030 -11.28957 -11.28482
 Alpha  occ. eigenvalues --  -11.28208 -11.27737 -11.27715 -11.26715 -11.25982
 Alpha  occ. eigenvalues --  -11.25576 -11.25467 -11.25413 -11.25398 -11.25381
 Alpha  occ. eigenvalues --  -11.25282 -11.25267 -11.25255 -11.25129 -11.24933
 Alpha  occ. eigenvalues --  -11.24204 -11.23856 -11.23815 -11.23766 -11.23648
 Alpha  occ. eigenvalues --  -11.23535 -11.23490 -11.22769 -11.22383 -11.22297
 Alpha  occ. eigenvalues --  -11.22285 -11.22243 -11.22146 -11.22117 -11.22091
 Alpha  occ. eigenvalues --  -11.21460 -11.21422 -11.21314 -11.21256 -11.21203
 Alpha  occ. eigenvalues --  -11.20871 -11.20724 -11.20629 -11.20621  -1.39908
 Alpha  occ. eigenvalues --   -1.28261  -1.26187  -1.25918  -1.23709  -1.23216
 Alpha  occ. eigenvalues --   -1.17821  -1.16162  -1.15428  -1.10195  -1.10117
 Alpha  occ. eigenvalues --   -1.08955  -1.07478  -1.07151  -1.06504  -1.05302
 Alpha  occ. eigenvalues --   -1.05054  -1.03976  -1.03605  -0.98060  -0.97608
 Alpha  occ. eigenvalues --   -0.96288  -0.94044  -0.93447  -0.92990  -0.92832
 Alpha  occ. eigenvalues --   -0.92787  -0.92655  -0.90939  -0.90615  -0.89840
 Alpha  occ. eigenvalues --   -0.87452  -0.86025  -0.85359  -0.84584  -0.83684
 Alpha  occ. eigenvalues --   -0.83158  -0.78983  -0.77773  -0.77359  -0.77045
 Alpha  occ. eigenvalues --   -0.76935  -0.76624  -0.76350  -0.75639  -0.75003
 Alpha  occ. eigenvalues --   -0.72894  -0.71273  -0.70266  -0.69657  -0.69006
 Alpha  occ. eigenvalues --   -0.67718  -0.66834  -0.66140  -0.65549  -0.65108
 Alpha  occ. eigenvalues --   -0.64427  -0.64175  -0.63689  -0.63267  -0.62823
 Alpha  occ. eigenvalues --   -0.62693  -0.62025  -0.61679  -0.61472  -0.61086
 Alpha  occ. eigenvalues --   -0.61002  -0.60376  -0.59974  -0.59263  -0.59125
 Alpha  occ. eigenvalues --   -0.59009  -0.58806  -0.58050  -0.57174  -0.56816
 Alpha  occ. eigenvalues --   -0.56504  -0.56289  -0.55841  -0.55658  -0.55520
 Alpha  occ. eigenvalues --   -0.54911  -0.54741  -0.54614  -0.54060  -0.53770
 Alpha  occ. eigenvalues --   -0.53491  -0.53372  -0.53228  -0.53046  -0.52819
 Alpha  occ. eigenvalues --   -0.52700  -0.52636  -0.52317  -0.52044  -0.51745
 Alpha  occ. eigenvalues --   -0.51434  -0.51068  -0.50440  -0.50180  -0.49578
 Alpha  occ. eigenvalues --   -0.49403  -0.48665  -0.48097  -0.48034  -0.47608
 Alpha  occ. eigenvalues --   -0.47072  -0.46992  -0.46890  -0.46754  -0.46695
 Alpha  occ. eigenvalues --   -0.46610  -0.46503  -0.46288  -0.45680  -0.45483
 Alpha  occ. eigenvalues --   -0.44425  -0.44137  -0.44036  -0.42636  -0.42157
 Alpha  occ. eigenvalues --   -0.41873  -0.41284  -0.40794  -0.39243  -0.38365
 Alpha  occ. eigenvalues --   -0.37964  -0.37842  -0.36715  -0.33274  -0.32803
 Alpha  occ. eigenvalues --   -0.31489  -0.31288
 Alpha virt. eigenvalues --    0.02773   0.03036   0.03261   0.03373   0.03543
 Alpha virt. eigenvalues --    0.03899   0.04029   0.04321   0.04361   0.04464
 Alpha virt. eigenvalues --    0.04809   0.04950   0.05211   0.05266   0.05372

 Mulliken charges:
               1
     1  C    1.156188
     2  C    0.395580
     3  C    0.160311
     4  C   -0.111532
     5  H   -0.767216
     6  C    0.806509
     7  C    1.055599
     8  H   -0.752458
     9  C   -0.338988
    10  C    0.349198
    11  H   -1.472573
    12  C    1.287974
    13  H   -0.766419
    14  H   -0.771898
    15  C    1.386302
    16  C    0.244539
    17  C   -0.255076
    18  C    0.917496
    19  H   -1.535681
    20  C    0.378628
    21  C    0.891242
    22  H   -1.009821
    23  C    0.486061
    24  C    0.417197
    25  H   -0.860366
    26  C    0.355961
    27  H   -0.776246
    28  C    0.337466
    29  C    0.340817
    30  N    0.148620
    31  H   -0.401541
    32  C   -1.680346
    33  N    0.138307
    34  H   -0.399644
    35  C   -1.723914
    36  H   -0.321939
    37  C    1.278454
    38  C    1.324445
    39  C    1.453443
    40  O   -0.810531
    41  C    0.199322
    42  C    0.322025
    43  N    0.139655
    44  H   -0.399845
    45  C   -1.675042
    46  N    0.179836
    47  H   -0.424788
    48  C   -1.640519
    49  H   -0.315382
    50  C    1.297242
    51  H   -0.316537
    52  C    1.277745
    53  C    0.564637
    54  C    0.906866
    55  N   -0.672042
    56  H   -0.748578
    57  C   -0.963808
    58  C   -1.227657
    59  H   -0.380857
    60  C    0.962078
    61  H   -0.201464
    62  C    1.185350
    63  H   -0.801032
    64  H   -0.320256
    65  C    1.445349
    66  H   -0.314324
    67  C    1.445941
    68  C    1.435769
    69  C    1.168943
    70  C    1.080156
    71  H   -0.161322
    72  H    0.050510
    73  H    0.028023
    74  H   -0.009438
    75  H   -0.166464
    76  H   -0.117252
    77  H    0.036280
    78  H   -0.170184
    79  H    0.055168
    80  H   -0.011678
    81  H   -0.157607
    82  H   -0.122300
    83  H   -0.044988
    84  H   -0.052295
    85  H   -0.092098
    86  H    0.027493
    87  H    0.004562
    88  H   -0.179324
    89  H   -0.014970
    90  H   -0.033935
    91  H   -0.180825
    92  H   -0.103401
    93  H   -0.036212
    94  H   -0.062022
    95  H   -0.117692
    96  H    0.001908
    97  H   -0.178753
    98  H   -0.115580
    99  H    0.001103
   100  H   -0.161988
   101  H   -0.173004
   102  H    0.062523
   103  H    0.032335
   104  H    0.031123
   105  H   -0.160531
   106  H    0.053243
   107  H    0.093490
   108  N   -0.726437
   109  H   -0.619197
   110  H   -0.422516
   111  H    0.151322
 Sum of Mulliken charges =   0.00000

 Dipole moment (field-independent basis, Debye):
    X=             -5.4088    Y=              2.0349    Z=             -0.9057  Tot=              5.8495
 Quadrupole moment (field-independent basis, Debye-Ang):
   XX=           -320.9607   YY=           -285.4348   ZZ=           -307.8952
   XY=             12.7030   XZ=              1.2402   YZ=              3.4590

 Normal termination of Gaussian 16 at Tue Oct 26 15:24:34 2021.
