 Gaussian 16, Revision C.01,
 Gaussian 16:  ES64L-G16RevC.01  3-Jul-2019

 ----------------------------------------------------------------------
 #P PBE1PBE/Def2TZVP SP SCF=(YQC,MaxCycle=900) int=(Grid=Superfinegrid)
  EmpiricalDispersion=GD3 SCRF=(PCM,Solvent=Chloroform)
 ----------------------------------------------------------------------

 -------------------------
 _2_alde1_3_ami1_1_opt_cfm
 -------------------------
 Symbolic Z-matrix:
 Charge =  0 Multiplicity = 1

                         Standard orientation:
 ---------------------------------------------------------------------
 Center     Atomic      Atomic             Coordinates (Angstroms)
 Number     Number       Type             X           Y           Z
 ---------------------------------------------------------------------
      1          6           0        5.276168   -0.848099    0.228012
      2          6           0        4.652270   -2.164646    0.318193
      3          6           0        6.657806   -0.702746    0.287344
      4          6           0        7.237860    0.563799    0.210684
      5          1           0        7.307125   -1.559706    0.397370
      6          6           0        6.429299    1.690238    0.070607
      7          6           0        5.045778    1.555948    0.001662
      8          1           0        6.884191    2.669929    0.011045
      9          6           0        4.479201    0.285626    0.082677
     10          6           0        4.182644    2.722513   -0.155027
     11          1           0        3.407264    0.178794    0.032286
     12          6           0        8.696902    0.700730    0.277992
     13          1           0        4.682564    3.706411   -0.136495
     14          1           0        5.338030   -3.027022    0.367008
     15          6           0       -1.287633   -1.498658   -0.446517
     16          6           0       -0.412550   -2.653770   -0.602958
     17          6           0       -0.733396   -0.247213   -0.200090
     18          6           0       -1.548205    0.869260   -0.047225
     19          1           0        0.336600   -0.142324   -0.127523
     20          6           0       -2.930968    0.725157   -0.146268
     21          6           0       -3.493444   -0.517772   -0.398842
     22          1           0       -3.584634    1.578297   -0.036857
     23          6           0       -2.672529   -1.626405   -0.543444
     24          6           0       -4.990240   -0.669397   -0.468326
     25          1           0       -3.114752   -2.594468   -0.733653
     26          6           0       -0.944824    2.170842    0.210412
     27          1           0       -1.635246    3.030903    0.255856
     28          6           0        1.741082   -3.593904   -0.758617
     29          6           0        2.731350   -3.520395    0.434959
     30          7           0        0.836577   -2.504808   -0.615152
     31          1           0        1.236677   -4.578402   -0.746702
     32          6           0        2.464356   -3.442126   -2.117096
     33          7           0        3.399473   -2.267810    0.345367
     34          1           0        3.422942   -4.381766    0.384936
     35          6           0        1.995698   -3.569982    1.794545
     36          1           0        2.938506   -2.456375   -2.122474
     37          6           0        3.524315   -4.520984   -2.324066
     38          6           0        1.170817   -4.844863    1.950210
     39          6           0        3.008227   -3.474012    2.935054
     40          8           0        9.479877   -0.207307    0.396637
     41          6           0        2.050526    3.670345   -0.467232
     42          6           0        0.946336    3.515686    0.613517
     43          7           0        2.943760    2.575183   -0.308676
     44          1           0        2.545576    4.651494   -0.341395
     45          6           0        1.466763    3.605070   -1.898045
     46          7           0        0.298927    2.272088    0.370187
     47          1           0        0.258936    4.380344    0.550518
     48          6           0        1.539902    3.476745    2.040833
     49          1           0        1.002034    2.621405   -2.011544
     50          6           0        0.424599    4.694003   -2.138516
     51          1           0        2.199525    2.605651    2.092405
     52          6           0        2.333581    4.739736    2.365037
     53          6           0       -7.004507    0.550341   -0.331099
     54          6           0       -6.957205   -0.578672    0.739992
     55          7           0       -5.649662    0.572366   -0.870688
     56          1           0       -7.171517    1.516437    0.168204
     57          6           0       -8.123501    0.366443   -1.377890
     58          6           0       -7.522167   -0.191031    2.109091
     59          1           0       -9.045797    0.153470   -0.827458
     60          6           0       -8.326829    1.660442   -2.166233
     61          1           0       -6.943764    0.662517    2.484298
     62          6           0       -8.991816    0.214675    2.026546
     63          1           0       -0.908638   -3.633928   -0.711067
     64          1           0        9.049390    1.750231    0.208481
     65          6           0        1.445796   -3.502467   -3.254749
     66          1           0        1.335031   -2.699311    1.835288
     67          6           0        2.591664    3.739153   -2.923675
     68          6           0        0.417249    3.302427    3.062699
     69          6           0       -7.866090   -0.794652   -2.337604
     70          6           0       -7.365116   -1.358441    3.082932
     71          1           0        2.494928   -3.490376    3.893684
     72          1           0        3.578205   -2.550807    2.867951
     73          1           0        3.700300   -4.314245    2.902406
     74          1           0        3.095160   -5.511419   -2.181686
     75          1           0        4.358057   -4.400289   -1.638488
     76          1           0        3.915732   -4.461195   -3.337313
     77          1           0        0.937845   -4.465801   -3.260343
     78          1           0        1.945092   -3.372879   -4.212179
     79          1           0        0.702040   -2.717072   -3.146699
     80          1           0        1.786257   -5.724333    1.768012
     81          1           0        0.327103   -4.860669    1.266478
     82          1           0        0.778882   -4.906272    2.963128
     83          1           0       -7.419008    1.936021   -2.699625
     84          1           0       -8.589462    2.478790   -1.499247
     85          1           0       -9.126965    1.540492   -2.893412
     86          1           0       -9.586010   -0.597781    1.613248
     87          1           0       -9.127632    1.096093    1.405459
     88          1           0       -9.369019    0.439563    3.021804
     89          1           0       -7.715648   -1.727268   -1.798783
     90          1           0       -6.989470   -0.608965   -2.956056
     91          1           0       -8.719830   -0.920627   -3.000149
     92          1           0       -6.332293   -1.692101    3.118871
     93          1           0       -7.982207   -2.195388    2.763855
     94          1           0       -7.675795   -1.062574    4.082457
     95          1           0        0.135919    4.699788   -3.187386
     96          1           0        0.829556    5.673769   -1.890245
     97          1           0       -0.471573    4.526473   -1.548264
     98          1           0        2.622557    4.732319    3.413817
     99          1           0        1.730800    5.627859    2.183111
    100          1           0        3.240699    4.806321    1.771076
    101          1           0        0.829659    3.250552    4.067679
    102          1           0       -0.136718    2.386850    2.871658
    103          1           0       -0.272709    4.143885    3.017820
    104          1           0        3.094656    4.699028   -2.814800
    105          1           0        2.188628    3.676505   -3.931737
    106          1           0        3.324043    2.945630   -2.798546
    107          1           0       -5.624430    0.720234   -1.870898
    108          7           0       -5.551008   -0.965356    0.837978
    109          1           0       -7.505264   -1.453983    0.369472
    110          1           0       -5.242212   -1.518073   -1.132678
    111          1           0       -5.090413   -0.367471    1.520946
 ---------------------------------------------------------------------

 SCF Done:  E(RPBE1PBE) =  -2039.89588043     a.u. after    6 cycles
 SCF Done:  E(RPBE1PBE) =  -2039.89592185     A.U. after    9 cycles

 The electronic state is 1-A.
 Alpha  occ. eigenvalues --  -19.20999 -14.37455 -14.37418 -14.37012 -14.36889
 Alpha  occ. eigenvalues --  -14.36889 -14.36492 -10.31523 -10.27653 -10.26652
 Alpha  occ. eigenvalues --  -10.26547 -10.26083 -10.26064 -10.25160 -10.25042
 Alpha  occ. eigenvalues --  -10.24965 -10.24920 -10.24885 -10.24761 -10.24734
 Alpha  occ. eigenvalues --  -10.24708 -10.24652 -10.24551 -10.24346 -10.23891
 Alpha  occ. eigenvalues --  -10.23481 -10.23454 -10.23375 -10.23203 -10.22829
 Alpha  occ. eigenvalues --  -10.22717 -10.22491 -10.22192 -10.22135 -10.22129
 Alpha  occ. eigenvalues --  -10.22110 -10.22108 -10.20710 -10.20642 -10.20599
 Alpha  occ. eigenvalues --  -10.20426 -10.20412 -10.20360 -10.20322 -10.20123
 Alpha  occ. eigenvalues --  -10.20020 -10.19932 -10.19921 -10.19914  -1.08749
 Alpha  occ. eigenvalues --   -0.99380  -0.97540  -0.97360  -0.95412  -0.95021
 Alpha  occ. eigenvalues --   -0.90708  -0.89334  -0.88465  -0.84531  -0.84294
 Alpha  occ. eigenvalues --   -0.83433  -0.82305  -0.82033  -0.80930  -0.80451
 Alpha  occ. eigenvalues --   -0.80231  -0.79359  -0.79020  -0.74834  -0.74441
 Alpha  occ. eigenvalues --   -0.73006  -0.70755  -0.70564  -0.70509  -0.70396
 Alpha  occ. eigenvalues --   -0.70292  -0.70231  -0.69171  -0.68947  -0.68396
 Alpha  occ. eigenvalues --   -0.66400  -0.65325  -0.64444  -0.64096  -0.63374
 Alpha  occ. eigenvalues --   -0.63060  -0.59925  -0.58798  -0.58370  -0.58013
 Alpha  occ. eigenvalues --   -0.57923  -0.57735  -0.57450  -0.57112  -0.56731
 Alpha  occ. eigenvalues --   -0.54898  -0.54187  -0.53659  -0.52722  -0.52316
 Alpha  occ. eigenvalues --   -0.51089  -0.50399  -0.50077  -0.49392  -0.49253
 Alpha  occ. eigenvalues --   -0.48705  -0.48501  -0.47974  -0.47772  -0.47688
 Alpha  occ. eigenvalues --   -0.47215  -0.46692  -0.46521  -0.46168  -0.45854
 Alpha  occ. eigenvalues --   -0.45734  -0.45226  -0.44956  -0.44719  -0.44437
 Alpha  occ. eigenvalues --   -0.44250  -0.44041  -0.43771  -0.43321  -0.42749
 Alpha  occ. eigenvalues --   -0.42180  -0.41951  -0.41707  -0.41614  -0.41465
 Alpha  occ. eigenvalues --   -0.41312  -0.41083  -0.40527  -0.40511  -0.39984
 Alpha  occ. eigenvalues --   -0.39824  -0.39789  -0.39606  -0.39393  -0.39301
 Alpha  occ. eigenvalues --   -0.39244  -0.38746  -0.38633  -0.38596  -0.38027
 Alpha  occ. eigenvalues --   -0.37852  -0.37704  -0.37525  -0.36922  -0.36821
 Alpha  occ. eigenvalues --   -0.36666  -0.36282  -0.35530  -0.35005  -0.34853
 Alpha  occ. eigenvalues --   -0.34690  -0.34516  -0.34498  -0.34433  -0.34149
 Alpha  occ. eigenvalues --   -0.33984  -0.33964  -0.33905  -0.33814  -0.33540
 Alpha  occ. eigenvalues --   -0.32491  -0.32260  -0.32044  -0.31847  -0.31594
 Alpha  occ. eigenvalues --   -0.30199  -0.28348  -0.27711  -0.27659  -0.26877
 Alpha  occ. eigenvalues --   -0.26499  -0.25646  -0.25445  -0.24918  -0.24899
 Alpha  occ. eigenvalues --   -0.24765  -0.23620
 Alpha virt. eigenvalues --   -0.07753  -0.05664  -0.04704  -0.04619  -0.02693
 Alpha virt. eigenvalues --    0.02964   0.03899   0.04441   0.04591   0.04666
 Alpha virt. eigenvalues --    0.05022   0.05528   0.05563   0.05618   0.05796

 Mulliken charges:
               1
     1  C    0.422210
     2  C   -0.239346
     3  C   -0.347382
     4  C    0.244657
     5  H    0.133244
     6  C   -0.317658
     7  C    0.382129
     8  H    0.133944
     9  C   -0.355293
    10  C   -0.242814
    11  H    0.239938
    12  C    0.067633
    13  H    0.089014
    14  H    0.092994
    15  C    0.401933
    16  C   -0.263549
    17  C   -0.364515
    18  C    0.415201
    19  H    0.233908
    20  C   -0.333540
    21  C    0.317584
    22  H    0.115665
    23  C   -0.403083
    24  C   -0.102335
    25  H    0.116379
    26  C   -0.268475
    27  H    0.086444
    28  C    0.054867
    29  C    0.057132
    30  N   -0.190742
    31  H    0.079451
    32  C   -0.044911
    33  N   -0.190219
    34  H    0.082090
    35  C   -0.047459
    36  H    0.100536
    37  C   -0.412673
    38  C   -0.414017
    39  C   -0.381991
    40  O   -0.323526
    41  C    0.056614
    42  C    0.054158
    43  N   -0.187925
    44  H    0.080859
    45  C   -0.047443
    46  N   -0.190600
    47  H    0.079289
    48  C   -0.045492
    49  H    0.104760
    50  C   -0.413687
    51  H    0.101283
    52  C   -0.413225
    53  C    0.146296
    54  C   -0.087788
    55  N   -0.316079
    56  H    0.067880
    57  C   -0.137327
    58  C   -0.042690
    59  H    0.088558
    60  C   -0.360933
    61  H    0.083831
    62  C   -0.406885
    63  H    0.086581
    64  H    0.091050
    65  C   -0.382632
    66  H    0.104264
    67  C   -0.382404
    68  C   -0.382573
    69  C   -0.387698
    70  C   -0.367963
    71  H    0.127703
    72  H    0.135573
    73  H    0.109029
    74  H    0.119638
    75  H    0.128513
    76  H    0.129678
    77  H    0.108155
    78  H    0.127101
    79  H    0.136528
    80  H    0.119405
    81  H    0.129685
    82  H    0.129812
    83  H    0.113894
    84  H    0.125458
    85  H    0.127637
    86  H    0.123566
    87  H    0.133062
    88  H    0.132920
    89  H    0.129453
    90  H    0.110918
    91  H    0.135375
    92  H    0.130615
    93  H    0.113483
    94  H    0.125634
    95  H    0.129571
    96  H    0.119201
    97  H    0.129600
    98  H    0.129890
    99  H    0.119740
   100  H    0.127347
   101  H    0.127070
   102  H    0.137331
   103  H    0.107967
   104  H    0.108274
   105  H    0.127909
   106  H    0.135824
   107  H    0.199439
   108  N   -0.271435
   109  H    0.061421
   110  H    0.086843
   111  H    0.205670
 Sum of Mulliken charges =   0.00000

 Dipole moment (field-independent basis, Debye):
    X=             -5.8545    Y=              2.2381    Z=             -1.0047  Tot=              6.3477
 Quadrupole moment (field-independent basis, Debye-Ang):
   XX=           -313.7580   YY=           -275.9726   ZZ=           -300.0535
   XY=             12.0808   XZ=              1.3685   YZ=              3.6547

 Normal termination of Gaussian 16 at Sun Oct 17 23:17:05 2021.
