 Gaussian 16, Revision C.01,
 Gaussian 16:  ES64L-G16RevC.01  3-Jul-2019

 ----------------------------------------------------------------------
 #P MP2/aug-cc-pVDZ SP SCF=(YQC,MaxCycle=900) int=(Grid=Superfinegrid)
 SCRF=(PCM,Solvent=Chloroform)
 ----------------------------------------------------------------------

 -----------------------------
 _2_alde1_3_ami2_1_opt_cfm_mp2
 -----------------------------
 Symbolic Z-matrix:
 Charge =  0 Multiplicity = 1

                         Standard orientation:
 ---------------------------------------------------------------------
 Center     Atomic      Atomic             Coordinates (Angstroms)
 Number     Number       Type             X           Y           Z
 ---------------------------------------------------------------------
      1          6           0        4.565329    1.026182   -0.050054
      2          6           0        3.990631    2.362203    0.092482
      3          6           0        5.915128    0.883239   -0.359853
      4          6           0        6.476311   -0.383673   -0.500366
      5          1           0        6.537135    1.758635   -0.492314
      6          6           0        5.677098   -1.513775   -0.332793
      7          6           0        4.327046   -1.385635   -0.023428
      8          1           0        6.134195   -2.486577   -0.448608
      9          6           0        3.778344   -0.112080    0.115770
     10          6           0        3.504248   -2.581558    0.145613
     11          1           0        2.730995   -0.005164    0.347488
     12          6           0        7.898657   -0.537265   -0.824256
     13          1           0        4.025418   -3.527257   -0.057592
     14          1           0        4.685188    3.185498   -0.128441
     15          6           0       -1.832403    1.646987   -0.484180
     16          6           0       -0.978796    2.826444   -0.495509
     17          6           0       -1.263213    0.378045   -0.497126
     18          6           0       -2.068177   -0.755394   -0.458894
     19          1           0       -0.191291    0.272858   -0.529108
     20          6           0       -3.453680   -0.609708   -0.411149
     21          6           0       -4.031347    0.651322   -0.411463
     22          1           0       -4.098579   -1.476211   -0.387396
     23          6           0       -3.220392    1.775654   -0.441856
     24          6           0       -5.528187    0.794395   -0.321096
     25          1           0       -3.672112    2.757762   -0.428474
     26          6           0       -1.461676   -2.079199   -0.445883
     27          1           0       -2.154152   -2.931117   -0.333123
     28          6           0        1.111433    3.865156   -0.577773
     29          6           0        2.124162    3.765146    0.597315
     30          7           0        0.270784    2.722128   -0.612651
     31          1           0        1.681989    3.881407   -1.512720
     32          7           0        2.794121    2.507924    0.448533
     33          6           0        1.358203    3.685572    1.923583
     34          8           0        8.474905   -1.586222   -0.964090
     35          6           0        1.401831   -3.583849    0.674529
     36          6           0        0.386718   -3.506480   -0.500144
     37          7           0        2.302981   -2.483580    0.502910
     38          6           0        2.031606   -4.983791    0.682216
     39          7           0       -0.215480   -2.222684   -0.557049
     40          1           0       -0.347107   -4.325497   -0.388795
     41          6           0       -7.372279    0.484720    0.994575
     42          6           0       -7.493729   -0.535756   -0.170562
     43          7           0       -5.968919    0.858303    1.063873
     44          1           0       -7.719826    0.086325    1.945828
     45          7           0       -6.224033   -0.364224   -0.882214
     46          1           0       -1.490560    3.798997   -0.394396
     47          1           0       -5.452869    0.162754    1.596365
     48          1           0       -5.839439    1.741541   -0.803139
     49          1           0       -6.336171   -0.304106   -1.885412
     50          1           0        8.436314    0.426486   -0.937264
     51          1           0        0.551279    4.813072   -0.481878
     52          6           0        3.014029    5.015969    0.580113
     53          6           0        0.668726   -3.331968    1.997860
     54          1           0        0.941811   -3.649897   -1.433439
     55          1           0       -7.946273    1.387035    0.760526
     56          6           0       -7.564184   -1.972786    0.357401
     57          1           0        1.268367   -5.725855    0.901662
     58          1           0        2.801182   -5.044229    1.449308
     59          1           0        2.472903   -5.224036   -0.282902
     60          1           0        3.491886    5.148124   -0.388641
     61          1           0        3.781906    4.940180    1.347762
     62          1           0        2.409836    5.896025    0.784184
     63          1           0       -7.520591   -2.674949   -0.471701
     64          1           0       -8.489129   -2.132861    0.905830
     65          1           0       -6.722316   -2.170472    1.016552
     66          6           0       -8.707083   -0.238331   -1.051852
     67          1           0       -9.620881   -0.289862   -0.464451
     68          1           0       -8.774083   -0.964487   -1.859911
     69          1           0       -8.629391    0.758316   -1.483742
     70          1           0        2.058867    3.666346    2.754954
     71          1           0        0.769119    2.773188    1.942382
     72          1           0        0.699150    4.543069    2.036267
     73          1           0       -0.144570   -4.042631    2.125390
     74          1           0        0.268933   -2.321987    1.998747
     75          1           0        1.361312   -3.434424    2.829784
 ---------------------------------------------------------------------

 SCF Done:  E(RHF) =  -1559.86830311     a.u. after    7 cycles
 SCF Done:  E(RHF) =  -1559.86833420     A.U. after   17 cycles
 E2 =    -0.5424366908D+01 EUMP2 =    -0.15652927011035D+04

 The electronic state is 1-A.
 Alpha  occ. eigenvalues --  -20.57148 -15.55599 -15.55561 -15.55543 -15.55534
 Alpha  occ. eigenvalues --  -15.55500 -15.54279 -11.34721 -11.29099 -11.28407
 Alpha  occ. eigenvalues --  -11.28289 -11.28137 -11.28075 -11.26731 -11.26671
 Alpha  occ. eigenvalues --  -11.26670 -11.26142 -11.26140 -11.25427 -11.25410
 Alpha  occ. eigenvalues --  -11.25387 -11.25356 -11.25269 -11.25204 -11.24992
 Alpha  occ. eigenvalues --  -11.24548 -11.24291 -11.24243 -11.24181 -11.24028
 Alpha  occ. eigenvalues --  -11.23477 -11.21873 -11.21850 -11.21776 -11.21201
 Alpha  occ. eigenvalues --  -11.21037 -11.21021  -1.40840  -1.28197  -1.26085
 Alpha  occ. eigenvalues --   -1.25847  -1.23764  -1.23258  -1.18013  -1.16470
 Alpha  occ. eigenvalues --   -1.14952  -1.09323  -1.08402  -1.06945  -1.05397
 Alpha  occ. eigenvalues --   -1.04248  -1.03138  -1.02181  -0.94814  -0.94637
 Alpha  occ. eigenvalues --   -0.93981  -0.93898  -0.93737  -0.92068  -0.90854
 Alpha  occ. eigenvalues --   -0.89501  -0.88086  -0.87003  -0.85272  -0.83644
 Alpha  occ. eigenvalues --   -0.80173  -0.79001  -0.76637  -0.76217  -0.75838
 Alpha  occ. eigenvalues --   -0.74560  -0.72994  -0.70404  -0.69943  -0.69586
 Alpha  occ. eigenvalues --   -0.68097  -0.67302  -0.66882  -0.66298  -0.65708
 Alpha  occ. eigenvalues --   -0.65366  -0.64435  -0.63908  -0.63149  -0.61824
 Alpha  occ. eigenvalues --   -0.61401  -0.61177  -0.61118  -0.60469  -0.60272
 Alpha  occ. eigenvalues --   -0.59942  -0.59632  -0.58195  -0.57999  -0.57045
 Alpha  occ. eigenvalues --   -0.56723  -0.56378  -0.55157  -0.54768  -0.54675
 Alpha  occ. eigenvalues --   -0.54339  -0.53670  -0.53456  -0.53066  -0.52863
 Alpha  occ. eigenvalues --   -0.52791  -0.52349  -0.51570  -0.51448  -0.51083
 Alpha  occ. eigenvalues --   -0.50906  -0.50837  -0.50258  -0.49639  -0.49374
 Alpha  occ. eigenvalues --   -0.47881  -0.47060  -0.46889  -0.46835  -0.46494
 Alpha  occ. eigenvalues --   -0.43395  -0.43368  -0.42986  -0.41166  -0.41111
 Alpha  occ. eigenvalues --   -0.40335  -0.38762  -0.38083  -0.38005  -0.36710
 Alpha  occ. eigenvalues --   -0.33753  -0.33076  -0.32080  -0.31721
 Alpha virt. eigenvalues --    0.03313   0.03448   0.03653   0.04113   0.04198
 Alpha virt. eigenvalues --    0.04429   0.04824   0.04894   0.05002   0.05229
 Alpha virt. eigenvalues --    0.05288   0.05440   0.05947   0.06036   0.06357

 Mulliken charges:
               1
     1  C    0.859575
     2  C   -0.013694
     3  C    0.652131
     4  C    0.055083
     5  H   -0.690075
     6  C   -0.034285
     7  C    1.018871
     8  H   -0.749578
     9  C    0.202186
    10  C    0.022921
    11  H   -0.873915
    12  C    1.291102
    13  H   -0.715209
    14  H   -0.739651
    15  C    0.727350
    16  C    0.518136
    17  C   -0.066406
    18  C    0.954441
    19  H   -1.068520
    20  C    0.585469
    21  C    0.443876
    22  H   -0.820332
    23  C    0.462165
    24  C    0.513404
    25  H   -0.765678
    26  C    0.402669
    27  H   -0.605915
    28  C    1.609947
    29  C   -3.885080
    30  N   -0.307912
    31  H   -0.281640
    32  N    0.492029
    33  C    1.707767
    34  O   -0.844748
    35  C   -3.872994
    36  C    1.524128
    37  N    0.472677
    38  C    1.531104
    39  N   -0.299752
    40  H   -0.121845
    41  C    1.375914
    42  C   -2.278637
    43  N   -0.613682
    44  H   -0.201562
    45  N   -0.337858
    46  H   -0.611746
    47  H    0.093978
    48  H   -0.291546
    49  H   -0.041432
    50  H   -0.316818
    51  H   -0.113850
    52  C    1.518831
    53  C    1.681575
    54  H   -0.281459
    55  H   -0.290179
    56  C    1.118056
    57  H   -0.189059
    58  H    0.084069
    59  H    0.045319
    60  H    0.045479
    61  H    0.083976
    62  H   -0.192121
    63  H   -0.076181
    64  H   -0.015281
    65  H   -0.072980
    66  C    0.989380
    67  H   -0.032859
    68  H   -0.015982
    69  H   -0.033325
    70  H   -0.148505
    71  H   -0.033517
    72  H    0.020936
    73  H    0.025427
    74  H   -0.031115
    75  H   -0.153051
 Sum of Mulliken charges =   0.00000

 Dipole moment (field-independent basis, Debye):
    X=             -5.6581    Y=              2.3868    Z=             -0.2317  Tot=              6.1453
 Quadrupole moment (field-independent basis, Debye-Ang):
   XX=           -220.4953   YY=           -194.8252   ZZ=           -228.8420
   XY=             29.9338   XZ=              9.1079   YZ=             -6.6495

 Normal termination of Gaussian 16 at Mon Nov 15 21:36:09 2021.
