 Gaussian 16, Revision C.01,
 Gaussian 16:  ES64L-G16RevC.01  3-Jul-2019

 ----------------------------------------------------------------------
 #P PBE1PBE/Def2TZVP SP SCF=(YQC,MaxCycle=900) int=(Grid=Superfinegrid)
  EmpiricalDispersion=GD3
 ----------------------------------------------------------------------

 -------------------------
 _2_alde1_4_ami4_1_opt_gas
 -------------------------
 Symbolic Z-matrix:
 Charge =  0 Multiplicity = 1

                         Standard orientation:
 ---------------------------------------------------------------------
 Center     Atomic      Atomic             Coordinates (Angstroms)
 Number     Number       Type             X           Y           Z
 ---------------------------------------------------------------------
      1          6           0       -1.925425   -0.830059    0.491052
      2          6           0       -1.078629   -1.977950    0.793569
      3          6           0       -3.223104   -1.022914    0.010897
      4          6           0       -4.037959    0.059680   -0.270754
      5          1           0       -3.588960   -2.027961   -0.122761
      6          6           0       -3.553429    1.347885   -0.095273
      7          6           0       -2.255682    1.560032    0.365402
      8          1           0       -4.199109    2.184269   -0.318853
      9          6           0       -1.448029    0.463683    0.667373
     10          6           0       -1.742587    2.918240    0.483918
     11          1           0       -0.445637    0.646195    1.024748
     12          6           0       -5.446086   -0.155002   -0.786873
     13          1           0       -2.463295    3.726143    0.273586
     14          1           0       -0.144189   -1.757285    1.331691
     15          6           0        1.843630   -1.191982   -1.189749
     16          6           0        0.993055   -2.370133   -1.281904
     17          6           0        1.283351    0.059253   -1.419477
     18          6           0        2.017588    1.214825   -1.172638
     19          1           0        0.249687    0.135125   -1.729142
     20          6           0        3.346169    1.110973   -0.765222
     21          6           0        3.929173   -0.135659   -0.584684
     22          1           0        3.910533    2.012246   -0.588836
     23          6           0        3.172092   -1.283232   -0.777683
     24          6           0        5.365195   -0.245069   -0.157889
     25          1           0        3.602155   -2.257597   -0.610029
     26          6           0        1.326565    2.491454   -1.229219
     27          1           0        0.362438    2.476123   -1.762732
     28          6           0        0.310784   -4.479024   -0.589118
     29          6           0       -0.536139   -4.245849    0.687542
     30          7           0        1.273388   -3.430822   -0.656391
     31          7           0       -1.415319   -3.148346    0.456234
     32          6           0       -6.455716   -1.020464    1.085168
     33          6           0       -6.670195    0.525099    1.034457
     34          7           0       -5.989420   -1.396423   -0.243759
     35          7           0       -6.312376    0.928509   -0.320821
     36          6           0        0.011813    4.452677    0.771299
     37          6           0        0.853998    4.630904   -0.517154
     38          7           0       -0.536679    3.137099    0.777609
     39          7           0        1.743774    3.517755   -0.624872
     40          6           0        6.915102   -1.139863    1.288219
     41          6           0        7.040724    0.418009    1.272391
     42          7           0        5.645982   -1.439591    0.641015
     43          7           0        5.835031    0.903946    0.616964
     44          1           0        0.070033   -2.254090   -1.870648
     45          1           0        4.911048   -1.549837    1.335605
     46          1           0        6.009710   -0.306680   -1.050342
     47          1           0        5.128453    1.146213    1.307387
     48          1           0       -7.142816    0.974446   -0.904031
     49          1           0       -6.766793   -1.711086   -0.816354
     50          1           0       -5.420142   -0.186982   -1.881798
     51          1           0        7.904267    0.718945    0.673467
     52          1           0        7.145741    0.841467    2.270723
     53          1           0        6.952818   -1.554509    2.295130
     54          1           0        7.718081   -1.587472    0.696682
     55          1           0       -5.991339    1.020952    1.732293
     56          1           0       -7.692410    0.816343    1.274002
     57          1           0       -5.674048   -1.267485    1.807128
     58          1           0       -7.362804   -1.561757    1.351788
     59          1           0        0.154090   -4.077299    1.527884
     60          1           0       -1.145854   -5.132832    0.872642
     61          1           0       -0.368559   -4.503679   -1.454194
     62          1           0        0.839305   -5.429580   -0.495172
     63          1           0        1.437011    5.550797   -0.441318
     64          1           0        0.160343    4.697475   -1.372023
     65          1           0       -0.751733    5.247253    0.803198
     66          1           0        0.673761    4.534160    1.636535
 ---------------------------------------------------------------------

 SCF Done:  E(RPBE1PBE) =  -1446.82702297     a.u. after    6 cycles
 SCF Done:  E(RPBE1PBE) =  -1446.82704225     A.U. after    9 cycles

 The electronic state is 1-A.
 Alpha  occ. eigenvalues --  -14.37709 -14.37512 -14.37295 -14.37093 -14.36969
 Alpha  occ. eigenvalues --  -14.36549 -14.36460 -14.36439 -10.28400 -10.27179
 Alpha  occ. eigenvalues --  -10.26550 -10.26079 -10.25948 -10.25545 -10.24862
 Alpha  occ. eigenvalues --  -10.24642 -10.24576 -10.24543 -10.24504 -10.24471
 Alpha  occ. eigenvalues --  -10.23738 -10.23717 -10.23587 -10.23483 -10.23446
 Alpha  occ. eigenvalues --  -10.23342 -10.23262 -10.23168 -10.22943 -10.22941
 Alpha  occ. eigenvalues --  -10.22867 -10.22302 -10.22291 -10.22279  -0.99923
 Alpha  occ. eigenvalues --   -0.98724  -0.97062  -0.96936  -0.94380  -0.94050
 Alpha  occ. eigenvalues --   -0.89355  -0.88728  -0.88264  -0.87151  -0.81596
 Alpha  occ. eigenvalues --   -0.81032  -0.80259  -0.79316  -0.77006  -0.75292
 Alpha  occ. eigenvalues --   -0.74639  -0.74003  -0.69149  -0.68867  -0.66952
 Alpha  occ. eigenvalues --   -0.66064  -0.65679  -0.63295  -0.62864  -0.62194
 Alpha  occ. eigenvalues --   -0.61407  -0.60478  -0.59422  -0.57271  -0.55793
 Alpha  occ. eigenvalues --   -0.55629  -0.55064  -0.53758  -0.53099  -0.52019
 Alpha  occ. eigenvalues --   -0.50922  -0.50645  -0.49760  -0.49715  -0.48994
 Alpha  occ. eigenvalues --   -0.48269  -0.47780  -0.47591  -0.47501  -0.46794
 Alpha  occ. eigenvalues --   -0.46201  -0.45931  -0.45337  -0.45245  -0.44848
 Alpha  occ. eigenvalues --   -0.44522  -0.44070  -0.43666  -0.41541  -0.41179
 Alpha  occ. eigenvalues --   -0.40803  -0.40388  -0.40064  -0.39972  -0.39644
 Alpha  occ. eigenvalues --   -0.39103  -0.38955  -0.38680  -0.38052  -0.36702
 Alpha  occ. eigenvalues --   -0.36594  -0.36082  -0.35591  -0.35222  -0.35187
 Alpha  occ. eigenvalues --   -0.34916  -0.34545  -0.33909  -0.32131  -0.30782
 Alpha  occ. eigenvalues --   -0.27648  -0.26844  -0.26549  -0.26194  -0.26157
 Alpha  occ. eigenvalues --   -0.25916  -0.25740  -0.25661  -0.25069  -0.24593
 Alpha  occ. eigenvalues --   -0.24125  -0.23629
 Alpha virt. eigenvalues --   -0.05509  -0.05123  -0.03951  -0.02507   0.00878
 Alpha virt. eigenvalues --    0.01449   0.03568   0.04173   0.05354   0.05701
 Alpha virt. eigenvalues --    0.06155   0.06679   0.07117   0.07200   0.07611

 Mulliken charges:
               1
     1  C    0.422393
     2  C   -0.173217
     3  C   -0.385136
     4  C    0.116269
     5  H    0.139334
     6  C   -0.349922
     7  C    0.389297
     8  H    0.125969
     9  C   -0.393131
    10  C   -0.180514
    11  H    0.141927
    12  C    0.157745
    13  H    0.065087
    14  H    0.091353
    15  C    0.347566
    16  C   -0.176720
    17  C   -0.314940
    18  C    0.338896
    19  H    0.133232
    20  C   -0.390788
    21  C    0.228379
    22  H    0.146969
    23  C   -0.384792
    24  C   -0.031163
    25  H    0.146109
    26  C   -0.116508
    27  H    0.066133
    28  C   -0.074945
    29  C   -0.083992
    30  N   -0.191324
    31  N   -0.181250
    32  C   -0.148344
    33  C   -0.148123
    34  N   -0.323192
    35  N   -0.329784
    36  C   -0.108017
    37  C   -0.071509
    38  N   -0.168321
    39  N   -0.174392
    40  C   -0.167442
    41  C   -0.168054
    42  N   -0.266125
    43  N   -0.266573
    44  H    0.092627
    45  H    0.194711
    46  H    0.088798
    47  H    0.196467
    48  H    0.185408
    49  H    0.185049
    50  H    0.109926
    51  H    0.101574
    52  H    0.113163
    53  H    0.112982
    54  H    0.101302
    55  H    0.101202
    56  H    0.119695
    57  H    0.104594
    58  H    0.119519
    59  H    0.079924
    60  H    0.118684
    61  H    0.081183
    62  H    0.117742
    63  H    0.114543
    64  H    0.080951
    65  H    0.082088
    66  H    0.109430
 Sum of Mulliken charges =   0.00000

 Dipole moment (field-independent basis, Debye):
    X=             -4.7921    Y=              0.6392    Z=              0.6628  Tot=              4.8798
 Quadrupole moment (field-independent basis, Debye-Ang):
   XX=           -169.8085   YY=           -199.5809   ZZ=           -194.6384
   XY=             -3.2027   XZ=             14.6991   YZ=             -1.0509

 Normal termination of Gaussian 16 at Mon Oct 18 09:37:11 2021.
