 Gaussian 16, Revision C.01,
 Gaussian 16:  ES64L-G16RevC.01  3-Jul-2019

 ----------------------------------------------------------------------
 #P MP2/aug-cc-pVDZ SP SCF=(YQC,MaxCycle=900) int=(Grid=Superfinegrid)
 SCRF=(PCM,Solvent=Dichloromethane)
 ----------------------------------------------------------------------

 -----------------------------
 _2_alde1_4_ami4_2_opt_dcm_mp2
 -----------------------------
 Symbolic Z-matrix:
 Charge =  0 Multiplicity = 1

                         Standard orientation:
 ---------------------------------------------------------------------
 Center     Atomic      Atomic             Coordinates (Angstroms)
 Number     Number       Type             X           Y           Z
 ---------------------------------------------------------------------
      1          6           0        1.835827    2.034753    0.314493
      2          6           0        1.469435    3.399659   -0.028876
      3          6           0        2.686607    1.286280   -0.497701
      4          6           0        2.947952   -0.048215   -0.206480
      5          1           0        3.129514    1.765779   -1.357393
      6          6           0        2.315611   -0.648269    0.883759
      7          6           0        1.467349    0.086467    1.703190
      8          1           0        2.502444   -1.694292    1.073372
      9          6           0        1.254802    1.436343    1.426444
     10          6           0        0.733969   -0.560413    2.782965
     11          1           0        0.600648    1.993141    2.078695
     12          6           0        3.856963   -0.812213   -1.048796
     13          1           0        0.720419   -1.661063    2.754746
     14          1           0        0.869919    3.929118    0.726162
     15          1           0        4.286244   -0.269054   -1.905245
     16          6           0       -1.931724    1.855071   -1.258369
     17          6           0       -1.259167    2.888185   -2.033395
     18          6           0       -1.954845    1.926772    0.132138
     19          6           0       -2.469811    0.880233    0.891503
     20          1           0       -1.531894    2.800079    0.603247
     21          6           0       -3.022738   -0.223115    0.247324
     22          6           0       -3.051861   -0.287954   -1.143592
     23          1           0       -3.427789   -1.035875    0.827433
     24          6           0       -2.482514    0.743048   -1.888940
     25          6           0       -3.647335   -1.430766   -1.823952
     26          1           0       -2.471940    0.680304   -2.968844
     27          6           0       -2.331744    0.927923    2.339232
     28          1           0       -3.600983   -1.412083   -2.924739
     29          1           0       -1.985683    1.890176    2.746214
     30          6           0       -0.122559    4.909774   -2.276174
     31          6           0        1.161448    5.185118   -1.459729
     32          7           0       -0.927371    3.996210   -1.531617
     33          7           0        1.757935    3.924717   -1.140493
     34          6           0        5.058741   -2.727844   -1.630615
     35          6           0        6.287359   -3.129720   -0.780888
     36          7           0        4.132315   -2.020004   -0.810428
     37          7           0        5.984140   -3.955455    0.365134
     38          6           0       -0.727707   -0.568972    4.599929
     39          6           0       -2.150656    0.018278    4.454090
     40          7           0        0.117935    0.098486    3.663686
     41          7           0       -2.525729   -0.077152    3.077392
     42          6           0       -4.021856   -4.770114   -1.449738
     43          6           0       -4.745683   -3.490100   -1.883404
     44          7           0       -2.676743   -4.776127   -2.001909
     45          7           0       -4.188700   -2.375161   -1.188486
     46          1           0       -1.024159    2.622924   -3.076622
     47          1           0        5.326444   -3.466674    0.963930
     48          1           0        5.539405   -4.817986    0.067126
     49          1           0       -2.161837   -3.974857   -1.649082
     50          1           0       -2.181423   -5.612653   -1.713203
     51          1           0       -2.134533    1.059507    4.810791
     52          1           0       -2.845302   -0.572818    5.053907
     53          1           0       -0.756915   -1.658325    4.439775
     54          1           0       -0.368172   -0.357996    5.610818
     55          1           0        6.774502   -2.220372   -0.417902
     56          1           0        6.991961   -3.668524   -1.420241
     57          1           0        5.392665   -2.143645   -2.504807
     58          1           0        4.560634   -3.639671   -1.978209
     59          1           0        0.884333    5.754003   -0.559522
     60          1           0        1.857351    5.764075   -2.069983
     61          1           0        0.145824    4.521315   -3.271583
     62          1           0       -0.669442    5.850097   -2.387368
     63          1           0       -4.553531   -5.635612   -1.854098
     64          1           0       -4.046917   -4.823140   -0.349952
     65          1           0       -5.796503   -3.566829   -1.588581
     66          1           0       -4.676926   -3.388904   -2.978290
 ---------------------------------------------------------------------

 SCF Done:  E(RHF) =  -1438.90039640     a.u. after    7 cycles
 SCF Done:  E(RHF) =  -1438.90044105     A.U. after   13 cycles
 E2 =    -0.4968496463D+01 EUMP2 =    -0.14438689375147D+04

 The electronic state is 1-A.
 Alpha  occ. eigenvalues --  -15.56531 -15.56505 -15.56491 -15.56446 -15.56162
 Alpha  occ. eigenvalues --  -15.56104 -15.54789 -15.54578 -11.29012 -11.28959
 Alpha  occ. eigenvalues --  -11.28930 -11.28907 -11.28771 -11.28661 -11.25987
 Alpha  occ. eigenvalues --  -11.25977 -11.25900 -11.25737 -11.25665 -11.25611
 Alpha  occ. eigenvalues --  -11.25575 -11.25565 -11.25559 -11.25393 -11.25363
 Alpha  occ. eigenvalues --  -11.25357 -11.25338 -11.25325 -11.25308 -11.25304
 Alpha  occ. eigenvalues --  -11.25266 -11.25254 -11.25235 -11.25119  -1.26688
 Alpha  occ. eigenvalues --   -1.26449  -1.25403  -1.25318  -1.23724  -1.23265
 Alpha  occ. eigenvalues --   -1.18420  -1.18185  -1.17321  -1.16787  -1.07813
 Alpha  occ. eigenvalues --   -1.07127  -1.06261  -1.05667  -1.01278  -0.99688
 Alpha  occ. eigenvalues --   -0.98540  -0.98181  -0.91814  -0.91475  -0.89223
 Alpha  occ. eigenvalues --   -0.88623  -0.87553  -0.84995  -0.83277  -0.82673
 Alpha  occ. eigenvalues --   -0.80983  -0.79209  -0.76845  -0.75131  -0.74936
 Alpha  occ. eigenvalues --   -0.73939  -0.71428  -0.70699  -0.69446  -0.68637
 Alpha  occ. eigenvalues --   -0.67692  -0.67372  -0.67011  -0.66493  -0.66364
 Alpha  occ. eigenvalues --   -0.65780  -0.64727  -0.64312  -0.63911  -0.63008
 Alpha  occ. eigenvalues --   -0.61771  -0.61701  -0.61254  -0.60198  -0.59832
 Alpha  occ. eigenvalues --   -0.59782  -0.59305  -0.58982  -0.56642  -0.55518
 Alpha  occ. eigenvalues --   -0.55187  -0.54848  -0.54801  -0.54133  -0.53945
 Alpha  occ. eigenvalues --   -0.53863  -0.53336  -0.53056  -0.51914  -0.51319
 Alpha  occ. eigenvalues --   -0.50606  -0.49942  -0.49474  -0.49245  -0.46309
 Alpha  occ. eigenvalues --   -0.45977  -0.45779  -0.45276  -0.41701  -0.41222
 Alpha  occ. eigenvalues --   -0.41061  -0.40887  -0.40834  -0.40754  -0.40432
 Alpha  occ. eigenvalues --   -0.39996  -0.39075  -0.38403  -0.33275  -0.32775
 Alpha  occ. eigenvalues --   -0.32570  -0.32039
 Alpha virt. eigenvalues --    0.03309   0.03683   0.03882   0.04054   0.04485
 Alpha virt. eigenvalues --    0.04588   0.04663   0.04853   0.05021   0.05282
 Alpha virt. eigenvalues --    0.05583   0.05819   0.05930   0.06031   0.06244

 Mulliken charges:
               1
     1  C    0.860374
     2  C    0.876608
     3  C    0.580762
     4  C    0.912167
     5  H   -0.879598
     6  C   -0.008481
     7  C    0.571906
     8  H   -0.773695
     9  C    0.376749
    10  C    1.218192
    11  H   -1.000320
    12  C    0.706807
    13  H   -0.676177
    14  H   -0.638942
    15  H   -0.628967
    16  C    0.347490
    17  C    1.190322
    18  C    0.089416
    19  C    1.245107
    20  H   -0.998979
    21  C   -0.157897
    22  C    0.694925
    23  H   -0.953120
    24  C    0.948470
    25  C    0.652221
    26  H   -0.717252
    27  C    0.922323
    28  H   -0.659760
    29  H   -0.622749
    30  C    0.706073
    31  C    0.548292
    32  N   -0.783372
    33  N   -0.885639
    34  C    0.530796
    35  C    0.875896
    36  N   -0.542329
    37  N   -0.493920
    38  C    0.678712
    39  C    0.567889
    40  N   -0.789483
    41  N   -0.869675
    42  C    0.883819
    43  C    0.583833
    44  N   -0.452752
    45  N   -0.586128
    46  H   -0.704013
    47  H    0.044545
    48  H    0.043955
    49  H    0.051518
    50  H   -0.017407
    51  H   -0.108324
    52  H   -0.315231
    53  H   -0.118053
    54  H   -0.244930
    55  H   -0.151118
    56  H   -0.134405
    57  H   -0.104165
    58  H   -0.300293
    59  H   -0.100633
    60  H   -0.309420
    61  H   -0.111623
    62  H   -0.237095
    63  H   -0.152884
    64  H   -0.128959
    65  H   -0.254875
    66  H   -0.096502
 Sum of Mulliken charges =   0.00000

 Dipole moment (field-independent basis, Debye):
    X=             -0.4651    Y=              1.1546    Z=             -2.7250  Tot=              2.9959
 Quadrupole moment (field-independent basis, Debye-Ang):
   XX=           -227.7193   YY=           -193.7319   ZZ=           -189.6405
   XY=              6.1999   XZ=             -9.0847   YZ=             -2.4053

 Normal termination of Gaussian 16 at Sat Nov  6 18:08:52 2021.
