 Gaussian 16, Revision C.01,
 Gaussian 16:  ES64L-G16RevC.01  3-Jul-2019

 ----------------------------------------------------------------------
 #P PBE1PBE/Def2TZVP SP SCF=(YQC,MaxCycle=900) int=(Grid=Superfinegrid)
  EmpiricalDispersion=GD3 SCRF=(PCM,Solvent=Dichloromethane)
 ----------------------------------------------------------------------

 -------------------------
 _2_alde1_3_ami1_1_opt_dcm
 -------------------------
 Symbolic Z-matrix:
 Charge =  0 Multiplicity = 1

                         Standard orientation:
 ---------------------------------------------------------------------
 Center     Atomic      Atomic             Coordinates (Angstroms)
 Number     Number       Type             X           Y           Z
 ---------------------------------------------------------------------
      1          6           0        5.276168   -0.848099    0.228012
      2          6           0        4.652270   -2.164646    0.318193
      3          6           0        6.657806   -0.702746    0.287344
      4          6           0        7.237860    0.563799    0.210684
      5          1           0        7.307125   -1.559706    0.397370
      6          6           0        6.429299    1.690238    0.070607
      7          6           0        5.045778    1.555948    0.001662
      8          1           0        6.884191    2.669929    0.011045
      9          6           0        4.479201    0.285626    0.082677
     10          6           0        4.182644    2.722513   -0.155027
     11          1           0        3.407264    0.178794    0.032286
     12          6           0        8.696902    0.700730    0.277992
     13          1           0        4.682564    3.706411   -0.136495
     14          1           0        5.338030   -3.027022    0.367008
     15          6           0       -1.287633   -1.498658   -0.446517
     16          6           0       -0.412550   -2.653770   -0.602958
     17          6           0       -0.733396   -0.247213   -0.200090
     18          6           0       -1.548205    0.869260   -0.047225
     19          1           0        0.336600   -0.142324   -0.127523
     20          6           0       -2.930968    0.725157   -0.146268
     21          6           0       -3.493444   -0.517772   -0.398842
     22          1           0       -3.584634    1.578297   -0.036857
     23          6           0       -2.672529   -1.626405   -0.543444
     24          6           0       -4.990240   -0.669397   -0.468326
     25          1           0       -3.114752   -2.594468   -0.733653
     26          6           0       -0.944824    2.170842    0.210412
     27          1           0       -1.635246    3.030903    0.255856
     28          6           0        1.741082   -3.593904   -0.758617
     29          6           0        2.731350   -3.520395    0.434959
     30          7           0        0.836577   -2.504808   -0.615152
     31          1           0        1.236677   -4.578402   -0.746702
     32          6           0        2.464356   -3.442126   -2.117096
     33          7           0        3.399473   -2.267810    0.345367
     34          1           0        3.422942   -4.381766    0.384936
     35          6           0        1.995698   -3.569982    1.794545
     36          1           0        2.938506   -2.456375   -2.122474
     37          6           0        3.524315   -4.520984   -2.324066
     38          6           0        1.170817   -4.844863    1.950210
     39          6           0        3.008227   -3.474012    2.935054
     40          8           0        9.479877   -0.207307    0.396637
     41          6           0        2.050526    3.670345   -0.467232
     42          6           0        0.946336    3.515686    0.613517
     43          7           0        2.943760    2.575183   -0.308676
     44          1           0        2.545576    4.651494   -0.341395
     45          6           0        1.466763    3.605070   -1.898045
     46          7           0        0.298927    2.272088    0.370187
     47          1           0        0.258936    4.380344    0.550518
     48          6           0        1.539902    3.476745    2.040833
     49          1           0        1.002034    2.621405   -2.011544
     50          6           0        0.424599    4.694003   -2.138516
     51          1           0        2.199525    2.605651    2.092405
     52          6           0        2.333581    4.739736    2.365037
     53          6           0       -7.004507    0.550341   -0.331099
     54          6           0       -6.957205   -0.578672    0.739992
     55          7           0       -5.649662    0.572366   -0.870688
     56          1           0       -7.171517    1.516437    0.168204
     57          6           0       -8.123501    0.366443   -1.377890
     58          6           0       -7.522167   -0.191031    2.109091
     59          1           0       -9.045797    0.153470   -0.827458
     60          6           0       -8.326829    1.660442   -2.166233
     61          1           0       -6.943764    0.662517    2.484298
     62          6           0       -8.991816    0.214675    2.026546
     63          1           0       -0.908638   -3.633928   -0.711067
     64          1           0        9.049390    1.750231    0.208481
     65          6           0        1.445796   -3.502467   -3.254749
     66          1           0        1.335031   -2.699311    1.835288
     67          6           0        2.591664    3.739153   -2.923675
     68          6           0        0.417249    3.302427    3.062699
     69          6           0       -7.866090   -0.794652   -2.337604
     70          6           0       -7.365116   -1.358441    3.082932
     71          1           0        2.494928   -3.490376    3.893684
     72          1           0        3.578205   -2.550807    2.867951
     73          1           0        3.700300   -4.314245    2.902406
     74          1           0        3.095160   -5.511419   -2.181686
     75          1           0        4.358057   -4.400289   -1.638488
     76          1           0        3.915732   -4.461195   -3.337313
     77          1           0        0.937845   -4.465801   -3.260343
     78          1           0        1.945092   -3.372879   -4.212179
     79          1           0        0.702040   -2.717072   -3.146699
     80          1           0        1.786257   -5.724333    1.768012
     81          1           0        0.327103   -4.860669    1.266478
     82          1           0        0.778882   -4.906272    2.963128
     83          1           0       -7.419008    1.936021   -2.699625
     84          1           0       -8.589462    2.478790   -1.499247
     85          1           0       -9.126965    1.540492   -2.893412
     86          1           0       -9.586010   -0.597781    1.613248
     87          1           0       -9.127632    1.096093    1.405459
     88          1           0       -9.369019    0.439563    3.021804
     89          1           0       -7.715648   -1.727268   -1.798783
     90          1           0       -6.989470   -0.608965   -2.956056
     91          1           0       -8.719830   -0.920627   -3.000149
     92          1           0       -6.332293   -1.692101    3.118871
     93          1           0       -7.982207   -2.195388    2.763855
     94          1           0       -7.675795   -1.062574    4.082457
     95          1           0        0.135919    4.699788   -3.187386
     96          1           0        0.829556    5.673769   -1.890245
     97          1           0       -0.471573    4.526473   -1.548264
     98          1           0        2.622557    4.732319    3.413817
     99          1           0        1.730800    5.627859    2.183111
    100          1           0        3.240699    4.806321    1.771076
    101          1           0        0.829659    3.250552    4.067679
    102          1           0       -0.136718    2.386850    2.871658
    103          1           0       -0.272709    4.143885    3.017820
    104          1           0        3.094656    4.699028   -2.814800
    105          1           0        2.188628    3.676505   -3.931737
    106          1           0        3.324043    2.945630   -2.798546
    107          1           0       -5.624430    0.720234   -1.870898
    108          7           0       -5.551008   -0.965356    0.837978
    109          1           0       -7.505264   -1.453983    0.369472
    110          1           0       -5.242212   -1.518073   -1.132678
    111          1           0       -5.090413   -0.367471    1.520946
 ---------------------------------------------------------------------

 SCF Done:  E(RPBE1PBE) =  -2039.89899118     a.u. after    7 cycles
 SCF Done:  E(RPBE1PBE) =  -2039.89900001     A.U. after    8 cycles

 The electronic state is 1-A.
 Alpha  occ. eigenvalues --  -19.21156 -14.37530 -14.37522 -14.37068 -14.37022
 Alpha  occ. eigenvalues --  -14.37012 -14.36482 -10.31645 -10.27679 -10.26695
 Alpha  occ. eigenvalues --  -10.26628 -10.26188 -10.26158 -10.25206 -10.25063
 Alpha  occ. eigenvalues --  -10.25016 -10.24954 -10.24940 -10.24843 -10.24814
 Alpha  occ. eigenvalues --  -10.24797 -10.24746 -10.24530 -10.24306 -10.24025
 Alpha  occ. eigenvalues --  -10.23600 -10.23590 -10.23518 -10.23309 -10.22939
 Alpha  occ. eigenvalues --  -10.22669 -10.22405 -10.22308 -10.22240 -10.22189
 Alpha  occ. eigenvalues --  -10.22187 -10.22179 -10.20604 -10.20562 -10.20503
 Alpha  occ. eigenvalues --  -10.20404 -10.20397 -10.20368 -10.20341 -10.20114
 Alpha  occ. eigenvalues --  -10.20041 -10.19980 -10.19972 -10.19968  -1.08917
 Alpha  occ. eigenvalues --   -0.99396  -0.97629  -0.97453  -0.95518  -0.95122
 Alpha  occ. eigenvalues --   -0.90797  -0.89456  -0.88466  -0.84600  -0.84304
 Alpha  occ. eigenvalues --   -0.83463  -0.82358  -0.82081  -0.80871  -0.80531
 Alpha  occ. eigenvalues --   -0.80299  -0.79455  -0.79101  -0.74888  -0.74504
 Alpha  occ. eigenvalues --   -0.73022  -0.70661  -0.70586  -0.70504  -0.70413
 Alpha  occ. eigenvalues --   -0.70307  -0.70271  -0.69241  -0.69028  -0.68482
 Alpha  occ. eigenvalues --   -0.66470  -0.65402  -0.64471  -0.64092  -0.63435
 Alpha  occ. eigenvalues --   -0.63114  -0.59937  -0.58857  -0.58430  -0.58064
 Alpha  occ. eigenvalues --   -0.57964  -0.57706  -0.57507  -0.57167  -0.56792
 Alpha  occ. eigenvalues --   -0.54968  -0.54256  -0.53731  -0.52791  -0.52329
 Alpha  occ. eigenvalues --   -0.51167  -0.50470  -0.50118  -0.49456  -0.49303
 Alpha  occ. eigenvalues --   -0.48767  -0.48580  -0.47962  -0.47837  -0.47732
 Alpha  occ. eigenvalues --   -0.47290  -0.46769  -0.46541  -0.46143  -0.45902
 Alpha  occ. eigenvalues --   -0.45789  -0.45274  -0.45017  -0.44761  -0.44461
 Alpha  occ. eigenvalues --   -0.44273  -0.44146  -0.43858  -0.43329  -0.42758
 Alpha  occ. eigenvalues --   -0.42192  -0.41983  -0.41747  -0.41643  -0.41531
 Alpha  occ. eigenvalues --   -0.41353  -0.41120  -0.40608  -0.40570  -0.39933
 Alpha  occ. eigenvalues --   -0.39813  -0.39788  -0.39622  -0.39408  -0.39312
 Alpha  occ. eigenvalues --   -0.39270  -0.38799  -0.38695  -0.38581  -0.38079
 Alpha  occ. eigenvalues --   -0.37847  -0.37738  -0.37593  -0.36964  -0.36877
 Alpha  occ. eigenvalues --   -0.36713  -0.36336  -0.35547  -0.35052  -0.34894
 Alpha  occ. eigenvalues --   -0.34658  -0.34539  -0.34483  -0.34454  -0.34183
 Alpha  occ. eigenvalues --   -0.34033  -0.34008  -0.33960  -0.33804  -0.33505
 Alpha  occ. eigenvalues --   -0.32572  -0.32306  -0.32092  -0.31812  -0.31657
 Alpha  occ. eigenvalues --   -0.30281  -0.28496  -0.27846  -0.27798  -0.26991
 Alpha  occ. eigenvalues --   -0.26590  -0.25721  -0.25576  -0.25047  -0.25019
 Alpha  occ. eigenvalues --   -0.24868  -0.23631
 Alpha virt. eigenvalues --   -0.07869  -0.05743  -0.04843  -0.04747  -0.02783
 Alpha virt. eigenvalues --    0.02868   0.04000   0.04481   0.04585   0.04727
 Alpha virt. eigenvalues --    0.05089   0.05421   0.05499   0.05569   0.05794

 Mulliken charges:
               1
     1  C    0.420374
     2  C   -0.240081
     3  C   -0.347411
     4  C    0.245790
     5  H    0.133643
     6  C   -0.317627
     7  C    0.382105
     8  H    0.138331
     9  C   -0.355309
    10  C   -0.243363
    11  H    0.230510
    12  C    0.071561
    13  H    0.094329
    14  H    0.097184
    15  C    0.401863
    16  C   -0.264824
    17  C   -0.366969
    18  C    0.413362
    19  H    0.225264
    20  C   -0.332457
    21  C    0.321215
    22  H    0.115930
    23  C   -0.407626
    24  C   -0.099272
    25  H    0.120332
    26  C   -0.269906
    27  H    0.090981
    28  C    0.054167
    29  C    0.055995
    30  N   -0.194982
    31  H    0.083555
    32  C   -0.043679
    33  N   -0.194729
    34  H    0.086088
    35  C   -0.045568
    36  H    0.097685
    37  C   -0.416553
    38  C   -0.417854
    39  C   -0.383515
    40  O   -0.331008
    41  C    0.055693
    42  C    0.053041
    43  N   -0.192525
    44  H    0.085156
    45  C   -0.045787
    46  N   -0.194698
    47  H    0.083412
    48  C   -0.044112
    49  H    0.100923
    50  C   -0.417463
    51  H    0.098262
    52  C   -0.417138
    53  C    0.141847
    54  C   -0.089042
    55  N   -0.320716
    56  H    0.069786
    57  C   -0.134593
    58  C   -0.038946
    59  H    0.089334
    60  C   -0.365612
    61  H    0.085236
    62  C   -0.410543
    63  H    0.091331
    64  H    0.095630
    65  C   -0.383811
    66  H    0.100605
    67  C   -0.383741
    68  C   -0.383803
    69  C   -0.391061
    70  C   -0.372651
    71  H    0.129089
    72  H    0.134412
    73  H    0.111151
    74  H    0.121418
    75  H    0.130317
    76  H    0.130672
    77  H    0.110440
    78  H    0.128596
    79  H    0.134867
    80  H    0.121266
    81  H    0.131384
    82  H    0.130805
    83  H    0.115465
    84  H    0.126423
    85  H    0.128546
    86  H    0.124875
    87  H    0.134397
    88  H    0.133803
    89  H    0.129912
    90  H    0.112865
    91  H    0.136269
    92  H    0.129168
    93  H    0.115035
    94  H    0.127101
    95  H    0.130638
    96  H    0.121120
    97  H    0.131236
    98  H    0.130798
    99  H    0.121442
   100  H    0.129723
   101  H    0.128528
   102  H    0.135493
   103  H    0.110269
   104  H    0.110664
   105  H    0.129217
   106  H    0.134552
   107  H    0.202660
   108  N   -0.278676
   109  H    0.064152
   110  H    0.090202
   111  H    0.208160
 Sum of Mulliken charges =  -0.00000

 Dipole moment (field-independent basis, Debye):
    X=             -5.9337    Y=              2.3909    Z=             -1.0597  Tot=              6.4845
 Quadrupole moment (field-independent basis, Debye-Ang):
   XX=           -311.7527   YY=           -273.2259   ZZ=           -299.9296
   XY=             12.6020   XZ=              1.5522   YZ=              3.9058

 Normal termination of Gaussian 16 at Sun Oct 17 23:10:47 2021.
