 Gaussian 16, Revision C.01,
 Gaussian 16:  ES64L-G16RevC.01  3-Jul-2019

 ----------------------------------------------------------------------
 #P PBE1PBE/Def2TZVP SP SCF=(YQC,MaxCycle=900) int=(Grid=Superfinegrid)
  EmpiricalDispersion=GD3 SCRF=(PCM,Solvent=Dichloromethane)
 ----------------------------------------------------------------------

 -------------------------
 _2_alde1_3_ami1_2_opt_dcm
 -------------------------
 Symbolic Z-matrix:
 Charge =  0 Multiplicity = 1

                         Standard orientation:
 ---------------------------------------------------------------------
 Center     Atomic      Atomic             Coordinates (Angstroms)
 Number     Number       Type             X           Y           Z
 ---------------------------------------------------------------------
      1          6           0       -1.064629    1.426067   -1.894340
      2          6           0       -1.152811    2.840950   -1.565912
      3          6           0        0.139457    0.905012   -2.351602
      4          6           0        0.296484   -0.470816   -2.523429
      5          1           0        0.981298    1.550595   -2.557010
      6          6           0       -0.753453   -1.328527   -2.221937
      7          6           0       -1.960803   -0.822049   -1.742619
      8          1           0       -0.641482   -2.398368   -2.308329
      9          6           0       -2.113687    0.553228   -1.601937
     10          6           0       -2.964972   -1.728690   -1.204980
     11          1           0       -3.031882    0.971615   -1.218315
     12          6           0        1.596252   -1.008377   -2.934803
     13          1           0       -3.834084   -1.253047   -0.727133
     14          1           0       -0.225424    3.414162   -1.716192
     15          6           0       -0.509792    1.120698    1.415673
     16          6           0       -1.386649    2.279637    1.459952
     17          6           0       -1.071484   -0.150167    1.445456
     18          6           0       -0.286800   -1.284149    1.238139
     19          1           0       -2.131603   -0.284237    1.596334
     20          6           0        1.079692   -1.133726    1.034079
     21          6           0        1.666120    0.132831    1.038038
     22          1           0        1.713439   -1.991423    0.866128
     23          6           0        0.864263    1.254062    1.217644
     24          6           0        3.106112    0.284441    0.873639
     25          1           0        1.286437    2.247224    1.193378
     26          6           0       -0.911601   -2.594968    1.129741
     27          1           0       -0.243971   -3.419930    0.836804
     28          6           0       -1.947681    4.492313    1.053693
     29          6           0       -2.095472    4.671853   -0.495045
     30          7           0       -0.979212    3.456720    1.257722
     31          1           0       -2.934924    4.184525    1.437705
     32          6           0       -1.503521    5.775306    1.776555
     33          7           0       -2.181362    3.354670   -1.047189
     34          1           0       -1.187532    5.187088   -0.850690
     35          6           0       -3.332117    5.493965   -0.897296
     36          1           0       -2.183017    6.585394    1.492585
     37          6           0       -1.621638    5.552372    3.284524
     38          6           0       -3.237932    5.826746   -2.386572
     39          6           0       -4.636205    4.753828   -0.613069
     40          8           0        2.596156   -0.353858   -3.097782
     41          6           0       -3.589038   -3.795368   -0.340209
     42          6           0       -2.767400   -4.006728    0.975990
     43          7           0       -2.771882   -2.974580   -1.176719
     44          1           0       -4.522837   -3.277175   -0.063739
     45          6           0       -3.931477   -5.115514   -1.051230
     46          7           0       -2.151957   -2.754061    1.290167
     47          1           0       -2.007614   -4.779804    0.768991
     48          6           0       -3.646650   -4.468885    2.153441
     49          1           0       -4.320477   -5.816977   -0.305502
     50          6           0       -5.023367   -4.853930   -2.088287
     51          1           0       -4.293272   -5.278692    1.799514
     52          6           0       -2.749432   -5.014605    3.263939
     53          6           0        5.847009   -1.164662   -0.687808
     54          6           0        5.278880   -0.542911    0.630685
     55          7           0        4.900926   -1.980887   -1.426745
     56          1           0        6.665562   -1.840893   -0.404075
     57          6           0        6.455988   -0.116300   -1.640701
     58          7           0        3.861113   -0.705025    0.681207
     59          1           0        5.557145    0.523647    0.681597
     60          6           0        5.885242   -1.225308    1.881557
     61          1           0        6.667122   -0.663197   -2.566006
     62          6           0        5.510368    1.033004   -1.985681
     63          1           0        6.973913   -1.208671    1.756230
     64          6           0        5.534837   -0.434483    3.140768
     65          1           0       -2.454701    2.049818    1.596524
     66          1           0        4.385186   -2.567257   -0.779693
     67          1           0        3.487515    1.314439    0.960527
     68          1           0        1.607884   -2.106359   -3.071760
     69          6           0       -0.073242    6.172075    1.421283
     70          1           0       -3.320667    6.431621   -0.332309
     71          6           0       -2.712329   -5.735530   -1.728451
     72          6           0       -4.516963   -3.339565    2.697921
     73          6           0        7.774911    0.426181   -1.092812
     74          6           0        5.421115   -2.672111    2.022460
     75          1           0        4.223770   -1.390457   -1.898667
     76          1           0       -4.791416    4.619319    0.454144
     77          1           0       -4.613811    3.777529   -1.088632
     78          1           0       -5.477003    5.319991   -1.007331
     79          1           0       -2.642216    5.293255    3.559249
     80          1           0       -1.339232    6.452778    3.825118
     81          1           0       -0.964712    4.741439    3.591647
     82          1           0        0.248499    7.000859    2.047906
     83          1           0        0.005862    6.484459    0.383363
     84          1           0        0.589991    5.327580    1.583853
     85          1           0       -3.234427    4.910349   -2.972900
     86          1           0       -2.326008    6.379394   -2.603471
     87          1           0       -4.086940    6.432507   -2.694539
     88          1           0        5.335731    1.676590   -1.125962
     89          1           0        4.553551    0.662664   -2.342062
     90          1           0        5.949911    1.641407   -2.773327
     91          1           0        4.456640   -0.412990    3.289148
     92          1           0        5.893842    0.590575    3.067186
     93          1           0        5.992338   -0.894528    4.013751
     94          1           0        8.219486    1.118510   -1.804296
     95          1           0        8.480318   -0.382771   -0.915899
     96          1           0        7.621163    0.956486   -0.155193
     97          1           0        5.687770   -3.254005    1.144328
     98          1           0        4.341911   -2.703870    2.147906
     99          1           0        5.887582   -3.130109    2.892230
    100          1           0       -5.920175   -4.457549   -1.616267
    101          1           0       -5.285908   -5.774688   -2.603664
    102          1           0       -4.671875   -4.133397   -2.823859
    103          1           0       -2.075120   -4.236235    3.615050
    104          1           0       -2.154709   -5.852503    2.905789
    105          1           0       -3.350764   -5.355603    4.103455
    106          1           0       -5.209750   -2.975343    1.944244
    107          1           0       -3.888926   -2.512971    3.017813
    108          1           0       -5.095694   -3.694499    3.547770
    109          1           0       -2.297927   -5.036871   -2.449373
    110          1           0       -2.999411   -6.648687   -2.244778
    111          1           0       -1.940493   -5.982890   -1.004853
 ---------------------------------------------------------------------

 SCF Done:  E(RPBE1PBE) =  -2039.88034641     a.u. after    6 cycles
 SCF Done:  E(RPBE1PBE) =  -2039.88037362     A.U. after    9 cycles

 The electronic state is 1-A.
 Alpha  occ. eigenvalues --  -19.21636 -14.37771 -14.37685 -14.37617 -14.37533
 Alpha  occ. eigenvalues --  -14.37473 -14.34602 -10.32007 -10.26869 -10.26812
 Alpha  occ. eigenvalues --  -10.26728 -10.26575 -10.26554 -10.25314 -10.25270
 Alpha  occ. eigenvalues --  -10.25254 -10.25201 -10.25081 -10.25069 -10.25025
 Alpha  occ. eigenvalues --  -10.24991 -10.24948 -10.24901 -10.24416 -10.24398
 Alpha  occ. eigenvalues --  -10.24364 -10.24268 -10.23977 -10.23953 -10.23943
 Alpha  occ. eigenvalues --  -10.23901 -10.22595 -10.22544 -10.22512 -10.22463
 Alpha  occ. eigenvalues --  -10.22352 -10.21768 -10.20329 -10.20323 -10.20288
 Alpha  occ. eigenvalues --  -10.20237 -10.20120 -10.20104 -10.20000 -10.19988
 Alpha  occ. eigenvalues --  -10.19971 -10.19948 -10.19899 -10.19700  -1.09409
 Alpha  occ. eigenvalues --   -0.98432  -0.98284  -0.96708  -0.95158  -0.94760
 Alpha  occ. eigenvalues --   -0.91325  -0.90632  -0.89634  -0.85153  -0.84343
 Alpha  occ. eigenvalues --   -0.82943  -0.82565  -0.82063  -0.81056  -0.80868
 Alpha  occ. eigenvalues --   -0.80557  -0.79779  -0.79715  -0.74751  -0.74145
 Alpha  occ. eigenvalues --   -0.72736  -0.70449  -0.70439  -0.70229  -0.70150
 Alpha  occ. eigenvalues --   -0.70113  -0.70040  -0.69618  -0.69374  -0.68750
 Alpha  occ. eigenvalues --   -0.67363  -0.67191  -0.65490  -0.64115  -0.63831
 Alpha  occ. eigenvalues --   -0.62532  -0.60127  -0.59523  -0.58531  -0.57999
 Alpha  occ. eigenvalues --   -0.57581  -0.56864  -0.56716  -0.55738  -0.55271
 Alpha  occ. eigenvalues --   -0.55211  -0.54268  -0.53778  -0.52362  -0.52137
 Alpha  occ. eigenvalues --   -0.51139  -0.50876  -0.50385  -0.50241  -0.49871
 Alpha  occ. eigenvalues --   -0.49371  -0.49010  -0.48870  -0.47994  -0.47732
 Alpha  occ. eigenvalues --   -0.47496  -0.47110  -0.46862  -0.46468  -0.45898
 Alpha  occ. eigenvalues --   -0.45312  -0.45169  -0.45094  -0.44980  -0.44662
 Alpha  occ. eigenvalues --   -0.44101  -0.43848  -0.43614  -0.43323  -0.43302
 Alpha  occ. eigenvalues --   -0.43006  -0.42715  -0.42513  -0.42220  -0.42175
 Alpha  occ. eigenvalues --   -0.41411  -0.40797  -0.40721  -0.40175  -0.40096
 Alpha  occ. eigenvalues --   -0.39806  -0.39706  -0.39503  -0.39388  -0.38987
 Alpha  occ. eigenvalues --   -0.38856  -0.38800  -0.38730  -0.38610  -0.38484
 Alpha  occ. eigenvalues --   -0.37990  -0.37747  -0.37647  -0.36962  -0.36775
 Alpha  occ. eigenvalues --   -0.36225  -0.35528  -0.35085  -0.35074  -0.34984
 Alpha  occ. eigenvalues --   -0.34735  -0.34724  -0.34441  -0.34387  -0.34006
 Alpha  occ. eigenvalues --   -0.33947  -0.33844  -0.33539  -0.33304  -0.33235
 Alpha  occ. eigenvalues --   -0.33041  -0.32556  -0.32420  -0.31870  -0.31742
 Alpha  occ. eigenvalues --   -0.29598  -0.28923  -0.27879  -0.27266  -0.27117
 Alpha  occ. eigenvalues --   -0.26938  -0.26823  -0.26585  -0.26346  -0.25329
 Alpha  occ. eigenvalues --   -0.25106  -0.24250
 Alpha virt. eigenvalues --   -0.08453  -0.07273  -0.05857  -0.05323  -0.03572
 Alpha virt. eigenvalues --   -0.01737   0.04051   0.04202   0.04230   0.04541
 Alpha virt. eigenvalues --    0.04842   0.04985   0.05317   0.05511   0.05930

 Mulliken charges:
               1
     1  C    0.329173
     2  C   -0.111790
     3  C   -0.350430
     4  C    0.281784
     5  H    0.141993
     6  C   -0.288461
     7  C    0.319383
     8  H    0.151518
     9  C   -0.327958
    10  C   -0.127819
    11  H    0.146854
    12  C    0.061000
    13  H    0.090629
    14  H    0.088458
    15  C    0.326286
    16  C   -0.120804
    17  C   -0.305234
    18  C    0.345997
    19  H    0.141789
    20  C   -0.402298
    21  C    0.414757
    22  H    0.138768
    23  C   -0.374341
    24  C   -0.233363
    25  H    0.140223
    26  C   -0.137140
    27  H    0.086305
    28  C    0.106193
    29  C    0.106520
    30  N   -0.272888
    31  H    0.077055
    32  C   -0.002836
    33  N   -0.271054
    34  H    0.079172
    35  C   -0.011677
    36  H    0.078624
    37  C   -0.400529
    38  C   -0.399068
    39  C   -0.414839
    40  O   -0.343582
    41  C    0.117230
    42  C    0.098120
    43  N   -0.264149
    44  H    0.066390
    45  C   -0.011974
    46  N   -0.257876
    47  H    0.062527
    48  C   -0.012677
    49  H    0.075314
    50  C   -0.398318
    51  H    0.075769
    52  C   -0.396825
    53  C    0.049950
    54  C    0.047269
    55  N   -0.522936
    56  H    0.085212
    57  C   -0.054592
    58  N   -0.229257
    59  H    0.072077
    60  C   -0.002969
    61  H    0.075510
    62  C   -0.395406
    63  H    0.089766
    64  C   -0.405583
    65  H    0.084698
    66  H    0.225481
    67  H    0.087183
    68  H    0.109506
    69  C   -0.418320
    70  H    0.079187
    71  C   -0.407468
    72  C   -0.407179
    73  C   -0.384611
    74  C   -0.423037
    75  H    0.206793
    76  H    0.122485
    77  H    0.131129
    78  H    0.124816
    79  H    0.121400
    80  H    0.128503
    81  H    0.124911
    82  H    0.123875
    83  H    0.122692
    84  H    0.132483
    85  H    0.124444
    86  H    0.122318
    87  H    0.128855
    88  H    0.106922
    89  H    0.146957
    90  H    0.127081
    91  H    0.126859
    92  H    0.121464
    93  H    0.129257
    94  H    0.128478
    95  H    0.125917
    96  H    0.117422
    97  H    0.130439
    98  H    0.131243
    99  H    0.127094
   100  H    0.123557
   101  H    0.128418
   102  H    0.123797
   103  H    0.124598
   104  H    0.123400
   105  H    0.128608
   106  H    0.118990
   107  H    0.130554
   108  H    0.125307
   109  H    0.129729
   110  H    0.125342
   111  H    0.119485
 Sum of Mulliken charges =   0.00000

 Dipole moment (field-independent basis, Debye):
    X=             -4.4194    Y=              1.0004    Z=              2.2519  Tot=              5.0599
 Quadrupole moment (field-independent basis, Debye-Ang):
   XX=           -305.4211   YY=           -282.8600   ZZ=           -315.1801
   XY=             10.0342   XZ=             10.4554   YZ=             -4.7867

 Normal termination of Gaussian 16 at Tue Oct 19 05:27:15 2021.
