 Gaussian 16, Revision C.01,
 Gaussian 16:  ES64L-G16RevC.01  3-Jul-2019

 ----------------------------------------------------------------------
 #P PBE1PBE/Def2TZVP SP SCF=(YQC,MaxCycle=900) int=(Grid=Superfinegrid)
  EmpiricalDispersion=GD3 SCRF=(PCM,Solvent=Chloroform)
 ----------------------------------------------------------------------

 -------------------------
 _2_alde1_4_ami3_2_opt_cfm
 -------------------------
 Symbolic Z-matrix:
 Charge =  0 Multiplicity = 1

                         Standard orientation:
 ---------------------------------------------------------------------
 Center     Atomic      Atomic             Coordinates (Angstroms)
 Number     Number       Type             X           Y           Z
 ---------------------------------------------------------------------
      1          6           0        2.284012   -0.154844    1.711568
      2          6           0        1.801929   -1.037295    2.765853
      3          6           0        3.080855   -0.641537    0.682370
      4          6           0        3.463035    0.187897   -0.373296
      5          1           0        3.427048   -1.663959    0.680311
      6          6           0        2.995392    1.496891   -0.418378
      7          6           0        2.194541    1.997730    0.606903
      8          1           0        3.238003    2.146494   -1.245578
      9          6           0        1.872363    1.176514    1.681196
     10          6           0        1.620556    3.332347    0.540692
     11          1           0        1.265240    1.539540    2.495157
     12          6           0        4.329946   -0.314347   -1.430683
     13          1           0        1.120780    3.673869    1.459720
     14          1           0        1.858785   -2.114873    2.544484
     15          1           0        4.569714    0.400495   -2.232701
     16          6           0       -1.973166    0.433572    1.944117
     17          6           0       -1.430993    0.269539    3.283586
     18          6           0       -1.658628    1.580059    1.223826
     19          6           0       -2.035732    1.709988   -0.111701
     20          1           0       -1.082717    2.375579    1.669386
     21          6           0       -2.792267    0.705709   -0.702942
     22          6           0       -3.169909   -0.423289    0.025443
     23          1           0       -3.104210    0.779780   -1.733659
     24          6           0       -2.733975   -0.565047    1.338504
     25          6           0       -4.000364   -1.458119   -0.580503
     26          1           0       -2.971796   -1.448143    1.912013
     27          6           0       -1.558924    2.844496   -0.891679
     28          1           0       -4.199885   -2.322952    0.063259
     29          1           0       -1.577937    2.709479   -1.984761
     30          6           0       -0.696366   -0.929112    5.117753
     31          6           0        0.706348   -1.488837    4.776763
     32          7           0       -1.429610   -0.836566    3.891774
     33          7           0        1.304251   -0.594142    3.836008
     34          6           0        5.639584   -1.951121   -2.465568
     35          6           0        4.967679   -3.151015   -3.156955
     36          7           0        4.780496   -1.492275   -1.418262
     37          7           0        3.769981   -2.678786   -3.838125
     38          6           0        0.867182    5.241785   -0.521304
     39          6           0       -0.510972    4.914168   -1.146411
     40          7           0        1.629988    4.030861   -0.510517
     41          7           0       -1.106543    3.888361   -0.348863
     42          6           0       -6.630297   -1.517378   -2.721970
     43          6           0       -5.298962   -2.262744   -2.411979
     44          7           0       -6.445333   -0.248824   -3.395635
     45          7           0       -4.438808   -1.328689   -1.756190
     46          1           0       -0.964289    1.168449    3.713568
     47          1           0        3.140430   -2.244680   -3.170899
     48          1           0        3.281024   -3.457196   -4.267217
     49          1           0       -5.829928    0.337634   -2.841696
     50          1           0       -5.993658   -0.397620   -4.292960
     51          6           0       -7.535950   -2.416080   -3.562660
     52          6           0        5.914036   -3.763371   -4.188796
     53          6           0       -1.370514    6.179862   -1.145172
     54          6           0       -1.388824   -1.858297    6.109641
     55          1           0        4.746025   -3.900057   -2.375021
     56          6           0        7.235452   -4.180268   -3.554375
     57          1           0        6.090670   -3.023217   -4.971092
     58          1           0        5.429138   -4.627081   -4.649733
     59          6           0        7.900105   -2.982030   -2.885954
     60          1           0        7.895336   -4.598276   -4.317211
     61          1           0        7.051908   -4.956020   -2.807074
     62          6           0        6.971280   -2.379241   -1.840010
     63          1           0        8.134648   -2.229047   -3.641688
     64          1           0        8.835666   -3.286980   -2.412689
     65          1           0        7.436943   -1.509644   -1.371201
     66          1           0        6.762780   -3.110425   -1.056749
     67          1           0        5.814154   -1.169969   -3.226885
     68          1           0       -7.119995   -1.300204   -1.764198
     69          6           0       -7.807866   -3.742553   -2.862858
     70          1           0       -7.054197   -2.601722   -4.526169
     71          1           0       -8.468949   -1.884231   -3.752957
     72          6           0       -6.497530   -4.461540   -2.558403
     73          1           0       -8.439761   -4.370423   -3.493946
     74          1           0       -8.344852   -3.557092   -1.929814
     75          6           0       -5.596584   -3.583484   -1.696363
     76          1           0       -5.986338   -4.699572   -3.494550
     77          1           0       -6.699113   -5.401496   -2.040038
     78          1           0       -4.813983   -2.476072   -3.376431
     79          1           0       -4.659098   -4.104604   -1.483962
     80          1           0       -6.098630   -3.376926   -0.747634
     81          1           0       -0.356162    4.579381   -2.187897
     82          6           0       -0.686282    7.282182   -1.947038
     83          1           0       -1.524906    6.500118   -0.113358
     84          1           0       -2.347276    5.947004   -1.575354
     85          6           0        0.699110    7.585269   -1.382754
     86          1           0       -1.301419    8.184081   -1.927592
     87          1           0       -0.590892    6.963816   -2.987875
     88          6           0        1.556509    6.324269   -1.345841
     89          1           0        0.678038    5.606696    0.503704
     90          1           0        1.719685    5.945171   -2.355986
     91          1           0        2.532172    6.541056   -0.906808
     92          1           0        0.597464    7.981604   -0.369711
     93          1           0        1.189292    8.346914   -1.992432
     94          1           0       -0.544945    0.066422    5.571061
     95          6           0       -0.561998   -1.977393    7.385978
     96          1           0       -1.513989   -2.837526    5.644580
     97          1           0       -2.381513   -1.464396    6.335659
     98          6           0        0.845844   -2.478180    7.074927
     99          1           0       -1.053411   -2.660567    8.081455
    100          1           0       -0.498906   -0.998244    7.866787
    101          6           0        1.534127   -1.570149    6.060979
    102          1           0        0.787825   -3.491222    6.669813
    103          1           0        1.437587   -2.517395    7.991712
    104          1           0        2.528103   -1.953761    5.819805
    105          1           0        1.651312   -0.564653    6.468866
    106          1           0        0.589338   -2.502959    4.353846
 ---------------------------------------------------------------------

 SCF Done:  E(RPBE1PBE) =  -2070.55756040     a.u. after    7 cycles
 SCF Done:  E(RPBE1PBE) =  -2070.55758401     A.U. after    9 cycles

 The electronic state is 1-A.
 Alpha  occ. eigenvalues --  -14.37878 -14.37858 -14.37855 -14.37621 -14.37549
 Alpha  occ. eigenvalues --  -14.37546 -14.35735 -14.35286 -10.26785 -10.26760
 Alpha  occ. eigenvalues --  -10.26666 -10.26578 -10.26430 -10.26428 -10.25256
 Alpha  occ. eigenvalues --  -10.25229 -10.24940 -10.24922 -10.24707 -10.24620
 Alpha  occ. eigenvalues --  -10.24586 -10.24500 -10.24403 -10.24399 -10.24352
 Alpha  occ. eigenvalues --  -10.24336 -10.24304 -10.24295 -10.23912 -10.23890
 Alpha  occ. eigenvalues --  -10.23865 -10.23838 -10.23832 -10.23789 -10.21715
 Alpha  occ. eigenvalues --  -10.21685 -10.21473 -10.21443 -10.21437 -10.21398
 Alpha  occ. eigenvalues --  -10.21381 -10.21347 -10.21320 -10.21285 -10.21284
 Alpha  occ. eigenvalues --  -10.21207 -10.21170 -10.21118 -10.21063 -10.21016
 Alpha  occ. eigenvalues --   -0.97919  -0.97780  -0.96855  -0.96477  -0.95232
 Alpha  occ. eigenvalues --   -0.94894  -0.91310  -0.91188  -0.90121  -0.89522
 Alpha  occ. eigenvalues --   -0.85913  -0.85359  -0.84248  -0.84172  -0.80981
 Alpha  occ. eigenvalues --   -0.80961  -0.80812  -0.80795  -0.76837  -0.76607
 Alpha  occ. eigenvalues --   -0.76287  -0.75892  -0.75684  -0.75302  -0.74127
 Alpha  occ. eigenvalues --   -0.74064  -0.68684  -0.68277  -0.67986  -0.67372
 Alpha  occ. eigenvalues --   -0.67185  -0.65964  -0.63272  -0.62964  -0.62777
 Alpha  occ. eigenvalues --   -0.62344  -0.61853  -0.61638  -0.61076  -0.60439
 Alpha  occ. eigenvalues --   -0.58682  -0.58373  -0.58149  -0.57524  -0.56357
 Alpha  occ. eigenvalues --   -0.56153  -0.55877  -0.55225  -0.53977  -0.53359
 Alpha  occ. eigenvalues --   -0.52717  -0.52483  -0.51211  -0.51125  -0.50438
 Alpha  occ. eigenvalues --   -0.49749  -0.49637  -0.49525  -0.49236  -0.49103
 Alpha  occ. eigenvalues --   -0.48834  -0.48116  -0.47499  -0.47459  -0.47194
 Alpha  occ. eigenvalues --   -0.46693  -0.46429  -0.46201  -0.45898  -0.45505
 Alpha  occ. eigenvalues --   -0.45175  -0.44982  -0.44481  -0.44182  -0.44059
 Alpha  occ. eigenvalues --   -0.43727  -0.43660  -0.43216  -0.42365  -0.42169
 Alpha  occ. eigenvalues --   -0.42093  -0.41999  -0.41413  -0.41299  -0.41188
 Alpha  occ. eigenvalues --   -0.40126  -0.39944  -0.39757  -0.39504  -0.39368
 Alpha  occ. eigenvalues --   -0.38578  -0.38386  -0.37944  -0.37843  -0.37088
 Alpha  occ. eigenvalues --   -0.36754  -0.36612  -0.36249  -0.36062  -0.36022
 Alpha  occ. eigenvalues --   -0.35866  -0.35697  -0.35669  -0.35624  -0.35448
 Alpha  occ. eigenvalues --   -0.35162  -0.34032  -0.33888  -0.33832  -0.33727
 Alpha  occ. eigenvalues --   -0.33516  -0.33411  -0.33130  -0.32384  -0.32238
 Alpha  occ. eigenvalues --   -0.32140  -0.31718  -0.31342  -0.30124  -0.29396
 Alpha  occ. eigenvalues --   -0.27748  -0.27536  -0.27297  -0.26983  -0.26900
 Alpha  occ. eigenvalues --   -0.26301  -0.25988  -0.25858  -0.25691  -0.25484
 Alpha  occ. eigenvalues --   -0.25129  -0.24384
 Alpha virt. eigenvalues --   -0.06365  -0.06053  -0.05848  -0.05304  -0.02524
 Alpha virt. eigenvalues --   -0.01311   0.04458   0.04758   0.04818   0.04938
 Alpha virt. eigenvalues --    0.05031   0.05089   0.05134   0.05141   0.05311

 Mulliken charges:
               1
     1  C    0.326331
     2  C   -0.163351
     3  C   -0.364671
     4  C    0.370838
     5  H    0.124422
     6  C   -0.380088
     7  C    0.370323
     8  H    0.121859
     9  C   -0.297105
    10  C   -0.175739
    11  H    0.129639
    12  C   -0.173776
    13  H    0.100236
    14  H    0.085330
    15  H    0.093883
    16  C    0.358395
    17  C   -0.181474
    18  C   -0.285300
    19  C    0.326378
    20  H    0.129124
    21  C   -0.362892
    22  C    0.353476
    23  H    0.128757
    24  C   -0.375577
    25  C   -0.156426
    26  H    0.121215
    27  C   -0.172420
    28  H    0.101149
    29  H    0.085580
    30  C    0.050897
    31  C    0.011306
    32  N   -0.203964
    33  N   -0.193651
    34  C    0.055147
    35  C    0.041917
    36  N   -0.214398
    37  N   -0.555107
    38  C    0.050675
    39  C    0.011106
    40  N   -0.203089
    41  N   -0.193638
    42  C    0.004514
    43  C   -0.041777
    44  N   -0.521084
    45  N   -0.174151
    46  H    0.100154
    47  H    0.232309
    48  H    0.226336
    49  H    0.232572
    50  H    0.219187
    51  C   -0.184861
    52  C   -0.212360
    53  C   -0.198927
    54  C   -0.170069
    55  H    0.079392
    56  C   -0.194249
    57  H    0.098862
    58  H    0.106320
    59  C   -0.178493
    60  H    0.110645
    61  H    0.092024
    62  C   -0.197685
    63  H    0.093121
    64  H    0.111276
    65  H    0.110891
    66  H    0.100225
    67  H    0.044054
    68  H    0.086105
    69  C   -0.192688
    70  H    0.095569
    71  H    0.110619
    72  C   -0.161051
    73  H    0.111148
    74  H    0.095782
    75  C   -0.255526
    76  H    0.095256
    77  H    0.111130
    78  H    0.089094
    79  H    0.118864
    80  H    0.109634
    81  H    0.056778
    82  C   -0.176777
    83  H    0.105369
    84  H    0.112999
    85  C   -0.193845
    86  H    0.113150
    87  H    0.093540
    88  C   -0.170961
    89  H    0.060488
    90  H    0.100352
    91  H    0.108503
    92  H    0.093936
    93  H    0.112574
    94  H    0.060607
    95  C   -0.194194
    96  H    0.099507
    97  H    0.108594
    98  C   -0.176393
    99  H    0.112551
   100  H    0.094115
   101  C   -0.199602
   102  H    0.093240
   103  H    0.113171
   104  H    0.113048
   105  H    0.105603
   106  H    0.056166
 Sum of Mulliken charges =   0.00000

 Dipole moment (field-independent basis, Debye):
    X=              0.7697    Y=             -2.2612    Z=              0.6228  Tot=              2.4684
 Quadrupole moment (field-independent basis, Debye-Ang):
   XX=           -312.4769   YY=           -272.9745   ZZ=           -288.8561
   XY=              6.4900   XZ=             -3.4278   YZ=              0.7099

 1\1\GINC-CX3-6-2\SP\RPBE1PBE\def2TZVP\C42H56N8\ATARZIA\18-Oct-2021\0\\
 #P PBE1PBE/Def2TZVP SP SCF=(YQC,MaxCycle=900) int=(Grid=Superfinegrid)
  EmpiricalDispersion=GD3 SCRF=(PCM,Solvent=Chloroform)\\_2_alde1_4_ami
 3_2_opt_cfm\\0,1\C,0,-0.8526,-3.3789,-2.0479\C,0,-0.0457,-3.468,-0.838
 1\C,0,-2.2183,-3.6336,-2.0152\C,0,-3.0015,-3.4572,-3.1571\H,0,-2.7001,
 -3.9795,-1.1133\C,0,-2.4147,-2.9708,-4.3204\C,0,-1.046,-2.7102,-4.3668
 \H,0,-3.0045,-2.7821,-5.2045\C,0,-0.2697,-2.9481,-3.2385\C,0,-0.4238,-
 2.1187,-5.5407\H,0,0.7935,-2.768,-3.2479\C,0,-4.4257,-3.7618,-3.1302\H

 Normal termination of Gaussian 16 at Mon Oct 18 02:41:17 2021.
