 Gaussian 16, Revision C.01,
 Gaussian 16:  ES64L-G16RevC.01  3-Jul-2019

 ----------------------------------------------------------------------
 #P MP2/aug-cc-pVDZ SP SCF=(YQC,MaxCycle=900) int=(Grid=Superfinegrid)
 SCRF=(PCM,Solvent=Dichloromethane)
 ----------------------------------------------------------------------

 -----------------------------
 _2_alde1_4_ami3_2_opt_dcm_mp2
 -----------------------------
 Symbolic Z-matrix:
 Charge =  0 Multiplicity = 1

                         Standard orientation:
 ---------------------------------------------------------------------
 Center     Atomic      Atomic             Coordinates (Angstroms)
 Number     Number       Type             X           Y           Z
 ---------------------------------------------------------------------
      1          6           0        2.284012   -0.154844    1.711568
      2          6           0        1.801929   -1.037295    2.765853
      3          6           0        3.080855   -0.641537    0.682370
      4          6           0        3.463035    0.187897   -0.373296
      5          1           0        3.427048   -1.663959    0.680311
      6          6           0        2.995392    1.496891   -0.418378
      7          6           0        2.194541    1.997730    0.606903
      8          1           0        3.238003    2.146494   -1.245578
      9          6           0        1.872363    1.176514    1.681196
     10          6           0        1.620556    3.332347    0.540692
     11          1           0        1.265240    1.539540    2.495157
     12          6           0        4.329946   -0.314347   -1.430683
     13          1           0        1.120780    3.673869    1.459720
     14          1           0        1.858785   -2.114873    2.544484
     15          1           0        4.569714    0.400495   -2.232701
     16          6           0       -1.973166    0.433572    1.944117
     17          6           0       -1.430993    0.269539    3.283586
     18          6           0       -1.658628    1.580059    1.223826
     19          6           0       -2.035732    1.709988   -0.111701
     20          1           0       -1.082717    2.375579    1.669386
     21          6           0       -2.792267    0.705709   -0.702942
     22          6           0       -3.169909   -0.423289    0.025443
     23          1           0       -3.104210    0.779780   -1.733659
     24          6           0       -2.733975   -0.565047    1.338504
     25          6           0       -4.000364   -1.458119   -0.580503
     26          1           0       -2.971796   -1.448143    1.912013
     27          6           0       -1.558924    2.844496   -0.891679
     28          1           0       -4.199885   -2.322952    0.063259
     29          1           0       -1.577937    2.709479   -1.984761
     30          6           0       -0.696366   -0.929112    5.117753
     31          6           0        0.706348   -1.488837    4.776763
     32          7           0       -1.429610   -0.836566    3.891774
     33          7           0        1.304251   -0.594142    3.836008
     34          6           0        5.639584   -1.951121   -2.465568
     35          6           0        4.967679   -3.151015   -3.156955
     36          7           0        4.780496   -1.492275   -1.418262
     37          7           0        3.769981   -2.678786   -3.838125
     38          6           0        0.867182    5.241785   -0.521304
     39          6           0       -0.510972    4.914168   -1.146411
     40          7           0        1.629988    4.030861   -0.510517
     41          7           0       -1.106543    3.888361   -0.348863
     42          6           0       -6.630297   -1.517378   -2.721970
     43          6           0       -5.298962   -2.262744   -2.411979
     44          7           0       -6.445333   -0.248824   -3.395635
     45          7           0       -4.438808   -1.328689   -1.756190
     46          1           0       -0.964289    1.168449    3.713568
     47          1           0        3.140430   -2.244680   -3.170899
     48          1           0        3.281024   -3.457196   -4.267217
     49          1           0       -5.829928    0.337634   -2.841696
     50          1           0       -5.993658   -0.397620   -4.292960
     51          6           0       -7.535950   -2.416080   -3.562660
     52          6           0        5.914036   -3.763371   -4.188796
     53          6           0       -1.370514    6.179862   -1.145172
     54          6           0       -1.388824   -1.858297    6.109641
     55          1           0        4.746025   -3.900057   -2.375021
     56          6           0        7.235452   -4.180268   -3.554375
     57          1           0        6.090670   -3.023217   -4.971092
     58          1           0        5.429138   -4.627081   -4.649733
     59          6           0        7.900105   -2.982030   -2.885954
     60          1           0        7.895336   -4.598276   -4.317211
     61          1           0        7.051908   -4.956020   -2.807074
     62          6           0        6.971280   -2.379241   -1.840010
     63          1           0        8.134648   -2.229047   -3.641688
     64          1           0        8.835666   -3.286980   -2.412689
     65          1           0        7.436943   -1.509644   -1.371201
     66          1           0        6.762780   -3.110425   -1.056749
     67          1           0        5.814154   -1.169969   -3.226885
     68          1           0       -7.119995   -1.300204   -1.764198
     69          6           0       -7.807866   -3.742553   -2.862858
     70          1           0       -7.054197   -2.601722   -4.526169
     71          1           0       -8.468949   -1.884231   -3.752957
     72          6           0       -6.497530   -4.461540   -2.558403
     73          1           0       -8.439761   -4.370423   -3.493946
     74          1           0       -8.344852   -3.557092   -1.929814
     75          6           0       -5.596584   -3.583484   -1.696363
     76          1           0       -5.986338   -4.699572   -3.494550
     77          1           0       -6.699113   -5.401496   -2.040038
     78          1           0       -4.813983   -2.476072   -3.376431
     79          1           0       -4.659098   -4.104604   -1.483962
     80          1           0       -6.098630   -3.376926   -0.747634
     81          1           0       -0.356162    4.579381   -2.187897
     82          6           0       -0.686282    7.282182   -1.947038
     83          1           0       -1.524906    6.500118   -0.113358
     84          1           0       -2.347276    5.947004   -1.575354
     85          6           0        0.699110    7.585269   -1.382754
     86          1           0       -1.301419    8.184081   -1.927592
     87          1           0       -0.590892    6.963816   -2.987875
     88          6           0        1.556509    6.324269   -1.345841
     89          1           0        0.678038    5.606696    0.503704
     90          1           0        1.719685    5.945171   -2.355986
     91          1           0        2.532172    6.541056   -0.906808
     92          1           0        0.597464    7.981604   -0.369711
     93          1           0        1.189292    8.346914   -1.992432
     94          1           0       -0.544945    0.066422    5.571061
     95          6           0       -0.561998   -1.977393    7.385978
     96          1           0       -1.513989   -2.837526    5.644580
     97          1           0       -2.381513   -1.464396    6.335659
     98          6           0        0.845844   -2.478180    7.074927
     99          1           0       -1.053411   -2.660567    8.081455
    100          1           0       -0.498906   -0.998244    7.866787
    101          6           0        1.534127   -1.570149    6.060979
    102          1           0        0.787825   -3.491222    6.669813
    103          1           0        1.437587   -2.517395    7.991712
    104          1           0        2.528103   -1.953761    5.819805
    105          1           0        1.651312   -0.564653    6.468866
    106          1           0        0.589338   -2.502959    4.353846
 ---------------------------------------------------------------------

 SCF Done:  E(RHF) =  -2058.89802275     a.u. after    7 cycles
 SCF Done:  E(RHF) =  -2058.89808977     A.U. after   19 cycles
 E2 =    -0.7306606276D+01 EUMP2 =    -0.20662046960441D+04

 The electronic state is 1-A.
 Alpha  occ. eigenvalues --  -15.56258 -15.56177 -15.56157 -15.56012 -15.55892
 Alpha  occ. eigenvalues --  -15.55890 -15.54417 -15.54029 -11.28752 -11.28742
 Alpha  occ. eigenvalues --  -11.28718 -11.28619 -11.28522 -11.28519 -11.25681
 Alpha  occ. eigenvalues --  -11.25659 -11.25459 -11.25435 -11.25423 -11.25419
 Alpha  occ. eigenvalues --  -11.25389 -11.25385 -11.25367 -11.25334 -11.25294
 Alpha  occ. eigenvalues --  -11.25278 -11.25221 -11.25217 -11.25187 -11.25172
 Alpha  occ. eigenvalues --  -11.25145 -11.25137 -11.25110 -11.25074 -11.22107
 Alpha  occ. eigenvalues --  -11.22085 -11.22044 -11.21979 -11.21973 -11.21948
 Alpha  occ. eigenvalues --  -11.21904 -11.21879 -11.21819 -11.21819 -11.21802
 Alpha  occ. eigenvalues --  -11.21793 -11.21759 -11.21704 -11.21640 -11.21622
 Alpha  occ. eigenvalues --   -1.26772  -1.26573  -1.25615  -1.25190  -1.23741
 Alpha  occ. eigenvalues --   -1.23305  -1.18834  -1.18686  -1.17427  -1.16734
 Alpha  occ. eigenvalues --   -1.11804  -1.11153  -1.09943  -1.09861  -1.06102
 Alpha  occ. eigenvalues --   -1.06058  -1.05942  -1.05922  -1.00732  -1.00422
 Alpha  occ. eigenvalues --   -1.00180  -0.99808  -0.99496  -0.98968  -0.97556
 Alpha  occ. eigenvalues --   -0.97485  -0.90399  -0.89845  -0.89494  -0.88699
 Alpha  occ. eigenvalues --   -0.88451  -0.86787  -0.83569  -0.83188  -0.83016
 Alpha  occ. eigenvalues --   -0.82386  -0.81817  -0.81612  -0.80688  -0.79945
 Alpha  occ. eigenvalues --   -0.77482  -0.76968  -0.76742  -0.76151  -0.75173
 Alpha  occ. eigenvalues --   -0.74846  -0.74378  -0.73488  -0.70921  -0.70441
 Alpha  occ. eigenvalues --   -0.69531  -0.69059  -0.67191  -0.67134  -0.66512
 Alpha  occ. eigenvalues --   -0.65890  -0.65757  -0.65409  -0.65203  -0.65065
 Alpha  occ. eigenvalues --   -0.64251  -0.63433  -0.62942  -0.62791  -0.62483
 Alpha  occ. eigenvalues --   -0.62232  -0.61760  -0.61273  -0.60881  -0.60558
 Alpha  occ. eigenvalues --   -0.60096  -0.60062  -0.59380  -0.59213  -0.59117
 Alpha  occ. eigenvalues --   -0.57757  -0.57679  -0.57528  -0.56532  -0.56186
 Alpha  occ. eigenvalues --   -0.56014  -0.55466  -0.55408  -0.54760  -0.54164
 Alpha  occ. eigenvalues --   -0.53934  -0.53664  -0.53057  -0.52727  -0.52665
 Alpha  occ. eigenvalues --   -0.52336  -0.52241  -0.51780  -0.51663  -0.50233
 Alpha  occ. eigenvalues --   -0.49887  -0.49439  -0.49071  -0.48888  -0.48707
 Alpha  occ. eigenvalues --   -0.48635  -0.48256  -0.47378  -0.47233  -0.47045
 Alpha  occ. eigenvalues --   -0.46747  -0.46537  -0.46448  -0.46298  -0.46271
 Alpha  occ. eigenvalues --   -0.45865  -0.45442  -0.44867  -0.44373  -0.43758
 Alpha  occ. eigenvalues --   -0.43558  -0.42874  -0.42547  -0.41195  -0.40898
 Alpha  occ. eigenvalues --   -0.40796  -0.40693  -0.40220  -0.39614  -0.39367
 Alpha  occ. eigenvalues --   -0.38871  -0.38546  -0.37554  -0.32791  -0.32517
 Alpha  occ. eigenvalues --   -0.32474  -0.31913
 Alpha virt. eigenvalues --    0.03159   0.03466   0.03573   0.03673   0.03982
 Alpha virt. eigenvalues --    0.04086   0.04150   0.04164   0.04184   0.04519
 Alpha virt. eigenvalues --    0.04885   0.04996   0.05034   0.05398   0.05438

 Mulliken charges:
               1
     1  C    0.813393
     2  C    0.296928
     3  C    0.186445
     4  C    0.450147
     5  H   -0.853472
     6  C    0.747765
     7  C    0.882219
     8  H   -0.859227
     9  C    0.511289
    10  C    0.855402
    11  H   -1.113374
    12  C    0.287448
    13  H   -0.691246
    14  H   -0.793503
    15  H   -0.792535
    16  C    1.023051
    17  C    0.690551
    18  C    0.452568
    19  C    0.877142
    20  H   -1.118048
    21  C    0.188464
    22  C    0.340910
    23  H   -0.809290
    24  C    0.780493
    25  C    0.549407
    26  H   -0.874172
    27  C    0.240268
    28  H   -0.742816
    29  H   -0.792494
    30  C   -0.087148
    31  C   -0.265019
    32  N   -0.557369
    33  N   -0.382037
    34  C   -0.452722
    35  C    0.648775
    36  N   -0.250939
    37  N   -0.422903
    38  C   -0.159410
    39  C   -0.243336
    40  N   -0.607360
    41  N   -0.377853
    42  C    0.209204
    43  C    0.342033
    44  N   -0.432902
    45  N   -0.541920
    46  H   -0.691469
    47  H   -0.015948
    48  H   -0.015220
    49  H    0.002338
    50  H    0.042312
    51  C    0.750950
    52  C    0.641901
    53  C    0.834136
    54  C    0.812724
    55  H   -0.202537
    56  C    0.492786
    57  H   -0.027936
    58  H   -0.148817
    59  C    0.619477
    60  H   -0.154737
    61  H   -0.105770
    62  C    0.842352
    63  H   -0.110152
    64  H   -0.122428
    65  H   -0.223299
    66  H   -0.138465
    67  H   -0.307610
    68  H   -0.288558
    69  C    0.445486
    70  H   -0.091735
    71  H   -0.125397
    72  C    0.464638
    73  H   -0.160927
    74  H   -0.095953
    75  C    0.662387
    76  H   -0.073498
    77  H   -0.111192
    78  H   -0.355121
    79  H   -0.202750
    80  H   -0.150846
    81  H   -0.318411
    82  C    0.535200
    83  H   -0.111351
    84  H   -0.237797
    85  C    0.526849
    86  H   -0.143358
    87  H   -0.078200
    88  C    0.849110
    89  H   -0.418809
    90  H   -0.109266
    91  H   -0.186800
    92  H   -0.075466
    93  H   -0.147881
    94  H   -0.403031
    95  C    0.519736
    96  H   -0.110420
    97  H   -0.189982
    98  C    0.537466
    99  H   -0.147653
   100  H   -0.073779
   101  C    0.827584
   102  H   -0.076775
   103  H   -0.143660
   104  H   -0.233128
   105  H   -0.113160
   106  H   -0.320949
 Sum of Mulliken charges =   0.00000

 Dipole moment (field-independent basis, Debye):
    X=              1.0058    Y=             -2.5302    Z=              0.8156  Tot=              2.8423
 Quadrupole moment (field-independent basis, Debye-Ang):
   XX=           -322.6641   YY=           -279.7680   ZZ=           -297.5650
   XY=              8.1016   XZ=             -5.3930   YZ=              1.8438

 Normal termination of Gaussian 16 at Sat Oct 30 10:42:50 2021.
