 Gaussian 16, Revision C.01,
 Gaussian 16:  ES64L-G16RevC.01  3-Jul-2019

 ----------------------------------------------------------------------
 #P MP2/aug-cc-pVDZ SP SCF=(YQC,MaxCycle=900) int=(Grid=Superfinegrid)
 SCRF=(PCM,Solvent=Chloroform)
 ----------------------------------------------------------------------

 -----------------------------
 _2_alde1_4_ami4_2_opt_cfm_mp2
 -----------------------------
 Symbolic Z-matrix:
 Charge =  0 Multiplicity = 1

                         Standard orientation:
 ---------------------------------------------------------------------
 Center     Atomic      Atomic             Coordinates (Angstroms)
 Number     Number       Type             X           Y           Z
 ---------------------------------------------------------------------
      1          6           0        1.835827    2.034753    0.314493
      2          6           0        1.469435    3.399659   -0.028876
      3          6           0        2.686607    1.286280   -0.497701
      4          6           0        2.947952   -0.048215   -0.206480
      5          1           0        3.129514    1.765779   -1.357393
      6          6           0        2.315611   -0.648269    0.883759
      7          6           0        1.467349    0.086467    1.703190
      8          1           0        2.502444   -1.694292    1.073372
      9          6           0        1.254802    1.436343    1.426444
     10          6           0        0.733969   -0.560413    2.782965
     11          1           0        0.600648    1.993141    2.078695
     12          6           0        3.856963   -0.812213   -1.048796
     13          1           0        0.720419   -1.661063    2.754746
     14          1           0        0.869919    3.929118    0.726162
     15          1           0        4.286244   -0.269054   -1.905245
     16          6           0       -1.931724    1.855071   -1.258369
     17          6           0       -1.259167    2.888185   -2.033395
     18          6           0       -1.954845    1.926772    0.132138
     19          6           0       -2.469811    0.880233    0.891503
     20          1           0       -1.531894    2.800079    0.603247
     21          6           0       -3.022738   -0.223115    0.247324
     22          6           0       -3.051861   -0.287954   -1.143592
     23          1           0       -3.427789   -1.035875    0.827433
     24          6           0       -2.482514    0.743048   -1.888940
     25          6           0       -3.647335   -1.430766   -1.823952
     26          1           0       -2.471940    0.680304   -2.968844
     27          6           0       -2.331744    0.927923    2.339232
     28          1           0       -3.600983   -1.412083   -2.924739
     29          1           0       -1.985683    1.890176    2.746214
     30          6           0       -0.122559    4.909774   -2.276174
     31          6           0        1.161448    5.185118   -1.459729
     32          7           0       -0.927371    3.996210   -1.531617
     33          7           0        1.757935    3.924717   -1.140493
     34          6           0        5.058741   -2.727844   -1.630615
     35          6           0        6.287359   -3.129720   -0.780888
     36          7           0        4.132315   -2.020004   -0.810428
     37          7           0        5.984140   -3.955455    0.365134
     38          6           0       -0.727707   -0.568972    4.599929
     39          6           0       -2.150656    0.018278    4.454090
     40          7           0        0.117935    0.098486    3.663686
     41          7           0       -2.525729   -0.077152    3.077392
     42          6           0       -4.021856   -4.770114   -1.449738
     43          6           0       -4.745683   -3.490100   -1.883404
     44          7           0       -2.676743   -4.776127   -2.001909
     45          7           0       -4.188700   -2.375161   -1.188486
     46          1           0       -1.024159    2.622924   -3.076622
     47          1           0        5.326444   -3.466674    0.963930
     48          1           0        5.539405   -4.817986    0.067126
     49          1           0       -2.161837   -3.974857   -1.649082
     50          1           0       -2.181423   -5.612653   -1.713203
     51          1           0       -2.134533    1.059507    4.810791
     52          1           0       -2.845302   -0.572818    5.053907
     53          1           0       -0.756915   -1.658325    4.439775
     54          1           0       -0.368172   -0.357996    5.610818
     55          1           0        6.774502   -2.220372   -0.417902
     56          1           0        6.991961   -3.668524   -1.420241
     57          1           0        5.392665   -2.143645   -2.504807
     58          1           0        4.560634   -3.639671   -1.978209
     59          1           0        0.884333    5.754003   -0.559522
     60          1           0        1.857351    5.764075   -2.069983
     61          1           0        0.145824    4.521315   -3.271583
     62          1           0       -0.669442    5.850097   -2.387368
     63          1           0       -4.553531   -5.635612   -1.854098
     64          1           0       -4.046917   -4.823140   -0.349952
     65          1           0       -5.796503   -3.566829   -1.588581
     66          1           0       -4.676926   -3.388904   -2.978290
 ---------------------------------------------------------------------

 SCF Done:  E(RHF) =  -1438.89685084     a.u. after    7 cycles
 SCF Done:  E(RHF) =  -1438.89689468     A.U. after   13 cycles
 E2 =    -0.4969052529D+01 EUMP2 =    -0.14438659472076D+04

 The electronic state is 1-A.
 Alpha  occ. eigenvalues --  -15.56509 -15.56469 -15.56459 -15.56394 -15.56116
 Alpha  occ. eigenvalues --  -15.56007 -15.54718 -15.54483 -11.29012 -11.28976
 Alpha  occ. eigenvalues --  -11.28872 -11.28869 -11.28739 -11.28575 -11.26018
 Alpha  occ. eigenvalues --  -11.25955 -11.25896 -11.25764 -11.25644 -11.25563
 Alpha  occ. eigenvalues --  -11.25527 -11.25512 -11.25498 -11.25441 -11.25329
 Alpha  occ. eigenvalues --  -11.25305 -11.25292 -11.25281 -11.25265 -11.25255
 Alpha  occ. eigenvalues --  -11.25202 -11.25199 -11.25176 -11.25009  -1.26648
 Alpha  occ. eigenvalues --   -1.26394  -1.25351  -1.25299  -1.23672  -1.23206
 Alpha  occ. eigenvalues --   -1.18357  -1.18120  -1.17259  -1.16722  -1.07764
 Alpha  occ. eigenvalues --   -1.07080  -1.06209  -1.05606  -1.01256  -0.99654
 Alpha  occ. eigenvalues --   -0.98489  -0.98177  -0.91767  -0.91434  -0.89178
 Alpha  occ. eigenvalues --   -0.88592  -0.87509  -0.84965  -0.83245  -0.82645
 Alpha  occ. eigenvalues --   -0.80961  -0.79193  -0.76793  -0.75129  -0.74918
 Alpha  occ. eigenvalues --   -0.73917  -0.71392  -0.70645  -0.69418  -0.68609
 Alpha  occ. eigenvalues --   -0.67654  -0.67331  -0.66965  -0.66469  -0.66333
 Alpha  occ. eigenvalues --   -0.65757  -0.64692  -0.64298  -0.63880  -0.62979
 Alpha  occ. eigenvalues --   -0.61731  -0.61669  -0.61217  -0.60142  -0.59795
 Alpha  occ. eigenvalues --   -0.59761  -0.59267  -0.58939  -0.56625  -0.55450
 Alpha  occ. eigenvalues --   -0.55154  -0.54827  -0.54763  -0.54097  -0.53907
 Alpha  occ. eigenvalues --   -0.53820  -0.53284  -0.53016  -0.51887  -0.51292
 Alpha  occ. eigenvalues --   -0.50568  -0.49917  -0.49457  -0.49214  -0.46280
 Alpha  occ. eigenvalues --   -0.45926  -0.45721  -0.45224  -0.41633  -0.41178
 Alpha  occ. eigenvalues --   -0.41020  -0.40826  -0.40779  -0.40703  -0.40368
 Alpha  occ. eigenvalues --   -0.39927  -0.38984  -0.38319  -0.33206  -0.32707
 Alpha  occ. eigenvalues --   -0.32486  -0.31961
 Alpha virt. eigenvalues --    0.03269   0.03626   0.03854   0.04039   0.04457
 Alpha virt. eigenvalues --    0.04547   0.04625   0.04869   0.05024   0.05315
 Alpha virt. eigenvalues --    0.05590   0.05817   0.05921   0.05999   0.06218

 Mulliken charges:
               1
     1  C    0.860750
     2  C    0.870308
     3  C    0.581939
     4  C    0.908380
     5  H   -0.879384
     6  C   -0.006347
     7  C    0.565490
     8  H   -0.773740
     9  C    0.379790
    10  C    1.216418
    11  H   -1.000325
    12  C    0.704920
    13  H   -0.678255
    14  H   -0.640561
    15  H   -0.631637
    16  C    0.341242
    17  C    1.186361
    18  C    0.090356
    19  C    1.252805
    20  H   -0.999381
    21  C   -0.164505
    22  C    0.690766
    23  H   -0.949716
    24  C    0.955046
    25  C    0.651050
    26  H   -0.719519
    27  C    0.913130
    28  H   -0.663529
    29  H   -0.624803
    30  C    0.707988
    31  C    0.548669
    32  N   -0.776378
    33  N   -0.877938
    34  C    0.533105
    35  C    0.874831
    36  N   -0.536739
    37  N   -0.486639
    38  C    0.680329
    39  C    0.568422
    40  N   -0.782743
    41  N   -0.859526
    42  C    0.881224
    43  C    0.582773
    44  N   -0.445099
    45  N   -0.577931
    46  H   -0.706782
    47  H    0.043464
    48  H    0.040997
    49  H    0.049892
    50  H   -0.020062
    51  H   -0.108505
    52  H   -0.316052
    53  H   -0.117954
    54  H   -0.246079
    55  H   -0.151156
    56  H   -0.135532
    57  H   -0.106835
    58  H   -0.301700
    59  H   -0.100760
    60  H   -0.310358
    61  H   -0.111949
    62  H   -0.238302
    63  H   -0.154391
    64  H   -0.128418
    65  H   -0.255408
    66  H   -0.095505
 Sum of Mulliken charges =   0.00000

 Dipole moment (field-independent basis, Debye):
    X=             -0.5049    Y=              1.0808    Z=             -2.5463  Tot=              2.8119
 Quadrupole moment (field-independent basis, Debye-Ang):
   XX=           -227.1378   YY=           -194.1929   ZZ=           -190.3689
   XY=              6.2304   XZ=             -8.9930   YZ=             -2.4400

 Normal termination of Gaussian 16 at Sun Nov  7 11:03:51 2021.
