 Gaussian 16, Revision C.01,
 Gaussian 16:  ES64L-G16RevC.01  3-Jul-2019

 ----------------------------------------------------------------------
 #P PBE1PBE/Def2TZVP SP SCF=(YQC,MaxCycle=900) int=(Grid=Superfinegrid)
  EmpiricalDispersion=GD3 SCRF=(PCM,Solvent=Chloroform)
 ----------------------------------------------------------------------

 -------------------------
 _2_alde1_4_ami2_2_opt_cfm
 -------------------------
 Symbolic Z-matrix:
 Charge =  0 Multiplicity = 1

                         Standard orientation:
 ---------------------------------------------------------------------
 Center     Atomic      Atomic             Coordinates (Angstroms)
 Number     Number       Type             X           Y           Z
 ---------------------------------------------------------------------
      1          6           0       -2.436857   -1.447134   -1.149762
      2          6           0       -1.973667   -1.793561   -2.486512
      3          6           0       -3.241430   -0.333160   -0.943384
      4          6           0       -3.608179    0.049707    0.347892
      5          1           0       -3.602408    0.252354   -1.775207
      6          6           0       -3.119935   -0.664627    1.436931
      7          6           0       -2.311421   -1.783813    1.244715
      8          1           0       -3.352684   -0.365675    2.447687
      9          6           0       -2.002881   -2.184914   -0.049654
     10          6           0       -1.710595   -2.488837    2.365688
     11          1           0       -1.391223   -3.054571   -0.229024
     12          6           0       -4.476987    1.197937    0.561527
     13          1           0       -1.182431   -3.418833    2.107648
     14          1           0       -2.104582   -1.012519   -3.251661
     15          6           0        1.685618   -1.695475   -0.818341
     16          6           0        1.224038   -2.758695   -1.701743
     17          6           0        1.425004   -1.779670    0.544353
     18          6           0        1.746549   -0.727495    1.400553
     19          1           0        0.942903   -2.647378    0.965797
     20          6           0        2.384232    0.394040    0.884865
     21          6           0        2.694538    0.474600   -0.473636
     22          1           0        2.652021    1.224870    1.520265
     23          6           0        2.324209   -0.563219   -1.321635
     24          6           0        3.388590    1.639025   -1.003459
     25          1           0        2.518768   -0.514110   -2.382329
     26          6           0        1.351099   -0.767523    2.805106
     27          1           0        3.557918    1.639114   -2.093157
     28          1           0        1.436253    0.193452    3.326495
     29          6           0        0.632425   -3.602517   -3.828991
     30          6           0       -0.841135   -3.136927   -4.019446
     31          7           0        1.243019   -2.630762   -2.956392
     32          7           0       -1.418977   -2.897408   -2.738713
     33          6           0       -5.787223    2.990785   -0.159228
     34          6           0       -5.144582    4.268688   -0.776025
     35          7           0       -4.953459    1.862418   -0.399377
     36          7           0       -4.817845    4.089847   -2.179849
     37          6           0       -0.934285   -2.700291    4.527972
     38          6           0        0.406091   -1.918967    4.673160
     39          7           0       -1.733896   -2.041421    3.546004
     40          7           0        0.918597   -1.826397    3.331935
     41          6           0        6.000433    3.570989   -0.344758
     42          6           0        4.509665    3.670921   -0.795642
     43          7           0        6.636368    2.357194   -0.824692
     44          7           0        3.767323    2.585209   -0.258227
     45          1           0       -4.189962    3.299228   -2.279103
     46          1           0       -5.656417    3.882761   -2.712107
     47          1           0        6.171827    1.539685   -0.443912
     48          1           0        6.593460    2.303584   -1.836781
     49          1           0       -5.988400    3.154986    0.912713
     50          1           0       -6.737542    2.806195   -0.672809
     51          1           0       -1.391913   -3.947506   -4.505160
     52          1           0       -0.868176   -2.244827   -4.665212
     53          1           0        4.475863    3.701921   -1.899779
     54          1           0        4.088073    4.596065   -0.395963
     55          6           0        6.074141    3.572351    1.181598
     56          1           0        5.713781    4.516679    1.579456
     57          1           0        7.103959    3.422115    1.493500
     58          1           0        5.461216    2.768994    1.581180
     59          6           0        6.767772    4.763051   -0.917800
     60          1           0        7.813245    4.685530   -0.633012
     61          1           0        6.364085    5.697862   -0.538768
     62          1           0        6.707295    4.773014   -2.004268
     63          6           0       -3.850923    4.599927   -0.029442
     64          1           0       -3.380679    5.464142   -0.489621
     65          1           0       -3.160015    3.761043   -0.081319
     66          1           0       -4.056357    4.820421    1.015000
     67          6           0       -6.133119    5.429001   -0.654548
     68          1           0       -7.059344    5.200187   -1.177505
     69          1           0       -5.697923    6.319230   -1.099723
     70          1           0       -6.363746    5.630445    0.388267
     71          6           0        0.141254   -0.589628    5.385795
     72          1           0       -0.562577    0.005635    4.808937
     73          1           0        1.064430   -0.030101    5.523535
     74          1           0       -0.286771   -0.783949    6.365491
     75          1           0       -1.462958   -2.687646    5.482886
     76          1           0       -0.698486   -3.736910    4.243002
     77          6           0        1.393097   -2.767347    5.483227
     78          1           0        2.315893   -2.212484    5.637891
     79          1           0        1.627883   -3.682460    4.945647
     80          1           0        0.966127   -3.020793    6.450120
     81          6           0        0.633501   -5.045316   -3.308955
     82          1           0        1.623023   -5.312592   -2.942422
     83          1           0        0.367338   -5.721463   -4.117481
     84          1           0       -0.092714   -5.165127   -2.509693
     85          6           0        1.366489   -3.521269   -5.169568
     86          1           0        1.447089   -2.483785   -5.482175
     87          1           0        0.836232   -4.084933   -5.933157
     88          1           0        2.369621   -3.927012   -5.063224
     89          1           0       -4.701338    1.439351    1.612248
     90          1           0        0.829280   -3.638764   -1.183137
 ---------------------------------------------------------------------

 SCF Done:  E(RPBE1PBE) =  -1761.09062095     a.u. after    7 cycles
 SCF Done:  E(RPBE1PBE) =  -1761.09064214     A.U. after    9 cycles

 The electronic state is 1-A.
 Alpha  occ. eigenvalues --  -14.38168 -14.38029 -14.37802 -14.37743 -14.37607
 Alpha  occ. eigenvalues --  -14.37272 -14.35800 -14.35360 -10.26952 -10.26843
 Alpha  occ. eigenvalues --  -10.26736 -10.26708 -10.26680 -10.26525 -10.26390
 Alpha  occ. eigenvalues --  -10.26389 -10.25919 -10.25798 -10.24904 -10.24535
 Alpha  occ. eigenvalues --  -10.24524 -10.24441 -10.24398 -10.24352 -10.24292
 Alpha  occ. eigenvalues --  -10.24239 -10.24132 -10.24046 -10.24045 -10.24033
 Alpha  occ. eigenvalues --  -10.24015 -10.23811 -10.23794 -10.23781 -10.21080
 Alpha  occ. eigenvalues --  -10.20658 -10.20636 -10.20501 -10.20440 -10.20434
 Alpha  occ. eigenvalues --  -10.20139 -10.19905  -0.97904  -0.97747  -0.96766
 Alpha  occ. eigenvalues --   -0.96733  -0.95122  -0.94760  -0.91789  -0.91700
 Alpha  occ. eigenvalues --   -0.90236  -0.89592  -0.83947  -0.82884  -0.81128
 Alpha  occ. eigenvalues --   -0.80725  -0.80039  -0.78285  -0.78107  -0.78050
 Alpha  occ. eigenvalues --   -0.72848  -0.72188  -0.72070  -0.71927  -0.71487
 Alpha  occ. eigenvalues --   -0.71312  -0.70956  -0.70904  -0.68243  -0.67699
 Alpha  occ. eigenvalues --   -0.65947  -0.65835  -0.64663  -0.62909  -0.60891
 Alpha  occ. eigenvalues --   -0.59020  -0.57392  -0.57213  -0.56485  -0.56068
 Alpha  occ. eigenvalues --   -0.55089  -0.54234  -0.53902  -0.53645  -0.52532
 Alpha  occ. eigenvalues --   -0.51315  -0.50903  -0.50775  -0.50293  -0.50087
 Alpha  occ. eigenvalues --   -0.49801  -0.49137  -0.48793  -0.48480  -0.48027
 Alpha  occ. eigenvalues --   -0.47893  -0.47613  -0.47261  -0.47098  -0.46577
 Alpha  occ. eigenvalues --   -0.46512  -0.45564  -0.45278  -0.45093  -0.44856
 Alpha  occ. eigenvalues --   -0.44472  -0.43112  -0.42465  -0.42417  -0.41855
 Alpha  occ. eigenvalues --   -0.41480  -0.41302  -0.41131  -0.40759  -0.39995
 Alpha  occ. eigenvalues --   -0.39739  -0.39655  -0.39415  -0.39118  -0.39003
 Alpha  occ. eigenvalues --   -0.38953  -0.38928  -0.38573  -0.38358  -0.38080
 Alpha  occ. eigenvalues --   -0.37363  -0.37276  -0.37226  -0.36848  -0.36649
 Alpha  occ. eigenvalues --   -0.36403  -0.36114  -0.35735  -0.35256  -0.34958
 Alpha  occ. eigenvalues --   -0.34617  -0.34432  -0.34185  -0.33888  -0.33651
 Alpha  occ. eigenvalues --   -0.30828  -0.30322  -0.27530  -0.27277  -0.27156
 Alpha  occ. eigenvalues --   -0.27046  -0.26675  -0.26573  -0.26424  -0.26224
 Alpha  occ. eigenvalues --   -0.25793  -0.25645  -0.24975  -0.24720
 Alpha virt. eigenvalues --   -0.06553  -0.06244  -0.05874  -0.05389  -0.02619
 Alpha virt. eigenvalues --   -0.01490   0.04157   0.04238   0.04702   0.04937
 Alpha virt. eigenvalues --    0.05071   0.05524   0.05751   0.05973   0.06484

 Mulliken charges:
               1
     1  C    0.318018
     2  C   -0.160762
     3  C   -0.359745
     4  C    0.364279
     5  H    0.133703
     6  C   -0.367057
     7  C    0.364407
     8  H    0.126049
     9  C   -0.293590
    10  C   -0.169884
    11  H    0.145482
    12  C   -0.167146
    13  H    0.093069
    14  H    0.084459
    15  C    0.381477
    16  C   -0.196458
    17  C   -0.302830
    18  C    0.307184
    19  H    0.128721
    20  C   -0.353441
    21  C    0.381060
    22  H    0.133232
    23  C   -0.375476
    24  C   -0.212369
    25  H    0.122814
    26  C   -0.147344
    27  H    0.080104
    28  H    0.098235
    29  C    0.201264
    30  C   -0.108180
    31  N   -0.203470
    32  N   -0.203950
    33  C   -0.130903
    34  C    0.151648
    35  N   -0.189431
    36  N   -0.540871
    37  C   -0.052979
    38  C    0.136640
    39  N   -0.211140
    40  N   -0.196126
    41  C    0.140486
    42  C   -0.121773
    43  N   -0.534932
    44  N   -0.181506
    45  H    0.229478
    46  H    0.220196
    47  H    0.233231
    48  H    0.221443
    49  H    0.080826
    50  H    0.122046
    51  H    0.123651
    52  H    0.089003
    53  H    0.088463
    54  H    0.118565
    55  C   -0.385435
    56  H    0.116659
    57  H    0.124593
    58  H    0.133517
    59  C   -0.368132
    60  H    0.129883
    61  H    0.122331
    62  H    0.121657
    63  C   -0.385185
    64  H    0.127414
    65  H    0.133259
    66  H    0.117051
    67  C   -0.369238
    68  H    0.122876
    69  H    0.129767
    70  H    0.120713
    71  C   -0.443983
    72  H    0.146865
    73  H    0.134368
    74  H    0.133309
    75  H    0.121425
    76  H    0.086069
    77  C   -0.373854
    78  H    0.129511
    79  H    0.130656
    80  H    0.127356
    81  C   -0.433888
    82  H    0.136242
    83  H    0.135655
    84  H    0.140033
    85  C   -0.367325
    86  H    0.125998
    87  H    0.121301
    88  H    0.126239
    89  H    0.085734
    90  H    0.108688
 Sum of Mulliken charges =   0.00000

 Dipole moment (field-independent basis, Debye):
    X=             -1.6603    Y=             -0.9425    Z=              0.2326  Tot=              1.9233
 Quadrupole moment (field-independent basis, Debye-Ang):
   XX=           -265.1646   YY=           -251.8157   ZZ=           -234.3051
   XY=             -2.2799   XZ=             -5.3415   YZ=              5.5913

 Normal termination of Gaussian 16 at Sun Oct 17 22:21:38 2021.
