 Gaussian 16, Revision C.01,
 Gaussian 16:  ES64L-G16RevC.01  3-Jul-2019

 ----------------------------------------------------------------------
 #P MP2/aug-cc-pVDZ SP SCF=(YQC,MaxCycle=900) int=(Grid=Superfinegrid)
 SCRF=(PCM,Solvent=Chloroform)
 ----------------------------------------------------------------------

 -----------------------------
 _2_alde1_3_ami4_2_opt_cfm_mp2
 -----------------------------
 Symbolic Z-matrix:
 Charge =  0 Multiplicity = 1

                         Standard orientation:
 ---------------------------------------------------------------------
 Center     Atomic      Atomic             Coordinates (Angstroms)
 Number     Number       Type             X           Y           Z
 ---------------------------------------------------------------------
      1          6           0        2.737052   -1.213206    0.230801
      2          6           0        2.688380   -2.146100   -0.885328
      3          6           0        2.667359   -1.657996    1.549936
      4          6           0        2.613009   -0.741882    2.594806
      5          1           0        2.647314   -2.720553    1.737878
      6          6           0        2.589585    0.626485    2.320140
      7          6           0        2.662428    1.083085    1.009648
      8          1           0        2.515582    1.317419    3.147790
      9          6           0        2.761724    0.153930   -0.025455
     10          6           0        2.542520    2.504060    0.708715
     11          1           0        2.826215    0.526353   -1.035943
     12          6           0        2.552105   -1.203622    3.989451
     13          1           0        2.181584    3.135254    1.534819
     14          1           0        2.839176   -1.700488   -1.879020
     15          6           0       -1.069207   -1.030182   -1.235541
     16          6           0       -0.699504   -2.432570   -1.368561
     17          6           0       -0.254783   -0.038197   -1.780404
     18          6           0       -0.513924    1.306230   -1.540517
     19          1           0        0.599058   -0.343558   -2.364535
     20          6           0       -1.634907    1.663022   -0.792161
     21          6           0       -2.484795    0.686744   -0.283917
     22          1           0       -1.821013    2.711163   -0.613791
     23          6           0       -2.182951   -0.660139   -0.491458
     24          6           0       -3.664965    1.072358    0.476941
     25          1           0       -2.834391   -1.404267   -0.059075
     26          6           0        0.441447    2.304105   -1.995032
     27          1           0        1.234917    1.927156   -2.657530
     28          6           0        0.650437   -4.169813   -2.145749
     29          6           0        2.177800   -4.154876   -1.902897
     30          7           0        0.198301   -2.816164   -2.166516
     31          1           0        0.154538   -4.768570   -1.365580
     32          7           0        2.424818   -3.371189   -0.732602
     33          1           0        2.667020   -3.735971   -2.794881
     34          8           0        2.487049   -0.488755    4.955954
     35          6           0        2.498240    4.330294   -0.740738
     36          6           0        1.519480    4.345645   -1.937880
     37          7           0        2.792175    2.967237   -0.436711
     38          1           0        2.052552    4.865853    0.112020
     39          7           0        0.409789    3.505396   -1.607969
     40          1           0        2.057122    3.993140   -2.831130
     41          6           0       -5.637043    0.625670    1.645124
     42          6           0       -6.891728    0.172514    0.861397
     43          7           0       -4.469245    0.216863    0.937687
     44          1           0       -5.628524    0.116987    2.615258
     45          7           0       -6.983032   -1.251948    0.640229
     46          1           0       -6.889938    0.663205   -0.116034
     47          1           0       -1.225668   -3.128242   -0.696665
     48          1           0       -3.807359    2.154118    0.624251
     49          1           0       -6.159365   -1.565658    0.137268
     50          1           0        2.572651   -2.306513    4.092782
     51          1           0        0.461207   -4.619248   -3.124444
     52          1           0        2.524176   -5.174969   -1.728120
     53          1           0        3.422587    4.829778   -1.043162
     54          1           0        1.160674    5.364745   -2.093965
     55          1           0       -5.680497    1.715559    1.809498
     56          1           0       -7.780423    0.496428    1.409795
     57          1           0       -7.001785   -1.743800    1.528146
 ---------------------------------------------------------------------

 SCF Done:  E(RHF) =  -1325.63273685     a.u. after    7 cycles
 SCF Done:  E(RHF) =  -1325.63278690     A.U. after   13 cycles
 E2 =    -0.4505337672D+01 EUMP2 =    -0.13301381245698D+04

 The electronic state is 1-A.
 Alpha  occ. eigenvalues --  -20.57440 -15.56772 -15.56561 -15.56533 -15.56421
 Alpha  occ. eigenvalues --  -15.56232 -15.54484 -11.34927 -11.29249 -11.29064
 Alpha  occ. eigenvalues --  -11.29046 -11.28987 -11.28845 -11.26917 -11.26739
 Alpha  occ. eigenvalues --  -11.26654 -11.26140 -11.26111 -11.25949 -11.25919
 Alpha  occ. eigenvalues --  -11.25904 -11.25888 -11.25873 -11.25655 -11.25627
 Alpha  occ. eigenvalues --  -11.25608 -11.25431 -11.25382 -11.25360 -11.25313
 Alpha  occ. eigenvalues --  -11.25303  -1.41161  -1.26893  -1.26664  -1.25361
 Alpha  occ. eigenvalues --   -1.23967  -1.23463  -1.18600  -1.18190  -1.17051
 Alpha  occ. eigenvalues --   -1.08188  -1.07509  -1.06452  -1.06057  -1.01382
 Alpha  occ. eigenvalues --   -0.99927  -0.98226  -0.92143  -0.91780  -0.90565
 Alpha  occ. eigenvalues --   -0.88777  -0.88257  -0.85185  -0.83480  -0.82547
 Alpha  occ. eigenvalues --   -0.80499  -0.76893  -0.75742  -0.75049  -0.74694
 Alpha  occ. eigenvalues --   -0.72303  -0.71389  -0.69989  -0.68998  -0.67824
 Alpha  occ. eigenvalues --   -0.67686  -0.66685  -0.66558  -0.65725  -0.65047
 Alpha  occ. eigenvalues --   -0.64347  -0.63763  -0.63177  -0.62213  -0.61840
 Alpha  occ. eigenvalues --   -0.61604  -0.60056  -0.59885  -0.59596  -0.59190
 Alpha  occ. eigenvalues --   -0.56952  -0.56655  -0.55594  -0.55084  -0.54845
 Alpha  occ. eigenvalues --   -0.54093  -0.53993  -0.53867  -0.52627  -0.52129
 Alpha  occ. eigenvalues --   -0.51457  -0.50883  -0.50162  -0.49419  -0.46370
 Alpha  occ. eigenvalues --   -0.46181  -0.45625  -0.43703  -0.42827  -0.41408
 Alpha  occ. eigenvalues --   -0.41351  -0.41169  -0.40901  -0.40691  -0.40295
 Alpha  occ. eigenvalues --   -0.38344  -0.34949  -0.33289  -0.32749  -0.32446
 Alpha virt. eigenvalues --    0.03439   0.03676   0.03848   0.04177   0.04573
 Alpha virt. eigenvalues --    0.04587   0.04847   0.04899   0.05268   0.05383
 Alpha virt. eigenvalues --    0.05637   0.05848   0.06072   0.06349   0.06521

 Mulliken charges:
               1
     1  C    0.337259
     2  C    1.231081
     3  C    0.987905
     4  C    0.029667
     5  H   -0.837156
     6  C    0.640589
     7  C    0.317583
     8  H   -0.764340
     9  C    0.289760
    10  C    1.158444
    11  H   -1.010605
    12  C    1.264827
    13  H   -0.672843
    14  H   -0.640631
    15  C    0.187089
    16  C    1.342649
    17  C    0.504021
    18  C    0.795238
    19  H   -1.007611
    20  C    0.753398
    21  C    0.490643
    22  H   -0.888244
    23  C    0.273695
    24  C    0.886249
    25  H   -0.808363
    26  C    0.864855
    27  H   -0.637140
    28  C    0.683548
    29  C    0.568602
    30  N   -0.775043
    31  H   -0.123629
    32  N   -0.942674
    33  H   -0.113681
    34  O   -0.859362
    35  C    0.673863
    36  C    0.568693
    37  N   -0.743430
    38  H   -0.112764
    39  N   -0.872131
    40  H   -0.100791
    41  C    0.551340
    42  C    0.880394
    43  N   -0.563367
    44  H   -0.300765
    45  N   -0.481629
    46  H   -0.150370
    47  H   -0.681284
    48  H   -0.624994
    49  H    0.042045
    50  H   -0.290746
    51  H   -0.242016
    52  H   -0.310907
    53  H   -0.242010
    54  H   -0.318412
    55  H   -0.109710
    56  H   -0.136498
    57  H    0.039712
 Sum of Mulliken charges =   0.00000

 Dipole moment (field-independent basis, Debye):
    X=              1.0874    Y=              0.6229    Z=             -2.3757  Tot=              2.6860
 Quadrupole moment (field-independent basis, Debye-Ang):
   XX=           -202.8403   YY=           -164.8180   ZZ=           -202.9508
   XY=             -6.0587   XZ=            -22.2375   YZ=              1.0288

 Normal termination of Gaussian 16 at Fri Nov  5 20:42:23 2021.
