 Gaussian 16, Revision C.01,
 Gaussian 16:  ES64L-G16RevC.01  3-Jul-2019

 ----------------------------------------------------------------------
 #P PBE1PBE/Def2TZVP SP SCF=(YQC,MaxCycle=900) int=(Grid=Superfinegrid)
  EmpiricalDispersion=GD3 SCRF=(PCM,Solvent=Dichloromethane)
 ----------------------------------------------------------------------

 -------------------------
 _2_alde1_4_ami2_2_opt_dcm
 -------------------------
 Symbolic Z-matrix:
 Charge =  0 Multiplicity = 1

                         Standard orientation:
 ---------------------------------------------------------------------
 Center     Atomic      Atomic             Coordinates (Angstroms)
 Number     Number       Type             X           Y           Z
 ---------------------------------------------------------------------
      1          6           0       -2.436857   -1.447134   -1.149762
      2          6           0       -1.973667   -1.793561   -2.486512
      3          6           0       -3.241430   -0.333160   -0.943384
      4          6           0       -3.608179    0.049707    0.347892
      5          1           0       -3.602408    0.252354   -1.775207
      6          6           0       -3.119935   -0.664627    1.436931
      7          6           0       -2.311421   -1.783813    1.244715
      8          1           0       -3.352684   -0.365675    2.447687
      9          6           0       -2.002881   -2.184914   -0.049654
     10          6           0       -1.710595   -2.488837    2.365688
     11          1           0       -1.391223   -3.054571   -0.229024
     12          6           0       -4.476987    1.197937    0.561527
     13          1           0       -1.182431   -3.418833    2.107648
     14          1           0       -2.104582   -1.012519   -3.251661
     15          6           0        1.685618   -1.695475   -0.818341
     16          6           0        1.224038   -2.758695   -1.701743
     17          6           0        1.425004   -1.779670    0.544353
     18          6           0        1.746549   -0.727495    1.400553
     19          1           0        0.942903   -2.647378    0.965797
     20          6           0        2.384232    0.394040    0.884865
     21          6           0        2.694538    0.474600   -0.473636
     22          1           0        2.652021    1.224870    1.520265
     23          6           0        2.324209   -0.563219   -1.321635
     24          6           0        3.388590    1.639025   -1.003459
     25          1           0        2.518768   -0.514110   -2.382329
     26          6           0        1.351099   -0.767523    2.805106
     27          1           0        3.557918    1.639114   -2.093157
     28          1           0        1.436253    0.193452    3.326495
     29          6           0        0.632425   -3.602517   -3.828991
     30          6           0       -0.841135   -3.136927   -4.019446
     31          7           0        1.243019   -2.630762   -2.956392
     32          7           0       -1.418977   -2.897408   -2.738713
     33          6           0       -5.787223    2.990785   -0.159228
     34          6           0       -5.144582    4.268688   -0.776025
     35          7           0       -4.953459    1.862418   -0.399377
     36          7           0       -4.817845    4.089847   -2.179849
     37          6           0       -0.934285   -2.700291    4.527972
     38          6           0        0.406091   -1.918967    4.673160
     39          7           0       -1.733896   -2.041421    3.546004
     40          7           0        0.918597   -1.826397    3.331935
     41          6           0        6.000433    3.570989   -0.344758
     42          6           0        4.509665    3.670921   -0.795642
     43          7           0        6.636368    2.357194   -0.824692
     44          7           0        3.767323    2.585209   -0.258227
     45          1           0       -4.189962    3.299228   -2.279103
     46          1           0       -5.656417    3.882761   -2.712107
     47          1           0        6.171827    1.539685   -0.443912
     48          1           0        6.593460    2.303584   -1.836781
     49          1           0       -5.988400    3.154986    0.912713
     50          1           0       -6.737542    2.806195   -0.672809
     51          1           0       -1.391913   -3.947506   -4.505160
     52          1           0       -0.868176   -2.244827   -4.665212
     53          1           0        4.475863    3.701921   -1.899779
     54          1           0        4.088073    4.596065   -0.395963
     55          6           0        6.074141    3.572351    1.181598
     56          1           0        5.713781    4.516679    1.579456
     57          1           0        7.103959    3.422115    1.493500
     58          1           0        5.461216    2.768994    1.581180
     59          6           0        6.767772    4.763051   -0.917800
     60          1           0        7.813245    4.685530   -0.633012
     61          1           0        6.364085    5.697862   -0.538768
     62          1           0        6.707295    4.773014   -2.004268
     63          6           0       -3.850923    4.599927   -0.029442
     64          1           0       -3.380679    5.464142   -0.489621
     65          1           0       -3.160015    3.761043   -0.081319
     66          1           0       -4.056357    4.820421    1.015000
     67          6           0       -6.133119    5.429001   -0.654548
     68          1           0       -7.059344    5.200187   -1.177505
     69          1           0       -5.697923    6.319230   -1.099723
     70          1           0       -6.363746    5.630445    0.388267
     71          6           0        0.141254   -0.589628    5.385795
     72          1           0       -0.562577    0.005635    4.808937
     73          1           0        1.064430   -0.030101    5.523535
     74          1           0       -0.286771   -0.783949    6.365491
     75          1           0       -1.462958   -2.687646    5.482886
     76          1           0       -0.698486   -3.736910    4.243002
     77          6           0        1.393097   -2.767347    5.483227
     78          1           0        2.315893   -2.212484    5.637891
     79          1           0        1.627883   -3.682460    4.945647
     80          1           0        0.966127   -3.020793    6.450120
     81          6           0        0.633501   -5.045316   -3.308955
     82          1           0        1.623023   -5.312592   -2.942422
     83          1           0        0.367338   -5.721463   -4.117481
     84          1           0       -0.092714   -5.165127   -2.509693
     85          6           0        1.366489   -3.521269   -5.169568
     86          1           0        1.447089   -2.483785   -5.482175
     87          1           0        0.836232   -4.084933   -5.933157
     88          1           0        2.369621   -3.927012   -5.063224
     89          1           0       -4.701338    1.439351    1.612248
     90          1           0        0.829280   -3.638764   -1.183137
 ---------------------------------------------------------------------

 SCF Done:  E(RPBE1PBE) =  -1761.09340212     a.u. after    7 cycles
 SCF Done:  E(RPBE1PBE) =  -1761.09342037     A.U. after    8 cycles

 The electronic state is 1-A.
 Alpha  occ. eigenvalues --  -14.38206 -14.38055 -14.37844 -14.37796 -14.37674
 Alpha  occ. eigenvalues --  -14.37342 -14.35859 -14.35448 -10.26972 -10.26853
 Alpha  occ. eigenvalues --  -10.26759 -10.26716 -10.26713 -10.26572 -10.26441
 Alpha  occ. eigenvalues --  -10.26397 -10.25953 -10.25827 -10.24887 -10.24592
 Alpha  occ. eigenvalues --  -10.24582 -10.24506 -10.24421 -10.24398 -10.24366
 Alpha  occ. eigenvalues --  -10.24316 -10.24113 -10.24105 -10.24083 -10.24068
 Alpha  occ. eigenvalues --  -10.24041 -10.23882 -10.23863 -10.23848 -10.21054
 Alpha  occ. eigenvalues --  -10.20634 -10.20610 -10.20494 -10.20440 -10.20438
 Alpha  occ. eigenvalues --  -10.20170 -10.19961  -0.97947  -0.97791  -0.96793
 Alpha  occ. eigenvalues --   -0.96766  -0.95176  -0.94812  -0.91840  -0.91758
 Alpha  occ. eigenvalues --   -0.90300  -0.89658  -0.83980  -0.82917  -0.81177
 Alpha  occ. eigenvalues --   -0.80782  -0.80075  -0.78332  -0.78145  -0.78085
 Alpha  occ. eigenvalues --   -0.72863  -0.72214  -0.72099  -0.71953  -0.71471
 Alpha  occ. eigenvalues --   -0.71300  -0.70975  -0.70943  -0.68290  -0.67743
 Alpha  occ. eigenvalues --   -0.65984  -0.65870  -0.64701  -0.62932  -0.60926
 Alpha  occ. eigenvalues --   -0.59049  -0.57426  -0.57247  -0.56500  -0.56088
 Alpha  occ. eigenvalues --   -0.55117  -0.54266  -0.53943  -0.53682  -0.52568
 Alpha  occ. eigenvalues --   -0.51339  -0.50917  -0.50801  -0.50331  -0.50122
 Alpha  occ. eigenvalues --   -0.49825  -0.49155  -0.48818  -0.48505  -0.48050
 Alpha  occ. eigenvalues --   -0.47910  -0.47634  -0.47287  -0.47126  -0.46605
 Alpha  occ. eigenvalues --   -0.46538  -0.45607  -0.45318  -0.45125  -0.44889
 Alpha  occ. eigenvalues --   -0.44506  -0.43139  -0.42498  -0.42466  -0.41890
 Alpha  occ. eigenvalues --   -0.41498  -0.41310  -0.41161  -0.40757  -0.39996
 Alpha  occ. eigenvalues --   -0.39733  -0.39662  -0.39432  -0.39132  -0.39023
 Alpha  occ. eigenvalues --   -0.38972  -0.38951  -0.38595  -0.38391  -0.38120
 Alpha  occ. eigenvalues --   -0.37402  -0.37295  -0.37260  -0.36876  -0.36689
 Alpha  occ. eigenvalues --   -0.36435  -0.36140  -0.35757  -0.35278  -0.34989
 Alpha  occ. eigenvalues --   -0.34654  -0.34460  -0.34218  -0.33912  -0.33678
 Alpha  occ. eigenvalues --   -0.30884  -0.30364  -0.27564  -0.27323  -0.27207
 Alpha  occ. eigenvalues --   -0.27099  -0.26754  -0.26630  -0.26497  -0.26309
 Alpha  occ. eigenvalues --   -0.25859  -0.25718  -0.25064  -0.24811
 Alpha virt. eigenvalues --   -0.06617  -0.06308  -0.05941  -0.05453  -0.02667
 Alpha virt. eigenvalues --   -0.01535   0.04203   0.04280   0.04740   0.04991
 Alpha virt. eigenvalues --    0.05086   0.05530   0.05733   0.05955   0.06516

 Mulliken charges:
               1
     1  C    0.315761
     2  C   -0.162993
     3  C   -0.361383
     4  C    0.362677
     5  H    0.135458
     6  C   -0.368687
     7  C    0.361839
     8  H    0.126306
     9  C   -0.296442
    10  C   -0.170288
    11  H    0.149486
    12  C   -0.167574
    13  H    0.096895
    14  H    0.088060
    15  C    0.378959
    16  C   -0.196913
    17  C   -0.305812
    18  C    0.304812
    19  H    0.131858
    20  C   -0.354107
    21  C    0.379643
    22  H    0.133301
    23  C   -0.377321
    24  C   -0.211243
    25  H    0.123215
    26  C   -0.149035
    27  H    0.084414
    28  H    0.101172
    29  C    0.203688
    30  C   -0.110985
    31  N   -0.206922
    32  N   -0.205590
    33  C   -0.132674
    34  C    0.154224
    35  N   -0.192574
    36  N   -0.550369
    37  C   -0.055380
    38  C    0.138393
    39  N   -0.214541
    40  N   -0.197503
    41  C    0.144439
    42  C   -0.123256
    43  N   -0.543916
    44  N   -0.186135
    45  H    0.231604
    46  H    0.223700
    47  H    0.234965
    48  H    0.225497
    49  H    0.083741
    50  H    0.124161
    51  H    0.126190
    52  H    0.091283
    53  H    0.091503
    54  H    0.120330
    55  C   -0.388489
    56  H    0.118979
    57  H    0.123509
    58  H    0.134049
    59  C   -0.371673
    60  H    0.128493
    61  H    0.124165
    62  H    0.124479
    63  C   -0.386503
    64  H    0.126193
    65  H    0.133447
    66  H    0.119548
    67  C   -0.372248
    68  H    0.125492
    69  H    0.128384
    70  H    0.122777
    71  C   -0.446792
    72  H    0.145365
    73  H    0.136448
    74  H    0.135623
    75  H    0.123866
    76  H    0.088293
    77  C   -0.376930
    78  H    0.130971
    79  H    0.130444
    80  H    0.129532
    81  C   -0.435350
    82  H    0.136888
    83  H    0.137641
    84  H    0.139475
    85  C   -0.370775
    86  H    0.125798
    87  H    0.123667
    88  H    0.127231
    89  H    0.089421
    90  H    0.112648
 Sum of Mulliken charges =   0.00000

 Dipole moment (field-independent basis, Debye):
    X=             -1.7429    Y=             -0.9800    Z=              0.2247  Tot=              2.0121
 Quadrupole moment (field-independent basis, Debye-Ang):
   XX=           -265.0956   YY=           -251.3808   ZZ=           -233.3207
   XY=             -2.3985   XZ=             -5.7112   YZ=              5.7911

 1\1\GINC-CX3-6-2\SP\RPBE1PBE\def2TZVP\C34H48N8\ATARZIA\17-Oct-2021\0\\
 #P PBE1PBE/Def2TZVP SP SCF=(YQC,MaxCycle=900) int=(Grid=Superfinegrid)
  EmpiricalDispersion=GD3 SCRF=(PCM,Solvent=Dichloromethane)\\_2_alde1_
 4_ami2_2_opt_dcm\\0,1\C,0,-3.9992,-2.1149,-1.8823\C,0,-4.1306,-2.469,-
 0.4756\C,0,-3.4057,-2.9911,-2.7828\C,0,-3.1976,-2.6134,-4.1104\H,0,-3.
 1006,-3.9799,-2.4758\C,0,-3.5438,-1.3293,-4.5177\C,0,-4.1394,-0.4397,-
 3.6249\H,0,-3.3553,-0.9962,-5.527\C,0,-4.3917,-0.8517,-2.3218\C,0,-4.4
 218,0.937,-3.9985\H,0,-4.8637,-0.19,-1.6133\C,0,-2.6049,-3.543,-5.0609

 Normal termination of Gaussian 16 at Sun Oct 17 21:58:55 2021.
