 Gaussian 16, Revision C.01,
 Gaussian 16:  ES64L-G16RevC.01  3-Jul-2019

 ----------------------------------------------------------------------
 #P MP2/aug-cc-pVDZ SP SCF=(YQC,MaxCycle=900) int=(Grid=Superfinegrid)
 SCRF=(PCM,Solvent=Dichloromethane)
 ----------------------------------------------------------------------

 -----------------------------
 _2_alde1_3_ami4_1_opt_dcm_mp2
 -----------------------------
 Symbolic Z-matrix:
 Charge =  0 Multiplicity = 1

                         Standard orientation:
 ---------------------------------------------------------------------
 Center     Atomic      Atomic             Coordinates (Angstroms)
 Number     Number       Type             X           Y           Z
 ---------------------------------------------------------------------
      1          6           0       -2.430978   -0.720857    0.951586
      2          6           0       -2.021387   -2.110651    1.105871
      3          6           0       -3.707231   -0.392501    0.503963
      4          6           0       -4.053035    0.937912    0.273376
      5          1           0       -4.429678   -1.174936    0.329484
      6          6           0       -3.107225    1.941983    0.460929
      7          6           0       -1.826364    1.626495    0.907580
      8          1           0       -3.343003    2.975812    0.258569
      9          6           0       -1.504164    0.296650    1.172007
     10          6           0       -0.798248    2.652218    1.016758
     11          1           0       -0.509945    0.046892    1.517496
     12          6           0       -5.408567    1.274168   -0.190315
     13          1           0        0.137659    2.341434    1.503944
     14          1           0       -1.048003   -2.271754    1.592775
     15          6           0        0.489745   -1.500032   -1.138346
     16          6           0       -0.535748   -2.524910   -1.260294
     17          6           0        0.174091   -0.175644   -1.425916
     18          6           0        1.100764    0.836802   -1.190846
     19          1           0       -0.810073    0.072558   -1.800080
     20          6           0        2.365962    0.506260   -0.709080
     21          6           0        2.701493   -0.815018   -0.450673
     22          1           0        3.085075    1.293933   -0.548731
     23          6           0        1.759405   -1.810941   -0.650058
     24          6           0        4.067750   -1.136947    0.093247
     25          1           0        1.982453   -2.842460   -0.425815
     26          6           0        0.701188    2.225937   -1.354841
     27          1           0       -0.260670    2.390288   -1.864653
     28          6           0       -1.493657   -4.569483   -0.737746
     29          6           0       -2.186346   -4.374913    0.640629
     30          7           0       -0.378541   -3.686275   -0.783508
     31          1           0       -2.235447   -4.371300   -1.525297
     32          7           0       -2.728372   -3.060074    0.662099
     33          1           0       -1.437430   -4.546956    1.427551
     34          8           0       -6.289659    0.482368   -0.400320
     35          6           0        0.142842    4.701732    0.483220
     36          6           0        0.844476    4.491828   -0.887772
     37          7           0       -0.966095    3.810985    0.538851
     38          1           0       -0.227027    5.727012    0.534696
     39          7           0        1.393121    3.178476   -0.891853
     40          1           0        1.657751    5.214042   -0.976807
     41          6           0        5.635005   -0.663473    1.686534
     42          6           0        6.207296   -0.167828    0.338413
     43          7           0        4.196302   -0.753488    1.488767
     44          1           0        5.876763   -0.009909    2.522313
     45          7           0        5.108920   -0.369136   -0.602476
     46          1           0        7.115928   -0.713904    0.066087
     47          1           0       -1.467143   -2.212552   -1.756770
     48          1           0        4.243762   -2.227421    0.036998
     49          1           0        5.396962   -0.807017   -1.466994
     50          1           0       -5.567019    2.361190   -0.339742
     51          1           0       -1.132525   -5.597057   -0.804465
     52          1           0       -3.003112   -5.093286    0.726135
     53          1           0        0.881800    4.519740    1.277082
     54          1           0        0.101083    4.652535   -1.682922
     55          1           0        6.005336   -1.669217    1.907112
     56          1           0        6.445251    0.900875    0.376124
     57          1           0        3.778775    0.166364    1.605953
 ---------------------------------------------------------------------

 SCF Done:  E(RHF) =  -1325.62484765     a.u. after    6 cycles
 SCF Done:  E(RHF) =  -1325.62497009     A.U. after   13 cycles
 E2 =    -0.4529013970D+01 EUMP2 =    -0.13301539840624D+04

 The electronic state is 1-A.
 Alpha  occ. eigenvalues --  -20.57562 -15.56580 -15.56491 -15.56291 -15.56212
 Alpha  occ. eigenvalues --  -15.55850 -15.54760 -11.35019 -11.29352 -11.29263
 Alpha  occ. eigenvalues --  -11.29220 -11.29015 -11.28966 -11.27105 -11.26951
 Alpha  occ. eigenvalues --  -11.26567 -11.26023 -11.25988 -11.25953 -11.25950
 Alpha  occ. eigenvalues --  -11.25939 -11.25924 -11.25861 -11.25543 -11.25378
 Alpha  occ. eigenvalues --  -11.25121 -11.25104 -11.25039 -11.24908 -11.24784
 Alpha  occ. eigenvalues --  -11.24649  -1.41330  -1.28136  -1.27160  -1.26966
 Alpha  occ. eigenvalues --   -1.23824  -1.23342  -1.18631  -1.17127  -1.14370
 Alpha  occ. eigenvalues --   -1.08236  -1.07691  -1.06558  -1.05615  -1.01589
 Alpha  occ. eigenvalues --   -0.99203  -0.98467  -0.92199  -0.91738  -0.90592
 Alpha  occ. eigenvalues --   -0.89133  -0.86763  -0.84277  -0.83560  -0.82329
 Alpha  occ. eigenvalues --   -0.79650  -0.78772  -0.78378  -0.75615  -0.74663
 Alpha  occ. eigenvalues --   -0.71976  -0.71191  -0.69837  -0.69641  -0.68383
 Alpha  occ. eigenvalues --   -0.67925  -0.67463  -0.66760  -0.65806  -0.65011
 Alpha  occ. eigenvalues --   -0.64176  -0.63002  -0.62709  -0.62464  -0.61242
 Alpha  occ. eigenvalues --   -0.60981  -0.60803  -0.59974  -0.59262  -0.58298
 Alpha  occ. eigenvalues --   -0.57089  -0.55924  -0.55157  -0.55037  -0.54522
 Alpha  occ. eigenvalues --   -0.54171  -0.53870  -0.53254  -0.52831  -0.52440
 Alpha  occ. eigenvalues --   -0.51526  -0.51075  -0.50111  -0.49217  -0.48801
 Alpha  occ. eigenvalues --   -0.46146  -0.45790  -0.43799  -0.43151  -0.41855
 Alpha  occ. eigenvalues --   -0.41385  -0.41154  -0.40491  -0.40174  -0.39620
 Alpha  occ. eigenvalues --   -0.37230  -0.35620  -0.33219  -0.33079  -0.32092
 Alpha virt. eigenvalues --    0.03424   0.03742   0.03818   0.04323   0.04563
 Alpha virt. eigenvalues --    0.04685   0.04861   0.05174   0.05339   0.05471
 Alpha virt. eigenvalues --    0.05750   0.05913   0.06123   0.06470   0.06752

 Mulliken charges:
               1
     1  C    0.152546
     2  C    1.185101
     3  C    0.348121
     4  C    0.091786
     5  H   -0.812846
     6  C    0.754161
     7  C    0.172764
     8  H   -0.773763
     9  C    1.091249
    10  C    1.181757
    11  H   -0.970467
    12  C    1.284589
    13  H   -0.604554
    14  H   -0.621745
    15  C    1.074121
    16  C    0.659290
    17  C    0.846269
    18  C    1.150457
    19  H   -0.971105
    20  C   -0.058919
    21  C    0.761612
    22  H   -0.960689
    23  C    0.296117
    24  C    0.977698
    25  H   -0.820712
    26  C    0.513269
    27  H   -0.618666
    28  C    0.622823
    29  C    0.667840
    30  N   -0.774401
    31  H   -0.138353
    32  N   -0.837680
    33  H   -0.132162
    34  O   -0.866244
    35  C    0.618019
    36  C    0.638942
    37  N   -0.882804
    38  H   -0.315539
    39  N   -0.684091
    40  H   -0.319200
    41  C    0.679580
    42  C    0.677971
    43  N   -0.595233
    44  H   -0.227749
    45  N   -0.546273
    46  H   -0.188126
    47  H   -0.630472
    48  H   -0.363526
    49  H   -0.036234
    50  H   -0.291331
    51  H   -0.322173
    52  H   -0.319798
    53  H   -0.145792
    54  H   -0.138941
    55  H   -0.266346
    56  H   -0.268979
    57  H    0.058830
 Sum of Mulliken charges =   0.00000

 Dipole moment (field-independent basis, Debye):
    X=              5.9576    Y=              1.5909    Z=              0.4501  Tot=              6.1828
 Quadrupole moment (field-independent basis, Debye-Ang):
   XX=           -206.9448   YY=           -174.0694   ZZ=           -183.2542
   XY=             -8.6490   XZ=              2.3216   YZ=              2.1855

 Normal termination of Gaussian 16 at Mon Nov 15 15:22:59 2021.
