 Gaussian 16, Revision C.01,
 Gaussian 16:  ES64L-G16RevC.01  3-Jul-2019

 ----------------------------------------------------------------------
 #P MP2/aug-cc-pVDZ SP SCF=(YQC,MaxCycle=900) int=(Grid=Superfinegrid)
 SCRF=(PCM,Solvent=Chloroform)
 ----------------------------------------------------------------------

 -----------------------------
 _2_alde1_4_ami2_1_opt_cfm_mp2
 -----------------------------
 Symbolic Z-matrix:
 Charge =  0 Multiplicity = 1

                         Standard orientation:
 ---------------------------------------------------------------------
 Center     Atomic      Atomic             Coordinates (Angstroms)
 Number     Number       Type             X           Y           Z
 ---------------------------------------------------------------------
      1          6           0        2.903466    1.092003   -0.023019
      2          6           0        2.388342    2.271494   -0.711196
      3          6           0        3.965252    0.353330   -0.540934
      4          6           0        4.442294   -0.760699    0.134748
      5          1           0        4.452955    0.655988   -1.456165
      6          6           0        3.828650   -1.166256    1.311012
      7          6           0        2.741892   -0.458616    1.820383
      8          1           0        4.188134   -2.048605    1.822118
      9          6           0        2.297392    0.680709    1.156470
     10          6           0        2.042749   -0.907728    3.017792
     11          1           0        1.463076    1.235170    1.552228
     12          6           0        5.585515   -1.555433   -0.439591
     13          1           0        2.506706   -1.734781    3.581961
     14          1           0        2.499530    2.285471   -1.809050
     15          6           0       -2.460239    1.783061   -0.383872
     16          6           0       -1.839593    3.088019   -0.593594
     17          6           0       -2.031541    0.950100    0.646272
     18          6           0       -2.598124   -0.307579    0.812196
     19          1           0       -1.244755    1.275448    1.306353
     20          6           0       -3.604408   -0.727673   -0.056160
     21          6           0       -4.056400    0.104341   -1.068574
     22          1           0       -4.050598   -1.705985    0.049725
     23          6           0       -3.482397    1.356298   -1.229753
     24          6           0       -5.193388   -0.329171   -1.956729
     25          1           0       -3.830214    2.000777   -2.025216
     26          6           0       -2.116769   -1.205012    1.860443
     27          1           0       -2.239878   -2.274324    1.634368
     28          6           0       -0.102085    4.651347   -0.057976
     29          6           0        1.260960    4.321619   -0.720596
     30          7           0       -0.809968    3.409369    0.051890
     31          7           0        1.844201    3.202255   -0.063832
     32          6           0        6.286056   -2.884623   -2.162595
     33          6           0        7.095644   -1.562870   -2.274286
     34          7           0        5.113355   -2.579655   -1.358832
     35          7           0        6.481970   -0.723457   -1.242423
     36          6           0        0.195227   -0.798821    4.468002
     37          6           0       -1.062811   -1.565253    3.968152
     38          7           0        0.956981   -0.364718    3.350705
     39          7           0       -1.608321   -0.751315    2.916495
     40          6           0       -7.435232   -0.771703   -2.052899
     41          6           0       -6.715846   -2.137072   -2.229623
     42          7           0       -6.471773    0.116416   -1.424103
     43          7           0       -5.306124   -1.786308   -2.038120
     44          1           0       -2.335092    3.722276   -1.343237
     45          1           0       -6.468755   -0.032607   -0.418547
     46          1           0       -5.080510    0.134984   -2.956042
     47          1           0       -4.698772   -2.184913   -2.741541
     48          1           0        7.158288   -0.222482   -0.681916
     49          1           0        4.389512   -2.172071   -1.944958
     50          1           0        6.120644   -2.077940    0.377449
     51          1           0       -8.346181   -0.844939   -1.461962
     52          1           0       -7.684836   -0.352817   -3.033248
     53          1           0        6.002855   -3.291413   -3.131556
     54          1           0        6.872665   -3.636083   -1.624328
     55          1           0        1.919666    5.185997   -0.583792
     56          1           0        1.124438    4.154828   -1.803766
     57          1           0        0.759530   -1.443118    5.163901
     58          1           0       -0.141341    0.101461    4.987265
     59          6           0       -7.124575   -3.122712   -1.129498
     60          1           0       -6.963654   -2.677125   -0.150756
     61          1           0       -6.521207   -4.024783   -1.196781
     62          1           0       -8.173228   -3.392369   -1.228597
     63          6           0       -6.990177   -2.741600   -3.606787
     64          1           0       -8.057088   -2.905467   -3.740230
     65          1           0       -6.478204   -3.696682   -3.708913
     66          1           0       -6.642176   -2.073090   -4.392891
     67          6           0        8.587244   -1.798463   -2.032197
     68          1           0        8.982496   -2.498054   -2.765224
     69          1           0        8.751193   -2.210175   -1.037516
     70          1           0        9.135972   -0.862195   -2.116882
     71          6           0        6.881657   -0.894457   -3.636495
     72          1           0        7.309872   -1.500981   -4.430732
     73          1           0        7.354012    0.084872   -3.647517
     74          1           0        5.818937   -0.762170   -3.824426
     75          6           0        0.150478    5.105961    1.384358
     76          1           0       -0.796471    5.259944    1.895993
     77          1           0        0.718006    6.032983    1.398944
     78          1           0        0.709593    4.330532    1.897821
     79          6           0       -0.796039    5.761952   -0.857038
     80          1           0       -0.928271    5.475118   -1.898754
     81          1           0       -0.191740    6.665070   -0.826767
     82          1           0       -1.770302    5.981172   -0.424871
     83          6           0       -2.095192   -1.618849    5.101627
     84          1           0       -1.661983   -2.079755    5.985988
     85          1           0       -2.960243   -2.199532    4.788097
     86          1           0       -2.425425   -0.613306    5.347863
     87          6           0       -0.660187   -2.989249    3.561175
     88          1           0       -0.173876   -3.486354    4.397111
     89          1           0        0.029462   -2.957491    2.719234
     90          1           0       -1.531890   -3.576961    3.282004
 ---------------------------------------------------------------------

 SCF Done:  E(RHF) =  -1751.20753100     a.u. after    7 cycles
 SCF Done:  E(RHF) =  -1751.20757151     A.U. after   19 cycles
 E2 =    -0.6205259383D+01 EUMP2 =    -0.17574128308932D+04

 The electronic state is 1-A.
 Alpha  occ. eigenvalues --  -15.55511 -15.55464 -15.55417 -15.55226 -15.55219
 Alpha  occ. eigenvalues --  -15.54947 -15.54192 -15.54178 -11.28990 -11.28974
 Alpha  occ. eigenvalues --  -11.27922 -11.27775 -11.27732 -11.27571 -11.26527
 Alpha  occ. eigenvalues --  -11.26204 -11.26083 -11.26067 -11.25163 -11.24951
 Alpha  occ. eigenvalues --  -11.24906 -11.24753 -11.24285 -11.24132 -11.24078
 Alpha  occ. eigenvalues --  -11.24052 -11.24018 -11.23986 -11.23939 -11.23903
 Alpha  occ. eigenvalues --  -11.23784 -11.23592 -11.23179 -11.23176 -11.21813
 Alpha  occ. eigenvalues --  -11.21794 -11.21587 -11.21549 -11.21507 -11.21165
 Alpha  occ. eigenvalues --  -11.21124 -11.20393  -1.28130  -1.28079  -1.25740
 Alpha  occ. eigenvalues --   -1.25532  -1.23183  -1.22709  -1.16657  -1.15994
 Alpha  occ. eigenvalues --   -1.14875  -1.14861  -1.08720  -1.08161  -1.06948
 Alpha  occ. eigenvalues --   -1.05501  -1.04753  -1.02327  -1.02066  -1.01277
 Alpha  occ. eigenvalues --   -0.94694  -0.94469  -0.93700  -0.93683  -0.93675
 Alpha  occ. eigenvalues --   -0.93390  -0.91979  -0.91939  -0.88685  -0.88426
 Alpha  occ. eigenvalues --   -0.86875  -0.85572  -0.84858  -0.83386  -0.79573
 Alpha  occ. eigenvalues --   -0.78852  -0.76575  -0.76477  -0.75933  -0.75631
 Alpha  occ. eigenvalues --   -0.73628  -0.72687  -0.70113  -0.69336  -0.68702
 Alpha  occ. eigenvalues --   -0.68308  -0.67067  -0.67019  -0.66423  -0.66260
 Alpha  occ. eigenvalues --   -0.64962  -0.64212  -0.63890  -0.63371  -0.62218
 Alpha  occ. eigenvalues --   -0.61515  -0.61222  -0.60841  -0.60514  -0.60333
 Alpha  occ. eigenvalues --   -0.59854  -0.59659  -0.59520  -0.59426  -0.58197
 Alpha  occ. eigenvalues --   -0.57941  -0.56996  -0.56630  -0.56399  -0.56095
 Alpha  occ. eigenvalues --   -0.55052  -0.54859  -0.54653  -0.54530  -0.54220
 Alpha  occ. eigenvalues --   -0.54152  -0.53904  -0.53163  -0.52707  -0.52349
 Alpha  occ. eigenvalues --   -0.52249  -0.51741  -0.51082  -0.51020  -0.50759
 Alpha  occ. eigenvalues --   -0.50737  -0.50667  -0.50548  -0.49859  -0.49523
 Alpha  occ. eigenvalues --   -0.48977  -0.48333  -0.48198  -0.47934  -0.47108
 Alpha  occ. eigenvalues --   -0.46933  -0.46784  -0.46761  -0.44368  -0.43231
 Alpha  occ. eigenvalues --   -0.41659  -0.40654  -0.40173  -0.39948  -0.38711
 Alpha  occ. eigenvalues --   -0.38649  -0.37985  -0.37615  -0.36629  -0.36573
 Alpha  occ. eigenvalues --   -0.32242  -0.32085  -0.31732  -0.31518
 Alpha virt. eigenvalues --    0.03243   0.03535   0.03625   0.03899   0.04183
 Alpha virt. eigenvalues --    0.04241   0.04493   0.04646   0.04777   0.04961
 Alpha virt. eigenvalues --    0.05071   0.05450   0.05598   0.05855   0.06012

 Mulliken charges:
               1
     1  C    0.427653
     2  C    0.351617
     3  C    0.568150
     4  C    0.783928
     5  H   -0.840428
     6  C    0.182732
     7  C    0.939956
     8  H   -0.797619
     9  C    0.351889
    10  C    0.544519
    11  H   -0.962398
    12  C    0.481150
    13  H   -0.714579
    14  H   -0.554049
    15  C    1.104043
    16  C    0.030073
    17  C    0.318352
    18  C    0.912929
    19  H   -1.081444
    20  C    0.297905
    21  C    0.431983
    22  H   -0.937575
    23  C    0.242922
    24  C    0.631169
    25  H   -0.802302
    26  C    0.087478
    27  H   -0.651036
    28  C   -3.957920
    29  C    1.845146
    30  N    0.672429
    31  N   -0.410321
    32  C    1.383226
    33  C   -2.283227
    34  N   -0.639790
    35  N   -0.344267
    36  C    1.440643
    37  C   -3.597471
    38  N   -0.199308
    39  N    0.085091
    40  C    1.391781
    41  C   -2.319988
    42  N   -0.569878
    43  N   -0.325376
    44  H   -0.764094
    45  H    0.098539
    46  H   -0.282228
    47  H   -0.041106
    48  H   -0.050130
    49  H    0.098086
    50  H   -0.327061
    51  H   -0.212754
    52  H   -0.295542
    53  H   -0.207319
    54  H   -0.294504
    55  H   -0.211622
    56  H   -0.209586
    57  H   -0.144749
    58  H   -0.297177
    59  C    1.096792
    60  H   -0.070900
    61  H   -0.074453
    62  H   -0.022228
    63  C    1.000763
    64  H   -0.032009
    65  H   -0.016457
    66  H   -0.032289
    67  C    1.014077
    68  H   -0.038523
    69  H   -0.036499
    70  H   -0.020567
    71  C    1.133226
    72  H   -0.018458
    73  H   -0.082866
    74  H   -0.074105
    75  C    1.508846
    76  H   -0.109810
    77  H   -0.017241
    78  H   -0.043036
    79  C    1.525476
    80  H    0.016893
    81  H   -0.191211
    82  H    0.082185
    83  C    1.587531
    84  H    0.002608
    85  H   -0.067824
    86  H   -0.048558
    87  C    1.741563
    88  H   -0.157209
    89  H    0.074694
    90  H   -0.006954
 Sum of Mulliken charges =   0.00000

 Dipole moment (field-independent basis, Debye):
    X=              1.1440    Y=             -3.6462    Z=             -4.2814  Tot=              5.7388
 Quadrupole moment (field-independent basis, Debye-Ang):
   XX=           -216.5108   YY=           -246.6293   ZZ=           -239.5014
   XY=              4.6806   XZ=              4.0563   YZ=            -12.9095

 Normal termination of Gaussian 16 at Fri Nov  5 18:07:48 2021.
