 Gaussian 16, Revision C.01,
 Gaussian 16:  ES64L-G16RevC.01  3-Jul-2019

 ----------------------------------------------------------------------
 #P MP2/aug-cc-pVDZ SP SCF=(YQC,MaxCycle=900) int=(Grid=Superfinegrid)
 SCRF=(PCM,Solvent=Chloroform)
 ----------------------------------------------------------------------

 -----------------------------
 _2_alde1_3_ami1_2_opt_cfm_mp2
 -----------------------------
 Symbolic Z-matrix:
 Charge =  0 Multiplicity = 1

                         Standard orientation:
 ---------------------------------------------------------------------
 Center     Atomic      Atomic             Coordinates (Angstroms)
 Number     Number       Type             X           Y           Z
 ---------------------------------------------------------------------
      1          6           0       -1.064629    1.426067   -1.894340
      2          6           0       -1.152811    2.840950   -1.565912
      3          6           0        0.139457    0.905012   -2.351602
      4          6           0        0.296484   -0.470816   -2.523429
      5          1           0        0.981298    1.550595   -2.557010
      6          6           0       -0.753453   -1.328527   -2.221937
      7          6           0       -1.960803   -0.822049   -1.742619
      8          1           0       -0.641482   -2.398368   -2.308329
      9          6           0       -2.113687    0.553228   -1.601937
     10          6           0       -2.964972   -1.728690   -1.204980
     11          1           0       -3.031882    0.971615   -1.218315
     12          6           0        1.596252   -1.008377   -2.934803
     13          1           0       -3.834084   -1.253047   -0.727133
     14          1           0       -0.225424    3.414162   -1.716192
     15          6           0       -0.509792    1.120698    1.415673
     16          6           0       -1.386649    2.279637    1.459952
     17          6           0       -1.071484   -0.150167    1.445456
     18          6           0       -0.286800   -1.284149    1.238139
     19          1           0       -2.131603   -0.284237    1.596334
     20          6           0        1.079692   -1.133726    1.034079
     21          6           0        1.666120    0.132831    1.038038
     22          1           0        1.713439   -1.991423    0.866128
     23          6           0        0.864263    1.254062    1.217644
     24          6           0        3.106112    0.284441    0.873639
     25          1           0        1.286437    2.247224    1.193378
     26          6           0       -0.911601   -2.594968    1.129741
     27          1           0       -0.243971   -3.419930    0.836804
     28          6           0       -1.947681    4.492313    1.053693
     29          6           0       -2.095472    4.671853   -0.495045
     30          7           0       -0.979212    3.456720    1.257722
     31          1           0       -2.934924    4.184525    1.437705
     32          6           0       -1.503521    5.775306    1.776555
     33          7           0       -2.181362    3.354670   -1.047189
     34          1           0       -1.187532    5.187088   -0.850690
     35          6           0       -3.332117    5.493965   -0.897296
     36          1           0       -2.183017    6.585394    1.492585
     37          6           0       -1.621638    5.552372    3.284524
     38          6           0       -3.237932    5.826746   -2.386572
     39          6           0       -4.636205    4.753828   -0.613069
     40          8           0        2.596156   -0.353858   -3.097782
     41          6           0       -3.589038   -3.795368   -0.340209
     42          6           0       -2.767400   -4.006728    0.975990
     43          7           0       -2.771882   -2.974580   -1.176719
     44          1           0       -4.522837   -3.277175   -0.063739
     45          6           0       -3.931477   -5.115514   -1.051230
     46          7           0       -2.151957   -2.754061    1.290167
     47          1           0       -2.007614   -4.779804    0.768991
     48          6           0       -3.646650   -4.468885    2.153441
     49          1           0       -4.320477   -5.816977   -0.305502
     50          6           0       -5.023367   -4.853930   -2.088287
     51          1           0       -4.293272   -5.278692    1.799514
     52          6           0       -2.749432   -5.014605    3.263939
     53          6           0        5.847009   -1.164662   -0.687808
     54          6           0        5.278880   -0.542911    0.630685
     55          7           0        4.900926   -1.980887   -1.426745
     56          1           0        6.665562   -1.840893   -0.404075
     57          6           0        6.455988   -0.116300   -1.640701
     58          7           0        3.861113   -0.705025    0.681207
     59          1           0        5.557145    0.523647    0.681597
     60          6           0        5.885242   -1.225308    1.881557
     61          1           0        6.667122   -0.663197   -2.566006
     62          6           0        5.510368    1.033004   -1.985681
     63          1           0        6.973913   -1.208671    1.756230
     64          6           0        5.534837   -0.434483    3.140768
     65          1           0       -2.454701    2.049818    1.596524
     66          1           0        4.385186   -2.567257   -0.779693
     67          1           0        3.487515    1.314439    0.960527
     68          1           0        1.607884   -2.106359   -3.071760
     69          6           0       -0.073242    6.172075    1.421283
     70          1           0       -3.320667    6.431621   -0.332309
     71          6           0       -2.712329   -5.735530   -1.728451
     72          6           0       -4.516963   -3.339565    2.697921
     73          6           0        7.774911    0.426181   -1.092812
     74          6           0        5.421115   -2.672111    2.022460
     75          1           0        4.223770   -1.390457   -1.898667
     76          1           0       -4.791416    4.619319    0.454144
     77          1           0       -4.613811    3.777529   -1.088632
     78          1           0       -5.477003    5.319991   -1.007331
     79          1           0       -2.642216    5.293255    3.559249
     80          1           0       -1.339232    6.452778    3.825118
     81          1           0       -0.964712    4.741439    3.591647
     82          1           0        0.248499    7.000859    2.047906
     83          1           0        0.005862    6.484459    0.383363
     84          1           0        0.589991    5.327580    1.583853
     85          1           0       -3.234427    4.910349   -2.972900
     86          1           0       -2.326008    6.379394   -2.603471
     87          1           0       -4.086940    6.432507   -2.694539
     88          1           0        5.335731    1.676590   -1.125962
     89          1           0        4.553551    0.662664   -2.342062
     90          1           0        5.949911    1.641407   -2.773327
     91          1           0        4.456640   -0.412990    3.289148
     92          1           0        5.893842    0.590575    3.067186
     93          1           0        5.992338   -0.894528    4.013751
     94          1           0        8.219486    1.118510   -1.804296
     95          1           0        8.480318   -0.382771   -0.915899
     96          1           0        7.621163    0.956486   -0.155193
     97          1           0        5.687770   -3.254005    1.144328
     98          1           0        4.341911   -2.703870    2.147906
     99          1           0        5.887582   -3.130109    2.892230
    100          1           0       -5.920175   -4.457549   -1.616267
    101          1           0       -5.285908   -5.774688   -2.603664
    102          1           0       -4.671875   -4.133397   -2.823859
    103          1           0       -2.075120   -4.236235    3.615050
    104          1           0       -2.154709   -5.852503    2.905789
    105          1           0       -3.350764   -5.355603    4.103455
    106          1           0       -5.209750   -2.975343    1.944244
    107          1           0       -3.888926   -2.512971    3.017813
    108          1           0       -5.095694   -3.694499    3.547770
    109          1           0       -2.297927   -5.036871   -2.449373
    110          1           0       -2.999411   -6.648687   -2.244778
    111          1           0       -1.940493   -5.982890   -1.004853
 ---------------------------------------------------------------------

 SCF Done:  E(RHF) =  -2028.27625543     a.u. after    7 cycles
 SCF Done:  E(RHF) =  -2028.27633905     A.U. after   23 cycles
 E2 =    -0.7304434638D+01 EUMP2 =    -0.20355807736896D+04

 The electronic state is 1-A.
 Alpha  occ. eigenvalues --  -20.57462 -15.55681 -15.55667 -15.55611 -15.55543
 Alpha  occ. eigenvalues --  -15.55405 -15.52768 -11.34989 -11.28687 -11.28687
 Alpha  occ. eigenvalues --  -11.28527 -11.28428 -11.28381 -11.26621 -11.26521
 Alpha  occ. eigenvalues --  -11.26422 -11.25679 -11.25626 -11.25615 -11.25600
 Alpha  occ. eigenvalues --  -11.25598 -11.25575 -11.25516 -11.25290 -11.25252
 Alpha  occ. eigenvalues --  -11.25226 -11.25023 -11.24993 -11.24939 -11.24790
 Alpha  occ. eigenvalues --  -11.24403 -11.22797 -11.22743 -11.22732 -11.22657
 Alpha  occ. eigenvalues --  -11.22550 -11.21922 -11.21209 -11.21203 -11.21133
 Alpha  occ. eigenvalues --  -11.21074 -11.20997 -11.20972 -11.20869 -11.20845
 Alpha  occ. eigenvalues --  -11.20841 -11.20836 -11.20762 -11.20352  -1.41247
 Alpha  occ. eigenvalues --   -1.27149  -1.26934  -1.25286  -1.23446  -1.22931
 Alpha  occ. eigenvalues --   -1.18630  -1.17796  -1.16626  -1.10839  -1.09910
 Alpha  occ. eigenvalues --   -1.08311  -1.07792  -1.07240  -1.06121  -1.05827
 Alpha  occ. eigenvalues --   -1.05439  -1.04591  -1.04513  -0.97886  -0.97243
 Alpha  occ. eigenvalues --   -0.95615  -0.92980  -0.92946  -0.92733  -0.92679
 Alpha  occ. eigenvalues --   -0.92614  -0.92483  -0.91377  -0.91049  -0.90355
 Alpha  occ. eigenvalues --   -0.88578  -0.88287  -0.86001  -0.84643  -0.84205
 Alpha  occ. eigenvalues --   -0.82574  -0.79332  -0.78690  -0.77593  -0.76922
 Alpha  occ. eigenvalues --   -0.76487  -0.75486  -0.75071  -0.74124  -0.73571
 Alpha  occ. eigenvalues --   -0.73330  -0.71705  -0.70798  -0.69486  -0.68463
 Alpha  occ. eigenvalues --   -0.67674  -0.66884  -0.66594  -0.66180  -0.65837
 Alpha  occ. eigenvalues --   -0.65613  -0.64413  -0.64214  -0.63998  -0.63404
 Alpha  occ. eigenvalues --   -0.63013  -0.62642  -0.62254  -0.61678  -0.60834
 Alpha  occ. eigenvalues --   -0.60301  -0.60048  -0.59869  -0.59612  -0.58859
 Alpha  occ. eigenvalues --   -0.58475  -0.58361  -0.57903  -0.57825  -0.57614
 Alpha  occ. eigenvalues --   -0.57421  -0.56765  -0.56374  -0.56351  -0.55459
 Alpha  occ. eigenvalues --   -0.55176  -0.54158  -0.54119  -0.53959  -0.53840
 Alpha  occ. eigenvalues --   -0.53590  -0.53186  -0.53157  -0.52778  -0.52701
 Alpha  occ. eigenvalues --   -0.52601  -0.52515  -0.52459  -0.52377  -0.51818
 Alpha  occ. eigenvalues --   -0.51707  -0.51088  -0.50963  -0.50048  -0.49547
 Alpha  occ. eigenvalues --   -0.48272  -0.47900  -0.47878  -0.47477  -0.47167
 Alpha  occ. eigenvalues --   -0.47150  -0.47025  -0.46895  -0.46694  -0.46031
 Alpha  occ. eigenvalues --   -0.45922  -0.45829  -0.45595  -0.45540  -0.45319
 Alpha  occ. eigenvalues --   -0.44868  -0.44620  -0.43800  -0.43220  -0.42642
 Alpha  occ. eigenvalues --   -0.41507  -0.40302  -0.40018  -0.39969  -0.39712
 Alpha  occ. eigenvalues --   -0.39621  -0.38822  -0.36995  -0.34928  -0.33541
 Alpha  occ. eigenvalues --   -0.31509  -0.31251
 Alpha virt. eigenvalues --    0.03071   0.03308   0.03392   0.03771   0.03909
 Alpha virt. eigenvalues --    0.04089   0.04334   0.04359   0.04419   0.04553
 Alpha virt. eigenvalues --    0.04896   0.05089   0.05222   0.05281   0.05382

 Mulliken charges:
               1
     1  C    0.777340
     2  C    0.590342
     3  C    0.632659
     4  C    0.964085
     5  H   -0.942192
     6  C    1.178457
     7  C    0.361540
     8  H   -0.882717
     9  C    0.710797
    10  C    0.357043
    11  H   -0.939471
    12  C    0.848333
    13  H   -0.910623
    14  H   -0.959851
    15  C    1.180141
    16  C    0.413288
    17  C    0.291081
    18  C    1.446247
    19  H   -1.103267
    20  C    0.185690
    21  C    1.921797
    22  H   -1.068304
    23  C    0.493984
    24  C    0.014750
    25  H   -1.082717
    26  C    0.712987
    27  H   -1.046478
    28  C    0.244880
    29  C    0.135798
    30  N   -0.652612
    31  H   -0.324535
    32  C   -0.822415
    33  N   -0.503866
    34  H   -0.274650
    35  C   -0.822592
    36  H   -0.348285
    37  C    1.074788
    38  C    1.062937
    39  C    1.099655
    40  O   -0.949770
    41  C    0.258513
    42  C    0.230507
    43  N   -0.651953
    44  H   -0.320001
    45  C   -0.749351
    46  N   -0.474619
    47  H   -0.287149
    48  C   -0.819105
    49  H   -0.382534
    50  C    0.985695
    51  H   -0.366727
    52  C    1.039619
    53  C    1.266313
    54  C   -0.717520
    55  N   -0.380705
    56  H   -0.669142
    57  C   -0.984139
    58  N   -0.014800
    59  H   -0.717248
    60  C   -0.703264
    61  H   -0.210026
    62  C    1.463489
    63  H   -0.341933
    64  C    1.185335
    65  H   -0.894093
    66  H    0.041051
    67  H   -0.979579
    68  H   -0.533724
    69  C    1.093305
    70  H   -0.346646
    71  C    1.176177
    72  C    1.178417
    73  C    0.954506
    74  C    1.287012
    75  H   -0.004948
    76  H   -0.144620
    77  H   -0.009360
    78  H   -0.181175
    79  H   -0.099170
    80  H   -0.152876
    81  H    0.013111
    82  H   -0.172177
    83  H   -0.138221
    84  H   -0.036886
    85  H    0.031297
    86  H   -0.096639
    87  H   -0.156104
    88  H    0.002506
    89  H   -0.482227
    90  H   -0.167180
    91  H    0.039212
    92  H   -0.046404
    93  H   -0.143367
    94  H   -0.095194
    95  H   -0.057806
    96  H   -0.068260
    97  H   -0.101016
    98  H   -0.047176
    99  H   -0.166011
   100  H   -0.110910
   101  H   -0.129203
   102  H    0.001545
   103  H    0.014870
   104  H   -0.098793
   105  H   -0.139519
   106  H   -0.184514
   107  H    0.002323
   108  H   -0.193698
   109  H    0.016381
   110  H   -0.179834
   111  H   -0.197909
 Sum of Mulliken charges =   0.00000

 Dipole moment (field-independent basis, Debye):
    X=             -4.3418    Y=              0.9333    Z=              2.1384  Tot=              4.9290
 Quadrupole moment (field-independent basis, Debye-Ang):
   XX=           -314.0934   YY=           -292.2822   ZZ=           -322.7986
   XY=             10.3257   XZ=             10.4750   YZ=             -4.2769

 Normal termination of Gaussian 16 at Tue Oct 26 19:20:11 2021.
