 Gaussian 16, Revision C.01,
 Gaussian 16:  ES64L-G16RevC.01  3-Jul-2019

 ----------------------------------------------------------------------
 #P PBE1PBE/Def2TZVP SP SCF=(YQC,MaxCycle=900) int=(Grid=Superfinegrid)
  EmpiricalDispersion=GD3
 ----------------------------------------------------------------------

 -------------------------
 _2_alde1_4_ami1_2_opt_gas
 -------------------------
 Symbolic Z-matrix:
 Charge =  0 Multiplicity = 1

                         Standard orientation:
 ---------------------------------------------------------------------
 Center     Atomic      Atomic             Coordinates (Angstroms)
 Number     Number       Type             X           Y           Z
 ---------------------------------------------------------------------
      1          6           0       -0.947134    0.013390    2.163696
      2          6           0       -0.198206   -1.035491    2.842922
      3          6           0       -0.386781    1.269235    1.964489
      4          6           0       -1.075999    2.250207    1.249783
      5          1           0        0.586609    1.511334    2.363502
      6          6           0       -2.313602    1.946624    0.693002
      7          6           0       -2.886519    0.689906    0.880864
      8          1           0       -2.850944    2.674288    0.103870
      9          6           0       -2.209656   -0.258513    1.638896
     10          6           0       -4.130190    0.317117    0.225939
     11          1           0       -2.633831   -1.235134    1.811635
     12          6           0       -0.513752    3.583430    1.086003
     13          1           0       -4.510649   -0.683308    0.481514
     14          1           0        0.873346   -0.833162    2.994684
     15          1           0       -1.118866    4.286511    0.490415
     16          6           0       -0.674180   -2.617257   -0.487966
     17          6           0       -0.806620   -3.447989    0.699035
     18          6           0       -1.813449   -2.098722   -1.095560
     19          6           0       -1.708892   -1.155894   -2.115851
     20          1           0       -2.799712   -2.384535   -0.764181
     21          6           0       -0.446675   -0.771126   -2.559322
     22          6           0        0.702815   -1.313943   -1.989860
     23          1           0       -0.357625   -0.034546   -3.346594
     24          6           0        0.580459   -2.224919   -0.945169
     25          6           0        2.019795   -0.886435   -2.443673
     26          1           0        1.467256   -2.614617   -0.473032
     27          6           0       -2.895879   -0.489505   -2.629473
     28          1           0        2.034615   -0.154521   -3.267361
     29          1           0       -2.705105    0.399480   -3.252541
     30          6           0       -0.030093   -4.358629    2.688642
     31          6           0        0.064180   -3.186351    3.713212
     32          7           0        0.189437   -3.770499    1.401783
     33          1           0       -1.049339   -4.774445    2.761894
     34          6           0        0.992192   -5.481866    2.930245
     35          7           0       -0.735825   -2.121693    3.187342
     36          1           0        1.122697   -2.883411    3.780951
     37          6           0       -0.434381   -3.565713    5.121468
     38          1           0        0.875488   -5.841940    3.957820
     39          6           0        2.428058   -5.007361    2.722404
     40          6           0        0.682609   -6.636579    1.977162
     41          1           0        0.086253   -4.477305    5.431643
     42          6           0       -1.940204   -3.812355    5.155168
     43          6           0       -0.068260   -2.448354    6.098505
     44          1           0        1.369438   -7.462927    2.144481
     45          1           0        0.783765   -6.302033    0.947067
     46          1           0       -0.332845   -6.999188    2.124810
     47          1           0        3.107129   -5.856789    2.745768
     48          1           0        2.732185   -4.312103    3.500220
     49          1           0        2.511989   -4.513198    1.758941
     50          1           0       -0.566982   -1.523858    5.814733
     51          1           0        1.005999   -2.274613    6.103560
     52          1           0       -0.377121   -2.711925    7.107447
     53          1           0       -2.266982   -3.972525    6.180304
     54          1           0       -2.210233   -4.690270    4.574422
     55          1           0       -2.462373   -2.950621    4.748598
     56          6           0        1.074639    5.253587    1.479006
     57          6           0        2.536685    5.196609    0.935273
     58          7           0        0.581949    3.916003    1.612147
     59          1           0        0.444723    5.826578    0.776682
     60          6           0        0.934209    5.946954    2.856726
     61          7           0        3.210222    3.947125    1.248261
     62          1           0        3.122486    5.996761    1.399606
     63          6           0        2.576190    5.413997   -0.591685
     64          1           0       -0.114488    5.809810    3.152651
     65          6           0        1.200605    7.446148    2.753936
     66          6           0        1.807503    5.310925    3.934043
     67          1           0        1.895830    4.688297   -1.054060
     68          6           0        3.989138    5.165507   -1.118457
     69          6           0        2.149791    6.827222   -0.986532
     70          1           0        1.570674    5.744006    4.903978
     71          1           0        2.862294    5.485932    3.735409
     72          1           0        1.621840    4.240732    3.981104
     73          1           0        0.559489    7.903281    2.003514
     74          1           0        2.235466    7.644562    2.487004
     75          1           0        1.000515    7.921881    3.711504
     76          1           0        1.118044    7.040092   -0.719485
     77          1           0        2.247872    6.953836   -2.062558
     78          1           0        2.786542    7.561198   -0.497112
     79          1           0        4.671921    5.908043   -0.712542
     80          1           0        4.004356    5.237659   -2.203749
     81          1           0        4.337802    4.183149   -0.820722
     82          6           0       -5.792583    0.494298   -1.376390
     83          6           0       -5.181328   -0.044739   -2.705866
     84          7           0       -4.700090    1.048176   -0.630110
     85          1           0       -6.223543   -0.371760   -0.846844
     86          6           0       -6.884024    1.559257   -1.571514
     87          7           0       -4.063701   -0.856124   -2.328968
     88          1           0       -4.850258    0.824398   -3.300457
     89          6           0       -6.170899   -0.872083   -3.548283
     90          1           0       -7.680116    1.129592   -2.188190
     91          6           0       -6.346320    2.817836   -2.246847
     92          6           0       -7.472086    1.910449   -0.204521
     93          1           0       -7.056545   -0.256099   -3.733576
     94          6           0       -6.590905   -2.161081   -2.847501
     95          6           0       -5.524807   -1.197591   -4.895304
     96          1           0       -7.872089    1.023955    0.283538
     97          1           0       -8.275390    2.635920   -0.310794
     98          1           0       -6.699347    2.335348    0.432171
     99          1           0       -5.453753    3.154847   -1.727763
    100          1           0       -7.094090    3.607117   -2.213517
    101          1           0       -6.098630    2.632375   -3.288758
    102          1           0       -5.227040   -0.287243   -5.412292
    103          1           0       -6.223926   -1.738048   -5.529347
    104          1           0       -4.641924   -1.815907   -4.747758
    105          1           0       -7.174298   -2.779236   -3.526351
    106          1           0       -7.200693   -1.954431   -1.972036
    107          1           0       -5.708103   -2.713850   -2.538272
    108          6           0        5.142016   -2.105282   -2.809902
    109          6           0        4.358557   -0.862505   -2.328745
    110          7           0        4.479790   -2.573053   -4.024843
    111          1           0        5.085438   -2.853177   -1.999562
    112          6           0        6.628886   -1.834495   -3.108330
    113          7           0        3.071777   -1.324648   -1.906731
    114          1           0        4.273089   -0.168785   -3.183847
    115          6           0        4.997507   -0.105798   -1.143250
    116          1           0        7.088801   -1.445789   -2.194984
    117          6           0        6.802742   -0.817445   -4.232828
    118          6           0        7.353618   -3.134705   -3.463454
    119          1           0        5.987226    0.238841   -1.456729
    120          6           0        5.135729   -0.990093    0.092615
    121          6           0        4.155604    1.126750   -0.812351
    122          1           0        7.154257   -3.905349   -2.720872
    123          1           0        8.427481   -2.964027   -3.496434
    124          1           0        7.042455   -3.497891   -4.439716
    125          1           0        6.214903   -1.124777   -5.093206
    126          1           0        7.849235   -0.752742   -4.522146
    127          1           0        6.473120    0.170055   -3.921643
    128          1           0        4.636324    1.716865   -0.035858
    129          1           0        3.170483    0.828156   -0.458853
    130          1           0        4.029531    1.754398   -1.692415
    131          1           0        4.170051   -1.417389    0.348077
    132          1           0        5.492545   -0.398056    0.932770
    133          1           0        5.840585   -1.799236   -0.078357
    134          1           0       -1.837007   -3.705538    0.988442
    135          1           0        2.677695    3.177988    0.852522
    136          1           0        3.220248    3.807774    2.251546
    137          1           0        3.490410   -2.703466   -3.841496
    138          1           0        4.857831   -3.472068   -4.301370
 ---------------------------------------------------------------------

 SCF Done:  E(RPBE1PBE) =  -2389.55361410     a.u. after    6 cycles
 SCF Done:  E(RPBE1PBE) =  -2389.55366111     A.U. after    9 cycles

 The electronic state is 1-A.
 Alpha  occ. eigenvalues --  -14.37769 -14.37697 -14.37626 -14.37520 -14.37380
 Alpha  occ. eigenvalues --  -14.37169 -14.35281 -14.34651 -10.26918 -10.26856
 Alpha  occ. eigenvalues --  -10.26689 -10.26629 -10.26481 -10.26324 -10.25369
 Alpha  occ. eigenvalues --  -10.25218 -10.25151 -10.24998 -10.24670 -10.24445
 Alpha  occ. eigenvalues --  -10.24434 -10.24373 -10.24351 -10.24348 -10.24332
 Alpha  occ. eigenvalues --  -10.24297 -10.24278 -10.24148 -10.24106 -10.23963
 Alpha  occ. eigenvalues --  -10.23953 -10.23884 -10.23881 -10.23265 -10.22862
 Alpha  occ. eigenvalues --  -10.22858 -10.22734 -10.22587 -10.22369 -10.22109
 Alpha  occ. eigenvalues --  -10.21984 -10.21811 -10.20854 -10.20559 -10.20547
 Alpha  occ. eigenvalues --  -10.20442 -10.20378 -10.20335 -10.20307 -10.20158
 Alpha  occ. eigenvalues --  -10.20134 -10.20041 -10.20024 -10.19701 -10.19648
 Alpha  occ. eigenvalues --  -10.19477 -10.19226 -10.18986  -0.98190  -0.97990
 Alpha  occ. eigenvalues --   -0.96958  -0.96819  -0.95037  -0.94667  -0.91133
 Alpha  occ. eigenvalues --   -0.90943  -0.90065  -0.89472  -0.84997  -0.84301
 Alpha  occ. eigenvalues --   -0.83240  -0.82895  -0.82475  -0.81882  -0.80989
 Alpha  occ. eigenvalues --   -0.80654  -0.80181  -0.80044  -0.79691  -0.79357
 Alpha  occ. eigenvalues --   -0.74767  -0.74063  -0.73127  -0.73051  -0.70877
 Alpha  occ. eigenvalues --   -0.70596  -0.70434  -0.70252  -0.69995  -0.69928
 Alpha  occ. eigenvalues --   -0.69719  -0.69544  -0.69303  -0.69111  -0.67661
 Alpha  occ. eigenvalues --   -0.67247  -0.66649  -0.65310  -0.64229  -0.63903
 Alpha  occ. eigenvalues --   -0.63029  -0.62110  -0.60021  -0.59544  -0.58712
 Alpha  occ. eigenvalues --   -0.58367  -0.58048  -0.57826  -0.57176  -0.56700
 Alpha  occ. eigenvalues --   -0.55840  -0.55321  -0.54873  -0.54484  -0.53874
 Alpha  occ. eigenvalues --   -0.53419  -0.52094  -0.52018  -0.51535  -0.51079
 Alpha  occ. eigenvalues --   -0.50765  -0.50315  -0.50242  -0.49895  -0.49680
 Alpha  occ. eigenvalues --   -0.49161  -0.48796  -0.48412  -0.48222  -0.48104
 Alpha  occ. eigenvalues --   -0.47229  -0.46745  -0.46664  -0.46386  -0.46132
 Alpha  occ. eigenvalues --   -0.45792  -0.45225  -0.45117  -0.45015  -0.44924
 Alpha  occ. eigenvalues --   -0.44310  -0.44028  -0.43823  -0.43415  -0.43393
 Alpha  occ. eigenvalues --   -0.43258  -0.43217  -0.43163  -0.43099  -0.42553
 Alpha  occ. eigenvalues --   -0.42388  -0.42300  -0.42142  -0.41774  -0.41589
 Alpha  occ. eigenvalues --   -0.40768  -0.40404  -0.40337  -0.40112  -0.40085
 Alpha  occ. eigenvalues --   -0.39755  -0.39646  -0.39460  -0.39288  -0.39212
 Alpha  occ. eigenvalues --   -0.39124  -0.39045  -0.38898  -0.38662  -0.38597
 Alpha  occ. eigenvalues --   -0.38287  -0.38161  -0.38098  -0.37872  -0.37602
 Alpha  occ. eigenvalues --   -0.37049  -0.36817  -0.36698  -0.36426  -0.36132
 Alpha  occ. eigenvalues --   -0.35525  -0.35481  -0.35204  -0.35050  -0.34993
 Alpha  occ. eigenvalues --   -0.34905  -0.34703  -0.34505  -0.34368  -0.34343
 Alpha  occ. eigenvalues --   -0.34099  -0.34048  -0.33954  -0.33771  -0.33632
 Alpha  occ. eigenvalues --   -0.33619  -0.33202  -0.33141  -0.32930  -0.32763
 Alpha  occ. eigenvalues --   -0.32324  -0.32127  -0.31908  -0.31562  -0.30034
 Alpha  occ. eigenvalues --   -0.29496  -0.27342  -0.27139  -0.26924  -0.26812
 Alpha  occ. eigenvalues --   -0.26644  -0.26537  -0.26263  -0.25705  -0.25315
 Alpha  occ. eigenvalues --   -0.25173  -0.24500  -0.23897
 Alpha virt. eigenvalues --   -0.07115  -0.06253  -0.05431  -0.05188  -0.02612
 Alpha virt. eigenvalues --   -0.01471   0.03050   0.03832   0.03940   0.04094
 Alpha virt. eigenvalues --    0.04287   0.04345   0.04655   0.04909   0.05356

 Mulliken charges:
               1
     1  C    0.338189
     2  C   -0.152475
     3  C   -0.366775
     4  C    0.382984
     5  H    0.131421
     6  C   -0.372821
     7  C    0.349930
     8  H    0.135384
     9  C   -0.273308
    10  C   -0.143644
    11  H    0.134394
    12  C   -0.195400
    13  H    0.076834
    14  H    0.074159
    15  H    0.070293
    16  C    0.414534
    17  C   -0.167239
    18  C   -0.304863
    19  C    0.311371
    20  H    0.135495
    21  C   -0.375554
    22  C    0.434542
    23  H    0.109789
    24  C   -0.383164
    25  C   -0.240392
    26  H    0.163926
    27  C   -0.146466
    28  H    0.072384
    29  H    0.065048
    30  C    0.111342
    31  C    0.105691
    32  N   -0.253254
    33  H    0.063799
    34  C   -0.002617
    35  N   -0.262564
    36  H    0.068722
    37  C   -0.018495
    38  H    0.070131
    39  C   -0.402964
    40  C   -0.386066
    41  H    0.072477
    42  C   -0.396119
    43  C   -0.381744
    44  H    0.121021
    45  H    0.130155
    46  H    0.111897
    47  H    0.114779
    48  H    0.113520
    49  H    0.143924
    50  H    0.126831
    51  H    0.114546
    52  H    0.122592
    53  H    0.117161
    54  H    0.114369
    55  H    0.136753
    56  C    0.123781
    57  C   -0.015061
    58  N   -0.228968
    59  H    0.041299
    60  C   -0.007844
    61  N   -0.480301
    62  H    0.074674
    63  C   -0.076495
    64  H    0.072014
    65  C   -0.355823
    66  C   -0.449509
    67  H    0.068028
    68  C   -0.335285
    69  C   -0.364799
    70  H    0.126717
    71  H    0.128105
    72  H    0.147168
    73  H    0.119195
    74  H    0.113894
    75  H    0.126384
    76  H    0.112069
    77  H    0.125549
    78  H    0.111964
    79  H    0.098082
    80  H    0.109729
    81  H    0.152043
    82  C    0.097773
    83  C    0.111829
    84  N   -0.262287
    85  H    0.075083
    86  C   -0.000526
    87  N   -0.260717
    88  H    0.074481
    89  C   -0.023788
    90  H    0.075680
    91  C   -0.407223
    92  C   -0.387316
    93  H    0.077113
    94  C   -0.402322
    95  C   -0.381773
    96  H    0.112718
    97  H    0.121521
    98  H    0.129959
    99  H    0.136383
   100  H    0.117277
   101  H    0.116634
   102  H    0.112411
   103  H    0.123420
   104  H    0.128242
   105  H    0.118092
   106  H    0.117303
   107  H    0.137707
   108  C    0.079258
   109  C    0.083414
   110  N   -0.548622
   111  H    0.112652
   112  C   -0.061867
   113  N   -0.243043
   114  H    0.081478
   115  C    0.018040
   116  H    0.083611
   117  C   -0.381212
   118  C   -0.413875
   119  H    0.086522
   120  C   -0.406687
   121  C   -0.469708
   122  H    0.123445
   123  H    0.125648
   124  H    0.119613
   125  H    0.134787
   126  H    0.115501
   127  H    0.118710
   128  H    0.154428
   129  H    0.127256
   130  H    0.117571
   131  H    0.138675
   132  H    0.117436
   133  H    0.118335
   134  H    0.076267
   135  H    0.225338
   136  H    0.208613
   137  H    0.217252
   138  H    0.212412
 Sum of Mulliken charges =  -0.00000

 Dipole moment (field-independent basis, Debye):
    X=             -1.9016    Y=              0.3607    Z=              0.4203  Tot=              1.9806
 Quadrupole moment (field-independent basis, Debye-Ang):
   XX=           -362.6294   YY=           -354.0908   ZZ=           -358.6985
   XY=             -4.5875   XZ=              9.4659   YZ=             -3.4020

 Normal termination of Gaussian 16 at Mon Oct 18 03:54:18 2021.
