 Gaussian 16, Revision C.01,
 Gaussian 16:  ES64L-G16RevC.01  3-Jul-2019

 ----------------------------------------------------------------------
 #P PBE1PBE/Def2TZVP SP SCF=(YQC,MaxCycle=900) int=(Grid=Superfinegrid)
  EmpiricalDispersion=GD3 SCRF=(PCM,Solvent=Dichloromethane)
 ----------------------------------------------------------------------

 -------------------------
 _2_alde1_3_ami4_2_opt_dcm
 -------------------------
 Symbolic Z-matrix:
 Charge =  0 Multiplicity = 1

                         Standard orientation:
 ---------------------------------------------------------------------
 Center     Atomic      Atomic             Coordinates (Angstroms)
 Number     Number       Type             X           Y           Z
 ---------------------------------------------------------------------
      1          6           0        2.737052   -1.213206    0.230801
      2          6           0        2.688380   -2.146100   -0.885328
      3          6           0        2.667359   -1.657996    1.549936
      4          6           0        2.613009   -0.741882    2.594806
      5          1           0        2.647314   -2.720553    1.737878
      6          6           0        2.589585    0.626485    2.320140
      7          6           0        2.662428    1.083085    1.009648
      8          1           0        2.515582    1.317419    3.147790
      9          6           0        2.761724    0.153930   -0.025455
     10          6           0        2.542520    2.504060    0.708715
     11          1           0        2.826215    0.526353   -1.035943
     12          6           0        2.552105   -1.203622    3.989451
     13          1           0        2.181584    3.135254    1.534819
     14          1           0        2.839176   -1.700488   -1.879020
     15          6           0       -1.069207   -1.030182   -1.235541
     16          6           0       -0.699504   -2.432570   -1.368561
     17          6           0       -0.254783   -0.038197   -1.780404
     18          6           0       -0.513924    1.306230   -1.540517
     19          1           0        0.599058   -0.343558   -2.364535
     20          6           0       -1.634907    1.663022   -0.792161
     21          6           0       -2.484795    0.686744   -0.283917
     22          1           0       -1.821013    2.711163   -0.613791
     23          6           0       -2.182951   -0.660139   -0.491458
     24          6           0       -3.664965    1.072358    0.476941
     25          1           0       -2.834391   -1.404267   -0.059075
     26          6           0        0.441447    2.304105   -1.995032
     27          1           0        1.234917    1.927156   -2.657530
     28          6           0        0.650437   -4.169813   -2.145749
     29          6           0        2.177800   -4.154876   -1.902897
     30          7           0        0.198301   -2.816164   -2.166516
     31          1           0        0.154538   -4.768570   -1.365580
     32          7           0        2.424818   -3.371189   -0.732602
     33          1           0        2.667020   -3.735971   -2.794881
     34          8           0        2.487049   -0.488755    4.955954
     35          6           0        2.498240    4.330294   -0.740738
     36          6           0        1.519480    4.345645   -1.937880
     37          7           0        2.792175    2.967237   -0.436711
     38          1           0        2.052552    4.865853    0.112020
     39          7           0        0.409789    3.505396   -1.607969
     40          1           0        2.057122    3.993140   -2.831130
     41          6           0       -5.637043    0.625670    1.645124
     42          6           0       -6.891728    0.172514    0.861397
     43          7           0       -4.469245    0.216863    0.937687
     44          1           0       -5.628524    0.116987    2.615258
     45          7           0       -6.983032   -1.251948    0.640229
     46          1           0       -6.889938    0.663205   -0.116034
     47          1           0       -1.225668   -3.128242   -0.696665
     48          1           0       -3.807359    2.154118    0.624251
     49          1           0       -6.159365   -1.565658    0.137268
     50          1           0        2.572651   -2.306513    4.092782
     51          1           0        0.461207   -4.619248   -3.124444
     52          1           0        2.524176   -5.174969   -1.728120
     53          1           0        3.422587    4.829778   -1.043162
     54          1           0        1.160674    5.364745   -2.093965
     55          1           0       -5.680497    1.715559    1.809498
     56          1           0       -7.780423    0.496428    1.409795
     57          1           0       -7.001785   -1.743800    1.528146
 ---------------------------------------------------------------------

 SCF Done:  E(RPBE1PBE) =  -1332.83539409     a.u. after    6 cycles
 SCF Done:  E(RPBE1PBE) =  -1332.83540503     A.U. after    9 cycles

 The electronic state is 1-A.
 Alpha  occ. eigenvalues --  -19.21395 -14.38565 -14.38333 -14.38203 -14.38150
 Alpha  occ. eigenvalues --  -14.37991 -14.35826 -10.31832 -10.27344 -10.27123
 Alpha  occ. eigenvalues --  -10.27044 -10.26909 -10.26826 -10.25346 -10.25336
 Alpha  occ. eigenvalues --  -10.25317 -10.25315 -10.25260 -10.25184 -10.25126
 Alpha  occ. eigenvalues --  -10.25083 -10.25063 -10.25036 -10.24714 -10.24701
 Alpha  occ. eigenvalues --  -10.24667 -10.24343 -10.24306 -10.24225 -10.24221
 Alpha  occ. eigenvalues --  -10.24201  -1.09174  -0.98172  -0.98008  -0.96688
 Alpha  occ. eigenvalues --   -0.95579  -0.95187  -0.91264  -0.90914  -0.89950
 Alpha  occ. eigenvalues --   -0.82982  -0.82244  -0.81318  -0.81041  -0.77631
 Alpha  occ. eigenvalues --   -0.76271  -0.74800  -0.70297  -0.70147  -0.68854
 Alpha  occ. eigenvalues --   -0.67541  -0.67182  -0.64897  -0.63372  -0.62646
 Alpha  occ. eigenvalues --   -0.61074  -0.57704  -0.57035  -0.56387  -0.56142
 Alpha  occ. eigenvalues --   -0.54897  -0.54336  -0.53037  -0.52508  -0.51513
 Alpha  occ. eigenvalues --   -0.50900  -0.50741  -0.50362  -0.49391  -0.48897
 Alpha  occ. eigenvalues --   -0.47753  -0.47749  -0.47497  -0.47081  -0.46727
 Alpha  occ. eigenvalues --   -0.46146  -0.45492  -0.45402  -0.44676  -0.44410
 Alpha  occ. eigenvalues --   -0.44153  -0.42561  -0.41849  -0.41308  -0.41174
 Alpha  occ. eigenvalues --   -0.40722  -0.40451  -0.39918  -0.39362  -0.38385
 Alpha  occ. eigenvalues --   -0.37745  -0.37444  -0.36860  -0.36196  -0.35774
 Alpha  occ. eigenvalues --   -0.35593  -0.35335  -0.33047  -0.31200  -0.28758
 Alpha  occ. eigenvalues --   -0.28104  -0.27923  -0.27856  -0.27629  -0.27533
 Alpha  occ. eigenvalues --   -0.27272  -0.26733  -0.26518  -0.26126  -0.24918
 Alpha virt. eigenvalues --   -0.07899  -0.07003  -0.06351  -0.05922  -0.03485
 Alpha virt. eigenvalues --   -0.01965   0.04633   0.04879   0.05018   0.05363
 Alpha virt. eigenvalues --    0.05579   0.05981   0.06746   0.06993   0.07188

 Mulliken charges:
               1
     1  C    0.356375
     2  C   -0.158619
     3  C   -0.338564
     4  C    0.263945
     5  H    0.132588
     6  C   -0.339904
     7  C    0.307474
     8  H    0.141405
     9  C   -0.283329
    10  C   -0.140086
    11  H    0.141183
    12  C    0.079463
    13  H    0.093035
    14  H    0.101114
    15  C    0.317493
    16  C   -0.148067
    17  C   -0.301519
    18  C    0.363221
    19  H    0.138571
    20  C   -0.379166
    21  C    0.361299
    22  H    0.123795
    23  C   -0.358288
    24  C   -0.165252
    25  H    0.131653
    26  C   -0.164507
    27  H    0.098537
    28  C   -0.096713
    29  C   -0.073467
    30  N   -0.202480
    31  H    0.087090
    32  N   -0.203987
    33  H    0.093556
    34  O   -0.326619
    35  C   -0.094559
    36  C   -0.074944
    37  N   -0.199823
    38  H    0.087621
    39  N   -0.203930
    40  H    0.092583
    41  C   -0.118187
    42  C   -0.086080
    43  N   -0.191372
    44  H    0.122728
    45  N   -0.550626
    46  H    0.112289
    47  H    0.089757
    48  H    0.089183
    49  H    0.234988
    50  H    0.099839
    51  H    0.129235
    52  H    0.126809
    53  H    0.129463
    54  H    0.126367
    55  H    0.081199
    56  H    0.117326
    57  H    0.228905
 Sum of Mulliken charges =   0.00000

 Dipole moment (field-independent basis, Debye):
    X=              0.9398    Y=              0.5988    Z=             -2.3937  Tot=              2.6404
 Quadrupole moment (field-independent basis, Debye-Ang):
   XX=           -195.7358   YY=           -159.3006   ZZ=           -196.9766
   XY=             -3.8902   XZ=            -21.8408   YZ=              1.9169

 Normal termination of Gaussian 16 at Mon Oct 18 08:25:47 2021.
