 Gaussian 16, Revision C.01,
 Gaussian 16:  ES64L-G16RevC.01  3-Jul-2019

 ---------------------------------------------------------------------
 #P MP2/aug-cc-pVDZ SP SCF=(YQC,MaxCycle=900) int=(Grid=Superfinegrid)
 ---------------------------------------------------------------------

 -----------------------------
 _2_alde1_4_ami2_2_opt_gas_mp2
 -----------------------------
 Symbolic Z-matrix:
 Charge =  0 Multiplicity = 1

                         Standard orientation:
 ---------------------------------------------------------------------
 Center     Atomic      Atomic             Coordinates (Angstroms)
 Number     Number       Type             X           Y           Z
 ---------------------------------------------------------------------
      1          6           0       -2.436857   -1.447134   -1.149762
      2          6           0       -1.973667   -1.793561   -2.486512
      3          6           0       -3.241430   -0.333160   -0.943384
      4          6           0       -3.608179    0.049707    0.347892
      5          1           0       -3.602408    0.252354   -1.775207
      6          6           0       -3.119935   -0.664627    1.436931
      7          6           0       -2.311421   -1.783813    1.244715
      8          1           0       -3.352684   -0.365675    2.447687
      9          6           0       -2.002881   -2.184914   -0.049654
     10          6           0       -1.710595   -2.488837    2.365688
     11          1           0       -1.391223   -3.054571   -0.229024
     12          6           0       -4.476987    1.197937    0.561527
     13          1           0       -1.182431   -3.418833    2.107648
     14          1           0       -2.104582   -1.012519   -3.251661
     15          6           0        1.685618   -1.695475   -0.818341
     16          6           0        1.224038   -2.758695   -1.701743
     17          6           0        1.425004   -1.779670    0.544353
     18          6           0        1.746549   -0.727495    1.400553
     19          1           0        0.942903   -2.647378    0.965797
     20          6           0        2.384232    0.394040    0.884865
     21          6           0        2.694538    0.474600   -0.473636
     22          1           0        2.652021    1.224870    1.520265
     23          6           0        2.324209   -0.563219   -1.321635
     24          6           0        3.388590    1.639025   -1.003459
     25          1           0        2.518768   -0.514110   -2.382329
     26          6           0        1.351099   -0.767523    2.805106
     27          1           0        3.557918    1.639114   -2.093157
     28          1           0        1.436253    0.193452    3.326495
     29          6           0        0.632425   -3.602517   -3.828991
     30          6           0       -0.841135   -3.136927   -4.019446
     31          7           0        1.243019   -2.630762   -2.956392
     32          7           0       -1.418977   -2.897408   -2.738713
     33          6           0       -5.787223    2.990785   -0.159228
     34          6           0       -5.144582    4.268688   -0.776025
     35          7           0       -4.953459    1.862418   -0.399377
     36          7           0       -4.817845    4.089847   -2.179849
     37          6           0       -0.934285   -2.700291    4.527972
     38          6           0        0.406091   -1.918967    4.673160
     39          7           0       -1.733896   -2.041421    3.546004
     40          7           0        0.918597   -1.826397    3.331935
     41          6           0        6.000433    3.570989   -0.344758
     42          6           0        4.509665    3.670921   -0.795642
     43          7           0        6.636368    2.357194   -0.824692
     44          7           0        3.767323    2.585209   -0.258227
     45          1           0       -4.189962    3.299228   -2.279103
     46          1           0       -5.656417    3.882761   -2.712107
     47          1           0        6.171827    1.539685   -0.443912
     48          1           0        6.593460    2.303584   -1.836781
     49          1           0       -5.988400    3.154986    0.912713
     50          1           0       -6.737542    2.806195   -0.672809
     51          1           0       -1.391913   -3.947506   -4.505160
     52          1           0       -0.868176   -2.244827   -4.665212
     53          1           0        4.475863    3.701921   -1.899779
     54          1           0        4.088073    4.596065   -0.395963
     55          6           0        6.074141    3.572351    1.181598
     56          1           0        5.713781    4.516679    1.579456
     57          1           0        7.103959    3.422115    1.493500
     58          1           0        5.461216    2.768994    1.581180
     59          6           0        6.767772    4.763051   -0.917800
     60          1           0        7.813245    4.685530   -0.633012
     61          1           0        6.364085    5.697862   -0.538768
     62          1           0        6.707295    4.773014   -2.004268
     63          6           0       -3.850923    4.599927   -0.029442
     64          1           0       -3.380679    5.464142   -0.489621
     65          1           0       -3.160015    3.761043   -0.081319
     66          1           0       -4.056357    4.820421    1.015000
     67          6           0       -6.133119    5.429001   -0.654548
     68          1           0       -7.059344    5.200187   -1.177505
     69          1           0       -5.697923    6.319230   -1.099723
     70          1           0       -6.363746    5.630445    0.388267
     71          6           0        0.141254   -0.589628    5.385795
     72          1           0       -0.562577    0.005635    4.808937
     73          1           0        1.064430   -0.030101    5.523535
     74          1           0       -0.286771   -0.783949    6.365491
     75          1           0       -1.462958   -2.687646    5.482886
     76          1           0       -0.698486   -3.736910    4.243002
     77          6           0        1.393097   -2.767347    5.483227
     78          1           0        2.315893   -2.212484    5.637891
     79          1           0        1.627883   -3.682460    4.945647
     80          1           0        0.966127   -3.020793    6.450120
     81          6           0        0.633501   -5.045316   -3.308955
     82          1           0        1.623023   -5.312592   -2.942422
     83          1           0        0.367338   -5.721463   -4.117481
     84          1           0       -0.092714   -5.165127   -2.509693
     85          6           0        1.366489   -3.521269   -5.169568
     86          1           0        1.447089   -2.483785   -5.482175
     87          1           0        0.836232   -4.084933   -5.933157
     88          1           0        2.369621   -3.927012   -5.063224
     89          1           0       -4.701338    1.439351    1.612248
     90          1           0        0.829280   -3.638764   -1.183137
 ---------------------------------------------------------------------

 SCF Done:  E(RHF) =  -1751.19434350     a.u. after    7 cycles
 SCF Done:  E(RHF) =  -1751.19440705     A.U. after   20 cycles
 E2 =    -0.6209665461D+01 EUMP2 =    -0.17574040725086D+04

 The electronic state is 1-A.
 Alpha  occ. eigenvalues --  -15.56424 -15.56410 -15.56175 -15.55936 -15.55768
 Alpha  occ. eigenvalues --  -15.55351 -15.54009 -15.53606 -11.29005 -11.28944
 Alpha  occ. eigenvalues --  -11.28854 -11.28586 -11.28516 -11.28331 -11.27065
 Alpha  occ. eigenvalues --  -11.26771 -11.26127 -11.26118 -11.25878 -11.25450
 Alpha  occ. eigenvalues --  -11.25417 -11.25401 -11.25369 -11.25294 -11.25195
 Alpha  occ. eigenvalues --  -11.25165 -11.25147 -11.25107 -11.25099 -11.25091
 Alpha  occ. eigenvalues --  -11.25066 -11.24934 -11.24863 -11.24799 -11.22078
 Alpha  occ. eigenvalues --  -11.21815 -11.21756 -11.21519 -11.21446 -11.21339
 Alpha  occ. eigenvalues --  -11.21007 -11.20591  -1.26664  -1.26452  -1.25480
 Alpha  occ. eigenvalues --   -1.25394  -1.23479  -1.23025  -1.19097  -1.19008
 Alpha  occ. eigenvalues --   -1.17361  -1.16602  -1.09438  -1.08189  -1.06196
 Alpha  occ. eigenvalues --   -1.05699  -1.04782  -1.02792  -1.02376  -1.02309
 Alpha  occ. eigenvalues --   -0.95484  -0.94836  -0.94689  -0.94537  -0.94318
 Alpha  occ. eigenvalues --   -0.94124  -0.93564  -0.93372  -0.89702  -0.88924
 Alpha  occ. eigenvalues --   -0.86880  -0.86816  -0.85234  -0.82842  -0.80266
 Alpha  occ. eigenvalues --   -0.77880  -0.76014  -0.75491  -0.75194  -0.74485
 Alpha  occ. eigenvalues --   -0.73329  -0.72081  -0.71114  -0.70793  -0.69336
 Alpha  occ. eigenvalues --   -0.67693  -0.66993  -0.66690  -0.66543  -0.66123
 Alpha  occ. eigenvalues --   -0.65591  -0.64942  -0.64509  -0.64312  -0.63453
 Alpha  occ. eigenvalues --   -0.63315  -0.62674  -0.62237  -0.62115  -0.61907
 Alpha  occ. eigenvalues --   -0.61577  -0.60856  -0.60452  -0.60074  -0.59911
 Alpha  occ. eigenvalues --   -0.59410  -0.57429  -0.56737  -0.56098  -0.55643
 Alpha  occ. eigenvalues --   -0.55552  -0.55070  -0.54513  -0.54192  -0.53977
 Alpha  occ. eigenvalues --   -0.53733  -0.53500  -0.53207  -0.52976  -0.52830
 Alpha  occ. eigenvalues --   -0.52768  -0.52608  -0.52307  -0.51711  -0.51305
 Alpha  occ. eigenvalues --   -0.51067  -0.50728  -0.50405  -0.49926  -0.49332
 Alpha  occ. eigenvalues --   -0.49180  -0.48638  -0.48164  -0.47770  -0.46842
 Alpha  occ. eigenvalues --   -0.46748  -0.45431  -0.45380  -0.45020  -0.44233
 Alpha  occ. eigenvalues --   -0.41171  -0.40833  -0.40573  -0.40410  -0.40272
 Alpha  occ. eigenvalues --   -0.40094  -0.39431  -0.39108  -0.37921  -0.37694
 Alpha  occ. eigenvalues --   -0.32748  -0.32500  -0.32140  -0.31646
 Alpha virt. eigenvalues --    0.03004   0.03270   0.03397   0.03645   0.04039
 Alpha virt. eigenvalues --    0.04122   0.04202   0.04322   0.04566   0.04855
 Alpha virt. eigenvalues --    0.05210   0.05334   0.05412   0.05485   0.05560

 Mulliken charges:
               1
     1  C    0.915008
     2  C    0.538278
     3  C    0.110746
     4  C    0.658227
     5  H   -0.849381
     6  C    0.685622
     7  C    0.889191
     8  H   -0.935803
     9  C    0.425164
    10  C    0.739611
    11  H   -0.986347
    12  C    0.618851
    13  H   -0.639357
    14  H   -0.726923
    15  C    1.382972
    16  C    0.416108
    17  C    0.224945
    18  C    0.690794
    19  H   -1.111336
    20  C    0.089299
    21  C    0.909469
    22  H   -0.885091
    23  C    0.385670
    24  C    0.802735
    25  H   -0.918022
    26  C    0.409935
    27  H   -0.715242
    28  H   -0.926118
    29  C   -3.540186
    30  C    1.411745
    31  N   -0.356090
    32  N   -0.459071
    33  C    1.651692
    34  C   -3.682859
    35  N   -0.442266
    36  N    0.004847
    37  C    1.255501
    38  C   -3.224477
    39  N   -0.683243
    40  N    0.110413
    41  C   -3.647851
    42  C    1.615753
    43  N   -0.030114
    44  N   -0.454387
    45  H    0.020542
    46  H   -0.019295
    47  H    0.019543
    48  H   -0.024576
    49  H   -0.154929
    50  H   -0.262850
    51  H   -0.205201
    52  H   -0.155450
    53  H   -0.188868
    54  H   -0.225072
    55  C    1.425924
    56  H   -0.010360
    57  H    0.025491
    58  H   -0.041293
    59  C    1.440618
    60  H    0.061457
    61  H    0.016820
    62  H   -0.061413
    63  C    1.467106
    64  H   -0.031973
    65  H   -0.029245
    66  H   -0.003774
    67  C    1.431891
    68  H   -0.053283
    69  H    0.054401
    70  H    0.006372
    71  C    1.536185
    72  H    0.073272
    73  H    0.039144
    74  H   -0.179756
    75  H   -0.283699
    76  H   -0.125741
    77  C    1.448024
    78  H   -0.068029
    79  H   -0.062540
    80  H    0.008996
    81  C    1.476073
    82  H    0.027105
    83  H   -0.143609
    84  H    0.062847
    85  C    1.498521
    86  H   -0.030626
    87  H   -0.006720
    88  H   -0.023363
    89  H   -0.688823
    90  H   -0.788257
 Sum of Mulliken charges =   0.00000

 Dipole moment (field-independent basis, Debye):
    X=             -1.5920    Y=             -0.9270    Z=              0.3048  Tot=              1.8672
 Quadrupole moment (field-independent basis, Debye-Ang):
   XX=           -273.1089   YY=           -259.0326   ZZ=           -243.9190
   XY=             -2.0492   XZ=             -5.3243   YZ=              5.1638

 Normal termination of Gaussian 16 at Tue Nov  9 08:02:15 2021.
