 Gaussian 16, Revision C.01,
 Gaussian 16:  ES64L-G16RevC.01  3-Jul-2019

 ---------------------------------------------------------------------
 #P MP2/aug-cc-pVDZ SP SCF=(YQC,MaxCycle=900) int=(Grid=Superfinegrid)
 ---------------------------------------------------------------------

 -----------------------------
 _2_alde1_3_ami2_1_opt_gas_mp2
 -----------------------------
 Symbolic Z-matrix:
 Charge =  0 Multiplicity = 1

                         Standard orientation:
 ---------------------------------------------------------------------
 Center     Atomic      Atomic             Coordinates (Angstroms)
 Number     Number       Type             X           Y           Z
 ---------------------------------------------------------------------
      1          6           0        4.565329    1.026182   -0.050054
      2          6           0        3.990631    2.362203    0.092482
      3          6           0        5.915128    0.883239   -0.359853
      4          6           0        6.476311   -0.383673   -0.500366
      5          1           0        6.537135    1.758635   -0.492314
      6          6           0        5.677098   -1.513775   -0.332793
      7          6           0        4.327046   -1.385635   -0.023428
      8          1           0        6.134195   -2.486577   -0.448608
      9          6           0        3.778344   -0.112080    0.115770
     10          6           0        3.504248   -2.581558    0.145613
     11          1           0        2.730995   -0.005164    0.347488
     12          6           0        7.898657   -0.537265   -0.824256
     13          1           0        4.025418   -3.527257   -0.057592
     14          1           0        4.685188    3.185498   -0.128441
     15          6           0       -1.832403    1.646987   -0.484180
     16          6           0       -0.978796    2.826444   -0.495509
     17          6           0       -1.263213    0.378045   -0.497126
     18          6           0       -2.068177   -0.755394   -0.458894
     19          1           0       -0.191291    0.272858   -0.529108
     20          6           0       -3.453680   -0.609708   -0.411149
     21          6           0       -4.031347    0.651322   -0.411463
     22          1           0       -4.098579   -1.476211   -0.387396
     23          6           0       -3.220392    1.775654   -0.441856
     24          6           0       -5.528187    0.794395   -0.321096
     25          1           0       -3.672112    2.757762   -0.428474
     26          6           0       -1.461676   -2.079199   -0.445883
     27          1           0       -2.154152   -2.931117   -0.333123
     28          6           0        1.111433    3.865156   -0.577773
     29          6           0        2.124162    3.765146    0.597315
     30          7           0        0.270784    2.722128   -0.612651
     31          1           0        1.681989    3.881407   -1.512720
     32          7           0        2.794121    2.507924    0.448533
     33          6           0        1.358203    3.685572    1.923583
     34          8           0        8.474905   -1.586222   -0.964090
     35          6           0        1.401831   -3.583849    0.674529
     36          6           0        0.386718   -3.506480   -0.500144
     37          7           0        2.302981   -2.483580    0.502910
     38          6           0        2.031606   -4.983791    0.682216
     39          7           0       -0.215480   -2.222684   -0.557049
     40          1           0       -0.347107   -4.325497   -0.388795
     41          6           0       -7.372279    0.484720    0.994575
     42          6           0       -7.493729   -0.535756   -0.170562
     43          7           0       -5.968919    0.858303    1.063873
     44          1           0       -7.719826    0.086325    1.945828
     45          7           0       -6.224033   -0.364224   -0.882214
     46          1           0       -1.490560    3.798997   -0.394396
     47          1           0       -5.452869    0.162754    1.596365
     48          1           0       -5.839439    1.741541   -0.803139
     49          1           0       -6.336171   -0.304106   -1.885412
     50          1           0        8.436314    0.426486   -0.937264
     51          1           0        0.551279    4.813072   -0.481878
     52          6           0        3.014029    5.015969    0.580113
     53          6           0        0.668726   -3.331968    1.997860
     54          1           0        0.941811   -3.649897   -1.433439
     55          1           0       -7.946273    1.387035    0.760526
     56          6           0       -7.564184   -1.972786    0.357401
     57          1           0        1.268367   -5.725855    0.901662
     58          1           0        2.801182   -5.044229    1.449308
     59          1           0        2.472903   -5.224036   -0.282902
     60          1           0        3.491886    5.148124   -0.388641
     61          1           0        3.781906    4.940180    1.347762
     62          1           0        2.409836    5.896025    0.784184
     63          1           0       -7.520591   -2.674949   -0.471701
     64          1           0       -8.489129   -2.132861    0.905830
     65          1           0       -6.722316   -2.170472    1.016552
     66          6           0       -8.707083   -0.238331   -1.051852
     67          1           0       -9.620881   -0.289862   -0.464451
     68          1           0       -8.774083   -0.964487   -1.859911
     69          1           0       -8.629391    0.758316   -1.483742
     70          1           0        2.058867    3.666346    2.754954
     71          1           0        0.769119    2.773188    1.942382
     72          1           0        0.699150    4.543069    2.036267
     73          1           0       -0.144570   -4.042631    2.125390
     74          1           0        0.268933   -2.321987    1.998747
     75          1           0        1.361312   -3.434424    2.829784
 ---------------------------------------------------------------------

 SCF Done:  E(RHF) =  -1559.85204685     a.u. after    7 cycles
 SCF Done:  E(RHF) =  -1559.85208093     A.U. after   29 cycles
 E2 =    -0.5427896153D+01 EUMP2 =    -0.15652799770875D+04

 The electronic state is 1-A.
 Alpha  occ. eigenvalues --  -20.56208 -15.55549 -15.55427 -15.55271 -15.55261
 Alpha  occ. eigenvalues --  -15.55168 -15.54717 -11.33873 -11.29307 -11.28287
 Alpha  occ. eigenvalues --  -11.28022 -11.27923 -11.27800 -11.26778 -11.26671
 Alpha  occ. eigenvalues --  -11.26613 -11.26420 -11.25686 -11.25499 -11.25439
 Alpha  occ. eigenvalues --  -11.25357 -11.24987 -11.24969 -11.24856 -11.24742
 Alpha  occ. eigenvalues --  -11.24325 -11.23953 -11.23897 -11.23846 -11.23741
 Alpha  occ. eigenvalues --  -11.22967 -11.22660 -11.22276 -11.22038 -11.21807
 Alpha  occ. eigenvalues --  -11.20998 -11.20901  -1.39742  -1.28460  -1.25859
 Alpha  occ. eigenvalues --   -1.25592  -1.23473  -1.22971  -1.17618  -1.16162
 Alpha  occ. eigenvalues --   -1.15226  -1.09157  -1.08267  -1.07051  -1.05084
 Alpha  occ. eigenvalues --   -1.03980  -1.02948  -1.02180  -0.94759  -0.94592
 Alpha  occ. eigenvalues --   -0.94392  -0.94083  -0.93926  -0.92301  -0.90429
 Alpha  occ. eigenvalues --   -0.89234  -0.87807  -0.86946  -0.85076  -0.83661
 Alpha  occ. eigenvalues --   -0.79904  -0.78723  -0.77077  -0.76066  -0.75728
 Alpha  occ. eigenvalues --   -0.74445  -0.72570  -0.70281  -0.69786  -0.69457
 Alpha  occ. eigenvalues --   -0.67915  -0.67196  -0.66703  -0.66224  -0.65502
 Alpha  occ. eigenvalues --   -0.65190  -0.64316  -0.63287  -0.62962  -0.61634
 Alpha  occ. eigenvalues --   -0.61415  -0.61151  -0.61047  -0.60778  -0.60058
 Alpha  occ. eigenvalues --   -0.59976  -0.59863  -0.58257  -0.58104  -0.57198
 Alpha  occ. eigenvalues --   -0.56587  -0.55981  -0.55419  -0.54923  -0.54738
 Alpha  occ. eigenvalues --   -0.54514  -0.53586  -0.53464  -0.52871  -0.52767
 Alpha  occ. eigenvalues --   -0.52527  -0.51881  -0.51626  -0.51380  -0.51211
 Alpha  occ. eigenvalues --   -0.51190  -0.50771  -0.50212  -0.49816  -0.49198
 Alpha  occ. eigenvalues --   -0.47995  -0.47466  -0.46968  -0.46784  -0.46259
 Alpha  occ. eigenvalues --   -0.43173  -0.42669  -0.42482  -0.40856  -0.40731
 Alpha  occ. eigenvalues --   -0.40087  -0.38785  -0.37845  -0.37687  -0.37058
 Alpha  occ. eigenvalues --   -0.33204  -0.32711  -0.31627  -0.31376
 Alpha virt. eigenvalues --    0.02950   0.03018   0.03350   0.03753   0.03929
 Alpha virt. eigenvalues --    0.04200   0.04527   0.04677   0.05067   0.05133
 Alpha virt. eigenvalues --    0.05253   0.05499   0.05788   0.05833   0.06185

 Mulliken charges:
               1
     1  C    0.840529
     2  C   -0.000955
     3  C    0.675563
     4  C    0.050455
     5  H   -0.698508
     6  C   -0.036511
     7  C    1.019201
     8  H   -0.753715
     9  C    0.190364
    10  C    0.034557
    11  H   -0.859205
    12  C    1.263948
    13  H   -0.727078
    14  H   -0.755272
    15  C    0.717302
    16  C    0.518067
    17  C   -0.090989
    18  C    0.959682
    19  H   -1.060552
    20  C    0.578475
    21  C    0.430510
    22  H   -0.824669
    23  C    0.480784
    24  C    0.499543
    25  H   -0.766408
    26  C    0.387907
    27  H   -0.616426
    28  C    1.624811
    29  C   -3.911201
    30  N   -0.275198
    31  H   -0.283418
    32  N    0.527224
    33  C    1.712755
    34  O   -0.796159
    35  C   -3.898648
    36  C    1.541345
    37  N    0.506713
    38  C    1.523991
    39  N   -0.262852
    40  H   -0.130873
    41  C    1.373488
    42  C   -2.270118
    43  N   -0.573885
    44  H   -0.207370
    45  N   -0.312355
    46  H   -0.622695
    47  H    0.081272
    48  H   -0.302002
    49  H   -0.057030
    50  H   -0.336414
    51  H   -0.123806
    52  C    1.510997
    53  C    1.685583
    54  H   -0.282915
    55  H   -0.293957
    56  C    1.118006
    57  H   -0.192664
    58  H    0.081710
    59  H    0.041503
    60  H    0.041464
    61  H    0.081186
    62  H   -0.195284
    63  H   -0.071947
    64  H   -0.017344
    65  H   -0.073926
    66  C    0.985664
    67  H   -0.035145
    68  H   -0.020178
    69  H   -0.035668
    70  H   -0.147153
    71  H   -0.025062
    72  H    0.015452
    73  H    0.019730
    74  H   -0.022362
    75  H   -0.151866
 Sum of Mulliken charges =   0.00000

 Dipole moment (field-independent basis, Debye):
    X=             -5.1014    Y=              1.8967    Z=             -0.1072  Tot=              5.4436
 Quadrupole moment (field-independent basis, Debye-Ang):
   XX=           -226.6852   YY=           -201.5562   ZZ=           -228.6266
   XY=             25.0619   XZ=              8.1670   YZ=             -5.7282

 Normal termination of Gaussian 16 at Thu Nov 11 19:21:23 2021.
