 Gaussian 16, Revision C.01,
 Gaussian 16:  ES64L-G16RevC.01  3-Jul-2019

 ----------------------------------------------------------------------
 #P PBE1PBE/Def2TZVP SP SCF=(YQC,MaxCycle=900) int=(Grid=Superfinegrid)
  EmpiricalDispersion=GD3
 ----------------------------------------------------------------------

 -------------------------
 _2_alde1_4_ami2_1_opt_gas
 -------------------------
 Symbolic Z-matrix:
 Charge =  0 Multiplicity = 1

                         Standard orientation:
 ---------------------------------------------------------------------
 Center     Atomic      Atomic             Coordinates (Angstroms)
 Number     Number       Type             X           Y           Z
 ---------------------------------------------------------------------
      1          6           0        2.903466    1.092003   -0.023019
      2          6           0        2.388342    2.271494   -0.711196
      3          6           0        3.965252    0.353330   -0.540934
      4          6           0        4.442294   -0.760699    0.134748
      5          1           0        4.452955    0.655988   -1.456165
      6          6           0        3.828650   -1.166256    1.311012
      7          6           0        2.741892   -0.458616    1.820383
      8          1           0        4.188134   -2.048605    1.822118
      9          6           0        2.297392    0.680709    1.156470
     10          6           0        2.042749   -0.907728    3.017792
     11          1           0        1.463076    1.235170    1.552228
     12          6           0        5.585515   -1.555433   -0.439591
     13          1           0        2.506706   -1.734781    3.581961
     14          1           0        2.499530    2.285471   -1.809050
     15          6           0       -2.460239    1.783061   -0.383872
     16          6           0       -1.839593    3.088019   -0.593594
     17          6           0       -2.031541    0.950100    0.646272
     18          6           0       -2.598124   -0.307579    0.812196
     19          1           0       -1.244755    1.275448    1.306353
     20          6           0       -3.604408   -0.727673   -0.056160
     21          6           0       -4.056400    0.104341   -1.068574
     22          1           0       -4.050598   -1.705985    0.049725
     23          6           0       -3.482397    1.356298   -1.229753
     24          6           0       -5.193388   -0.329171   -1.956729
     25          1           0       -3.830214    2.000777   -2.025216
     26          6           0       -2.116769   -1.205012    1.860443
     27          1           0       -2.239878   -2.274324    1.634368
     28          6           0       -0.102085    4.651347   -0.057976
     29          6           0        1.260960    4.321619   -0.720596
     30          7           0       -0.809968    3.409369    0.051890
     31          7           0        1.844201    3.202255   -0.063832
     32          6           0        6.286056   -2.884623   -2.162595
     33          6           0        7.095644   -1.562870   -2.274286
     34          7           0        5.113355   -2.579655   -1.358832
     35          7           0        6.481970   -0.723457   -1.242423
     36          6           0        0.195227   -0.798821    4.468002
     37          6           0       -1.062811   -1.565253    3.968152
     38          7           0        0.956981   -0.364718    3.350705
     39          7           0       -1.608321   -0.751315    2.916495
     40          6           0       -7.435232   -0.771703   -2.052899
     41          6           0       -6.715846   -2.137072   -2.229623
     42          7           0       -6.471773    0.116416   -1.424103
     43          7           0       -5.306124   -1.786308   -2.038120
     44          1           0       -2.335092    3.722276   -1.343237
     45          1           0       -6.468755   -0.032607   -0.418547
     46          1           0       -5.080510    0.134984   -2.956042
     47          1           0       -4.698772   -2.184913   -2.741541
     48          1           0        7.158288   -0.222482   -0.681916
     49          1           0        4.389512   -2.172071   -1.944958
     50          1           0        6.120644   -2.077940    0.377449
     51          1           0       -8.346181   -0.844939   -1.461962
     52          1           0       -7.684836   -0.352817   -3.033248
     53          1           0        6.002855   -3.291413   -3.131556
     54          1           0        6.872665   -3.636083   -1.624328
     55          1           0        1.919666    5.185997   -0.583792
     56          1           0        1.124438    4.154828   -1.803766
     57          1           0        0.759530   -1.443118    5.163901
     58          1           0       -0.141341    0.101461    4.987265
     59          6           0       -7.124575   -3.122712   -1.129498
     60          1           0       -6.963654   -2.677125   -0.150756
     61          1           0       -6.521207   -4.024783   -1.196781
     62          1           0       -8.173228   -3.392369   -1.228597
     63          6           0       -6.990177   -2.741600   -3.606787
     64          1           0       -8.057088   -2.905467   -3.740230
     65          1           0       -6.478204   -3.696682   -3.708913
     66          1           0       -6.642176   -2.073090   -4.392891
     67          6           0        8.587244   -1.798463   -2.032197
     68          1           0        8.982496   -2.498054   -2.765224
     69          1           0        8.751193   -2.210175   -1.037516
     70          1           0        9.135972   -0.862195   -2.116882
     71          6           0        6.881657   -0.894457   -3.636495
     72          1           0        7.309872   -1.500981   -4.430732
     73          1           0        7.354012    0.084872   -3.647517
     74          1           0        5.818937   -0.762170   -3.824426
     75          6           0        0.150478    5.105961    1.384358
     76          1           0       -0.796471    5.259944    1.895993
     77          1           0        0.718006    6.032983    1.398944
     78          1           0        0.709593    4.330532    1.897821
     79          6           0       -0.796039    5.761952   -0.857038
     80          1           0       -0.928271    5.475118   -1.898754
     81          1           0       -0.191740    6.665070   -0.826767
     82          1           0       -1.770302    5.981172   -0.424871
     83          6           0       -2.095192   -1.618849    5.101627
     84          1           0       -1.661983   -2.079755    5.985988
     85          1           0       -2.960243   -2.199532    4.788097
     86          1           0       -2.425425   -0.613306    5.347863
     87          6           0       -0.660187   -2.989249    3.561175
     88          1           0       -0.173876   -3.486354    4.397111
     89          1           0        0.029462   -2.957491    2.719234
     90          1           0       -1.531890   -3.576961    3.282004
 ---------------------------------------------------------------------

 SCF Done:  E(RPBE1PBE) =  -1761.08151322     a.u. after    7 cycles
 SCF Done:  E(RPBE1PBE) =  -1761.08152652     A.U. after    8 cycles

 The electronic state is 1-A.
 Alpha  occ. eigenvalues --  -14.37105 -14.37054 -14.36488 -14.36385 -14.36358
 Alpha  occ. eigenvalues --  -14.36282 -14.36135 -14.36020 -10.27644 -10.27602
 Alpha  occ. eigenvalues --  -10.25878 -10.25811 -10.25778 -10.25484 -10.25428
 Alpha  occ. eigenvalues --  -10.25341 -10.25271 -10.25099 -10.24149 -10.24089
 Alpha  occ. eigenvalues --  -10.24011 -10.23509 -10.22841 -10.22683 -10.22641
 Alpha  occ. eigenvalues --  -10.22562 -10.22524 -10.22514 -10.22419 -10.22347
 Alpha  occ. eigenvalues --  -10.22124 -10.21914 -10.21295 -10.21288 -10.21281
 Alpha  occ. eigenvalues --  -10.21246 -10.20599 -10.20516 -10.20504 -10.20409
 Alpha  occ. eigenvalues --  -10.20346 -10.18982  -0.99358  -0.99294  -0.96333
 Alpha  occ. eigenvalues --   -0.96185  -0.94047  -0.93686  -0.88834  -0.88376
 Alpha  occ. eigenvalues --   -0.88126  -0.88023  -0.82750  -0.82507  -0.81706
 Alpha  occ. eigenvalues --   -0.80502  -0.79166  -0.77447  -0.77103  -0.76488
 Alpha  occ. eigenvalues --   -0.71682  -0.71481  -0.71319  -0.71306  -0.70906
 Alpha  occ. eigenvalues --   -0.70382  -0.69717  -0.69616  -0.66792  -0.66559
 Alpha  occ. eigenvalues --   -0.65562  -0.64759  -0.63781  -0.62970  -0.59986
 Alpha  occ. eigenvalues --   -0.59069  -0.58495  -0.58359  -0.57072  -0.56449
 Alpha  occ. eigenvalues --   -0.54998  -0.54817  -0.52966  -0.52308  -0.51882
 Alpha  occ. eigenvalues --   -0.50998  -0.50835  -0.50683  -0.49880  -0.49630
 Alpha  occ. eigenvalues --   -0.48668  -0.47952  -0.47654  -0.47099  -0.46834
 Alpha  occ. eigenvalues --   -0.46307  -0.46097  -0.45979  -0.45641  -0.45383
 Alpha  occ. eigenvalues --   -0.45024  -0.44781  -0.44324  -0.43946  -0.43446
 Alpha  occ. eigenvalues --   -0.43072  -0.42705  -0.42497  -0.42132  -0.41491
 Alpha  occ. eigenvalues --   -0.41138  -0.41051  -0.40435  -0.40233  -0.40031
 Alpha  occ. eigenvalues --   -0.39925  -0.39780  -0.39471  -0.39121  -0.38598
 Alpha  occ. eigenvalues --   -0.38202  -0.38089  -0.37801  -0.37789  -0.37481
 Alpha  occ. eigenvalues --   -0.37407  -0.37188  -0.36488  -0.36342  -0.36192
 Alpha  occ. eigenvalues --   -0.35727  -0.35545  -0.35131  -0.34867  -0.34552
 Alpha  occ. eigenvalues --   -0.34493  -0.34012  -0.33858  -0.32949  -0.32368
 Alpha  occ. eigenvalues --   -0.30961  -0.30212  -0.26186  -0.25999  -0.25631
 Alpha  occ. eigenvalues --   -0.25581  -0.24982  -0.24876  -0.24753  -0.24552
 Alpha  occ. eigenvalues --   -0.23980  -0.23683  -0.23519  -0.23373
 Alpha virt. eigenvalues --   -0.04056  -0.03759  -0.03259  -0.02844   0.02886
 Alpha virt. eigenvalues --    0.03292   0.03420   0.03595   0.04909   0.05107
 Alpha virt. eigenvalues --    0.05323   0.05591   0.05816   0.06336   0.06946

 Mulliken charges:
               1
     1  C    0.365817
     2  C   -0.195648
     3  C   -0.330627
     4  C    0.269841
     5  H    0.130280
     6  C   -0.379489
     7  C    0.393531
     8  H    0.099924
     9  C   -0.314211
    10  C   -0.205179
    11  H    0.178142
    12  C   -0.102205
    13  H    0.064725
    14  H    0.062040
    15  C    0.392783
    16  C   -0.205146
    17  C   -0.357080
    18  C    0.379051
    19  H    0.160588
    20  C   -0.312567
    21  C    0.237565
    22  H    0.126422
    23  C   -0.380708
    24  C   -0.098404
    25  H    0.098148
    26  C   -0.188672
    27  H    0.071039
    28  C    0.210939
    29  C   -0.068234
    30  N   -0.183561
    31  N   -0.177333
    32  C   -0.146630
    33  C    0.136062
    34  N   -0.249134
    35  N   -0.273631
    36  C   -0.077275
    37  C    0.148363
    38  N   -0.150826
    39  N   -0.149399
    40  C   -0.136653
    41  C    0.119391
    42  N   -0.251497
    43  N   -0.272266
    44  H    0.076660
    45  H    0.196181
    46  H    0.067915
    47  H    0.194362
    48  H    0.193708
    49  H    0.195036
    50  H    0.067086
    51  H    0.128132
    52  H    0.083042
    53  H    0.128007
    54  H    0.085280
    55  H    0.108660
    56  H    0.067874
    57  H    0.068202
    58  H    0.106121
    59  C   -0.355783
    60  H    0.112768
    61  H    0.111538
    62  H    0.112940
    63  C   -0.426775
    64  H    0.123374
    65  H    0.125983
    66  H    0.126563
    67  C   -0.428137
    68  H    0.123058
    69  H    0.127235
    70  H    0.125714
    71  C   -0.358314
    72  H    0.113024
    73  H    0.112513
    74  H    0.111962
    75  C   -0.405320
    76  H    0.116900
    77  H    0.101287
    78  H    0.157262
    79  C   -0.390991
    80  H    0.122653
    81  H    0.127625
    82  H    0.134547
    83  C   -0.360352
    84  H    0.115277
    85  H    0.118534
    86  H    0.135047
    87  C   -0.433646
    88  H    0.123465
    89  H    0.149839
    90  H    0.125669
 Sum of Mulliken charges =   0.00000

 Dipole moment (field-independent basis, Debye):
    X=              0.7911    Y=             -2.4019    Z=             -2.7555  Tot=              3.7400
 Quadrupole moment (field-independent basis, Debye-Ang):
   XX=           -223.6779   YY=           -246.3882   ZZ=           -239.7061
   XY=              4.6051   XZ=              1.9421   YZ=             -7.4211

 1\1\GINC-CX3-6-1\SP\RPBE1PBE\def2TZVP\C34H48N8\ATARZIA\18-Oct-2021\0\\
 #P PBE1PBE/Def2TZVP SP SCF=(YQC,MaxCycle=900) int=(Grid=Superfinegrid)
  EmpiricalDispersion=GD3\\_2_alde1_4_ami2_1_opt_gas\\0,1\C,0,-2.9133,-
 2.6504,-1.4643\C,0,-2.1875,-2.66,-0.1981\C,0,-2.8342,-3.7178,-2.3563\C
 ,0,-3.5387,-3.689,-3.5513\H,0,-2.2517,-4.5953,-2.1159\C,0,-4.2914,-2.5
 706,-3.8788\C,0,-4.3491,-1.4805,-3.013\H,0,-4.8199,-2.5421,-4.8216\C,0
 ,-3.6716,-1.5365,-1.7988\C,0,-5.0798,-0.2709,-3.3697\H,0,-3.7212,-0.69
 91,-1.1232\C,0,-3.4386,-4.8457,-4.5107\H,0,-5.7062,-0.3194,-4.2768\H,0

 Normal termination of Gaussian 16 at Mon Oct 18 00:09:36 2021.
