 Gaussian 16, Revision C.01,
 Gaussian 16:  ES64L-G16RevC.01  3-Jul-2019

 ---------------------------------------------------------------------
 #P MP2/aug-cc-pVDZ SP SCF=(YQC,MaxCycle=900) int=(Grid=Superfinegrid)
 ---------------------------------------------------------------------

 -----------------------------
 _2_alde1_4_ami4_2_opt_gas_mp2
 -----------------------------
 Symbolic Z-matrix:
 Charge =  0 Multiplicity = 1

                         Standard orientation:
 ---------------------------------------------------------------------
 Center     Atomic      Atomic             Coordinates (Angstroms)
 Number     Number       Type             X           Y           Z
 ---------------------------------------------------------------------
      1          6           0        1.835827    2.034753    0.314493
      2          6           0        1.469435    3.399659   -0.028876
      3          6           0        2.686607    1.286280   -0.497701
      4          6           0        2.947952   -0.048215   -0.206480
      5          1           0        3.129514    1.765779   -1.357393
      6          6           0        2.315611   -0.648269    0.883759
      7          6           0        1.467349    0.086467    1.703190
      8          1           0        2.502444   -1.694292    1.073372
      9          6           0        1.254802    1.436343    1.426444
     10          6           0        0.733969   -0.560413    2.782965
     11          1           0        0.600648    1.993141    2.078695
     12          6           0        3.856963   -0.812213   -1.048796
     13          1           0        0.720419   -1.661063    2.754746
     14          1           0        0.869919    3.929118    0.726162
     15          1           0        4.286244   -0.269054   -1.905245
     16          6           0       -1.931724    1.855071   -1.258369
     17          6           0       -1.259167    2.888185   -2.033395
     18          6           0       -1.954845    1.926772    0.132138
     19          6           0       -2.469811    0.880233    0.891503
     20          1           0       -1.531894    2.800079    0.603247
     21          6           0       -3.022738   -0.223115    0.247324
     22          6           0       -3.051861   -0.287954   -1.143592
     23          1           0       -3.427789   -1.035875    0.827433
     24          6           0       -2.482514    0.743048   -1.888940
     25          6           0       -3.647335   -1.430766   -1.823952
     26          1           0       -2.471940    0.680304   -2.968844
     27          6           0       -2.331744    0.927923    2.339232
     28          1           0       -3.600983   -1.412083   -2.924739
     29          1           0       -1.985683    1.890176    2.746214
     30          6           0       -0.122559    4.909774   -2.276174
     31          6           0        1.161448    5.185118   -1.459729
     32          7           0       -0.927371    3.996210   -1.531617
     33          7           0        1.757935    3.924717   -1.140493
     34          6           0        5.058741   -2.727844   -1.630615
     35          6           0        6.287359   -3.129720   -0.780888
     36          7           0        4.132315   -2.020004   -0.810428
     37          7           0        5.984140   -3.955455    0.365134
     38          6           0       -0.727707   -0.568972    4.599929
     39          6           0       -2.150656    0.018278    4.454090
     40          7           0        0.117935    0.098486    3.663686
     41          7           0       -2.525729   -0.077152    3.077392
     42          6           0       -4.021856   -4.770114   -1.449738
     43          6           0       -4.745683   -3.490100   -1.883404
     44          7           0       -2.676743   -4.776127   -2.001909
     45          7           0       -4.188700   -2.375161   -1.188486
     46          1           0       -1.024159    2.622924   -3.076622
     47          1           0        5.326444   -3.466674    0.963930
     48          1           0        5.539405   -4.817986    0.067126
     49          1           0       -2.161837   -3.974857   -1.649082
     50          1           0       -2.181423   -5.612653   -1.713203
     51          1           0       -2.134533    1.059507    4.810791
     52          1           0       -2.845302   -0.572818    5.053907
     53          1           0       -0.756915   -1.658325    4.439775
     54          1           0       -0.368172   -0.357996    5.610818
     55          1           0        6.774502   -2.220372   -0.417902
     56          1           0        6.991961   -3.668524   -1.420241
     57          1           0        5.392665   -2.143645   -2.504807
     58          1           0        4.560634   -3.639671   -1.978209
     59          1           0        0.884333    5.754003   -0.559522
     60          1           0        1.857351    5.764075   -2.069983
     61          1           0        0.145824    4.521315   -3.271583
     62          1           0       -0.669442    5.850097   -2.387368
     63          1           0       -4.553531   -5.635612   -1.854098
     64          1           0       -4.046917   -4.823140   -0.349952
     65          1           0       -5.796503   -3.566829   -1.588581
     66          1           0       -4.676926   -3.388904   -2.978290
 ---------------------------------------------------------------------

 SCF Done:  E(RHF) =  -1438.88089295     a.u. after    7 cycles
 SCF Done:  E(RHF) =  -1438.88093602     A.U. after   13 cycles
 E2 =    -0.4971582061D+01 EUMP2 =    -0.14438525180851D+04

 The electronic state is 1-A.
 Alpha  occ. eigenvalues --  -15.56587 -15.56481 -15.56316 -15.56293 -15.55993
 Alpha  occ. eigenvalues --  -15.55744 -15.54481 -15.54058 -11.29108 -11.29107
 Alpha  occ. eigenvalues --  -11.28847 -11.28764 -11.28664 -11.28349 -11.26295
 Alpha  occ. eigenvalues --  -11.26046 -11.25971 -11.25949 -11.25714 -11.25692
 Alpha  occ. eigenvalues --  -11.25457 -11.25422 -11.25407 -11.25341 -11.25317
 Alpha  occ. eigenvalues --  -11.25306 -11.25200 -11.25167 -11.25153 -11.25142
 Alpha  occ. eigenvalues --  -11.25090 -11.25076 -11.24937 -11.24684  -1.26599
 Alpha  occ. eigenvalues --   -1.26278  -1.25391  -1.25146  -1.23567  -1.23063
 Alpha  occ. eigenvalues --   -1.18147  -1.17913  -1.17074  -1.16551  -1.07679
 Alpha  occ. eigenvalues --   -1.06989  -1.06096  -1.05469  -1.01277  -0.99636
 Alpha  occ. eigenvalues --   -0.98392  -0.98199  -0.91690  -0.91381  -0.89094
 Alpha  occ. eigenvalues --   -0.88530  -0.87439  -0.84938  -0.83225  -0.82615
 Alpha  occ. eigenvalues --   -0.80962  -0.79232  -0.76708  -0.75209  -0.74954
 Alpha  occ. eigenvalues --   -0.73933  -0.71339  -0.70544  -0.69398  -0.68576
 Alpha  occ. eigenvalues --   -0.67582  -0.67257  -0.66855  -0.66491  -0.66304
 Alpha  occ. eigenvalues --   -0.65747  -0.64661  -0.64326  -0.63838  -0.62939
 Alpha  occ. eigenvalues --   -0.61704  -0.61630  -0.61167  -0.60014  -0.59742
 Alpha  occ. eigenvalues --   -0.59705  -0.59214  -0.58860  -0.56596  -0.55288
 Alpha  occ. eigenvalues --   -0.55132  -0.54855  -0.54672  -0.54034  -0.53823
 Alpha  occ. eigenvalues --   -0.53767  -0.53192  -0.52946  -0.51880  -0.51263
 Alpha  occ. eigenvalues --   -0.50521  -0.49919  -0.49459  -0.49166  -0.46237
 Alpha  occ. eigenvalues --   -0.45821  -0.45596  -0.45119  -0.41446  -0.41125
 Alpha  occ. eigenvalues --   -0.40989  -0.40698  -0.40602  -0.40545  -0.40196
 Alpha  occ. eigenvalues --   -0.39723  -0.38643  -0.37943  -0.33033  -0.32529
 Alpha  occ. eigenvalues --   -0.32264  -0.31734
 Alpha virt. eigenvalues --    0.02960   0.03282   0.03631   0.03833   0.04201
 Alpha virt. eigenvalues --    0.04258   0.04412   0.04831   0.04971   0.05292
 Alpha virt. eigenvalues --    0.05536   0.05702   0.05758   0.05871   0.06023

 Mulliken charges:
               1
     1  C    0.860856
     2  C    0.840496
     3  C    0.588367
     4  C    0.892020
     5  H   -0.877462
     6  C    0.002083
     7  C    0.537199
     8  H   -0.773281
     9  C    0.390317
    10  C    1.206813
    11  H   -0.999287
    12  C    0.695647
    13  H   -0.688042
    14  H   -0.646704
    15  H   -0.642239
    16  C    0.313746
    17  C    1.167673
    18  C    0.093743
    19  C    1.281890
    20  H   -0.998976
    21  C   -0.190440
    22  C    0.672564
    23  H   -0.937303
    24  C    0.984179
    25  C    0.646057
    26  H   -0.726817
    27  C    0.873798
    28  H   -0.678509
    29  H   -0.632981
    30  C    0.715511
    31  C    0.550520
    32  N   -0.743765
    33  N   -0.841598
    34  C    0.539833
    35  C    0.870564
    36  N   -0.510917
    37  N   -0.453209
    38  C    0.686947
    39  C    0.570503
    40  N   -0.751092
    41  N   -0.816484
    42  C    0.869641
    43  C    0.578739
    44  N   -0.408916
    45  N   -0.544959
    46  H   -0.718860
    47  H    0.038126
    48  H    0.027607
    49  H    0.041817
    50  H   -0.032023
    51  H   -0.108925
    52  H   -0.320044
    53  H   -0.118434
    54  H   -0.250866
    55  H   -0.151544
    56  H   -0.139873
    57  H   -0.117462
    58  H   -0.306938
    59  H   -0.101283
    60  H   -0.314348
    61  H   -0.112918
    62  H   -0.243662
    63  H   -0.160556
    64  H   -0.127412
    65  H   -0.258142
    66  H   -0.090983
 Sum of Mulliken charges =   0.00000

 Dipole moment (field-independent basis, Debye):
    X=             -0.6034    Y=              0.8343    Z=             -1.8441  Tot=              2.1121
 Quadrupole moment (field-independent basis, Debye-Ang):
   XX=           -224.5128   YY=           -195.7850   ZZ=           -193.2591
   XY=              6.0495   XZ=             -8.3207   YZ=             -2.3257

 Normal termination of Gaussian 16 at Mon Nov  1 22:10:32 2021.
