 Gaussian 16, Revision C.01,
 Gaussian 16:  ES64L-G16RevC.01  3-Jul-2019

 ----------------------------------------------------------------------
 #P PBE1PBE/Def2TZVP SP SCF=(YQC,MaxCycle=900) int=(Grid=Superfinegrid)
  EmpiricalDispersion=GD3 SCRF=(PCM,Solvent=Chloroform)
 ----------------------------------------------------------------------

 -------------------------
 _2_alde1_3_ami2_1_opt_cfm
 -------------------------
 Symbolic Z-matrix:
 Charge =  0 Multiplicity = 1

                         Standard orientation:
 ---------------------------------------------------------------------
 Center     Atomic      Atomic             Coordinates (Angstroms)
 Number     Number       Type             X           Y           Z
 ---------------------------------------------------------------------
      1          6           0        4.565329    1.026182   -0.050054
      2          6           0        3.990631    2.362203    0.092482
      3          6           0        5.915128    0.883239   -0.359853
      4          6           0        6.476311   -0.383673   -0.500366
      5          1           0        6.537135    1.758635   -0.492314
      6          6           0        5.677098   -1.513775   -0.332793
      7          6           0        4.327046   -1.385635   -0.023428
      8          1           0        6.134195   -2.486577   -0.448608
      9          6           0        3.778344   -0.112080    0.115770
     10          6           0        3.504248   -2.581558    0.145613
     11          1           0        2.730995   -0.005164    0.347488
     12          6           0        7.898657   -0.537265   -0.824256
     13          1           0        4.025418   -3.527257   -0.057592
     14          1           0        4.685188    3.185498   -0.128441
     15          6           0       -1.832403    1.646987   -0.484180
     16          6           0       -0.978796    2.826444   -0.495509
     17          6           0       -1.263213    0.378045   -0.497126
     18          6           0       -2.068177   -0.755394   -0.458894
     19          1           0       -0.191291    0.272858   -0.529108
     20          6           0       -3.453680   -0.609708   -0.411149
     21          6           0       -4.031347    0.651322   -0.411463
     22          1           0       -4.098579   -1.476211   -0.387396
     23          6           0       -3.220392    1.775654   -0.441856
     24          6           0       -5.528187    0.794395   -0.321096
     25          1           0       -3.672112    2.757762   -0.428474
     26          6           0       -1.461676   -2.079199   -0.445883
     27          1           0       -2.154152   -2.931117   -0.333123
     28          6           0        1.111433    3.865156   -0.577773
     29          6           0        2.124162    3.765146    0.597315
     30          7           0        0.270784    2.722128   -0.612651
     31          1           0        1.681989    3.881407   -1.512720
     32          7           0        2.794121    2.507924    0.448533
     33          6           0        1.358203    3.685572    1.923583
     34          8           0        8.474905   -1.586222   -0.964090
     35          6           0        1.401831   -3.583849    0.674529
     36          6           0        0.386718   -3.506480   -0.500144
     37          7           0        2.302981   -2.483580    0.502910
     38          6           0        2.031606   -4.983791    0.682216
     39          7           0       -0.215480   -2.222684   -0.557049
     40          1           0       -0.347107   -4.325497   -0.388795
     41          6           0       -7.372279    0.484720    0.994575
     42          6           0       -7.493729   -0.535756   -0.170562
     43          7           0       -5.968919    0.858303    1.063873
     44          1           0       -7.719826    0.086325    1.945828
     45          7           0       -6.224033   -0.364224   -0.882214
     46          1           0       -1.490560    3.798997   -0.394396
     47          1           0       -5.452869    0.162754    1.596365
     48          1           0       -5.839439    1.741541   -0.803139
     49          1           0       -6.336171   -0.304106   -1.885412
     50          1           0        8.436314    0.426486   -0.937264
     51          1           0        0.551279    4.813072   -0.481878
     52          6           0        3.014029    5.015969    0.580113
     53          6           0        0.668726   -3.331968    1.997860
     54          1           0        0.941811   -3.649897   -1.433439
     55          1           0       -7.946273    1.387035    0.760526
     56          6           0       -7.564184   -1.972786    0.357401
     57          1           0        1.268367   -5.725855    0.901662
     58          1           0        2.801182   -5.044229    1.449308
     59          1           0        2.472903   -5.224036   -0.282902
     60          1           0        3.491886    5.148124   -0.388641
     61          1           0        3.781906    4.940180    1.347762
     62          1           0        2.409836    5.896025    0.784184
     63          1           0       -7.520591   -2.674949   -0.471701
     64          1           0       -8.489129   -2.132861    0.905830
     65          1           0       -6.722316   -2.170472    1.016552
     66          6           0       -8.707083   -0.238331   -1.051852
     67          1           0       -9.620881   -0.289862   -0.464451
     68          1           0       -8.774083   -0.964487   -1.859911
     69          1           0       -8.629391    0.758316   -1.483742
     70          1           0        2.058867    3.666346    2.754954
     71          1           0        0.769119    2.773188    1.942382
     72          1           0        0.699150    4.543069    2.036267
     73          1           0       -0.144570   -4.042631    2.125390
     74          1           0        0.268933   -2.321987    1.998747
     75          1           0        1.361312   -3.434424    2.829784
 ---------------------------------------------------------------------

 SCF Done:  E(RPBE1PBE) =  -1568.52981252     a.u. after    6 cycles
 SCF Done:  E(RPBE1PBE) =  -1568.52984418     A.U. after    9 cycles

 The electronic state is 1-A.
 Alpha  occ. eigenvalues --  -19.20981 -14.37448 -14.37370 -14.37342 -14.37294
 Alpha  occ. eigenvalues --  -14.37254 -14.36379 -10.31506 -10.27890 -10.26579
 Alpha  occ. eigenvalues --  -10.26516 -10.26484 -10.26465 -10.26291 -10.26233
 Alpha  occ. eigenvalues --  -10.25656 -10.25068 -10.24694 -10.24679 -10.24671
 Alpha  occ. eigenvalues --  -10.24650 -10.24633 -10.24575 -10.24042 -10.23943
 Alpha  occ. eigenvalues --  -10.23638 -10.23611 -10.23549 -10.23369 -10.22980
 Alpha  occ. eigenvalues --  -10.22411 -10.21009 -10.20929 -10.20830 -10.20304
 Alpha  occ. eigenvalues --  -10.20294 -10.20153  -1.08723  -0.99480  -0.97377
 Alpha  occ. eigenvalues --   -0.97200  -0.95328  -0.94932  -0.90687  -0.89398
 Alpha  occ. eigenvalues --   -0.88239  -0.83891  -0.83080  -0.81810  -0.80433
 Alpha  occ. eigenvalues --   -0.79474  -0.78604  -0.77775  -0.72322  -0.72117
 Alpha  occ. eigenvalues --   -0.71433  -0.71352  -0.71014  -0.69887  -0.69017
 Alpha  occ. eigenvalues --   -0.68166  -0.67000  -0.66072  -0.64694  -0.63562
 Alpha  occ. eigenvalues --   -0.60727  -0.59692  -0.58427  -0.57521  -0.57361
 Alpha  occ. eigenvalues --   -0.56495  -0.54869  -0.53557  -0.53113  -0.52490
 Alpha  occ. eigenvalues --   -0.51492  -0.51088  -0.50243  -0.49991  -0.49429
 Alpha  occ. eigenvalues --   -0.49075  -0.48591  -0.47797  -0.47316  -0.46632
 Alpha  occ. eigenvalues --   -0.46293  -0.45948  -0.45853  -0.45595  -0.45012
 Alpha  occ. eigenvalues --   -0.44888  -0.44755  -0.44191  -0.43559  -0.43367
 Alpha  occ. eigenvalues --   -0.42768  -0.42237  -0.41438  -0.41022  -0.40664
 Alpha  occ. eigenvalues --   -0.40633  -0.40266  -0.40024  -0.39799  -0.39555
 Alpha  occ. eigenvalues --   -0.38994  -0.38872  -0.38426  -0.37686  -0.37619
 Alpha  occ. eigenvalues --   -0.37526  -0.37424  -0.37194  -0.36815  -0.36325
 Alpha  occ. eigenvalues --   -0.35939  -0.35184  -0.34442  -0.34382  -0.34220
 Alpha  occ. eigenvalues --   -0.33497  -0.33127  -0.31094  -0.28317  -0.27570
 Alpha  occ. eigenvalues --   -0.27529  -0.27054  -0.26658  -0.25983  -0.25717
 Alpha  occ. eigenvalues --   -0.25084  -0.24953  -0.24917  -0.23724
 Alpha virt. eigenvalues --   -0.07705  -0.05548  -0.04831  -0.04805  -0.02572
 Alpha virt. eigenvalues --    0.02815   0.03832   0.04732   0.04781   0.05274
 Alpha virt. eigenvalues --    0.05601   0.06020   0.06564   0.06660   0.07157

 Mulliken charges:
               1
     1  C    0.337634
     2  C   -0.191627
     3  C   -0.296326
     4  C    0.207800
     5  H    0.135412
     6  C   -0.327282
     7  C    0.376919
     8  H    0.135712
     9  C   -0.352711
    10  C   -0.188283
    11  H    0.165336
    12  C    0.065603
    13  H    0.098233
    14  H    0.094048
    15  C    0.377800
    16  C   -0.189307
    17  C   -0.363009
    18  C    0.384064
    19  H    0.164814
    20  C   -0.322009
    21  C    0.277187
    22  H    0.131173
    23  C   -0.405581
    24  C   -0.082708
    25  H    0.119303
    26  C   -0.198421
    27  H    0.075730
    28  C   -0.121425
    29  C    0.194990
    30  N   -0.159748
    31  H    0.118008
    32  N   -0.177059
    33  C   -0.405792
    34  O   -0.323767
    35  C    0.194651
    36  C   -0.123395
    37  N   -0.178380
    38  C   -0.408535
    39  N   -0.159058
    40  H    0.087210
    41  C   -0.144231
    42  C    0.141261
    43  N   -0.292124
    44  H    0.137572
    45  N   -0.298845
    46  H    0.076687
    47  H    0.208728
    48  H    0.083726
    49  H    0.208723
    50  H    0.090603
    51  H    0.087402
    52  C   -0.408453
    53  C   -0.405741
    54  H    0.118673
    55  H    0.092617
    56  C   -0.381488
    57  H    0.138200
    58  H    0.141225
    59  H    0.135277
    60  H    0.134336
    61  H    0.140560
    62  H    0.138750
    63  H    0.116185
    64  H    0.120319
    65  H    0.118052
    66  C   -0.437185
    67  H    0.129043
    68  H    0.131383
    69  H    0.131961
    70  H    0.126816
    71  H    0.147137
    72  H    0.116396
    73  H    0.115801
    74  H    0.146172
    75  H    0.127255
 Sum of Mulliken charges =   0.00000

 Dipole moment (field-independent basis, Debye):
    X=             -5.5395    Y=              2.0113    Z=             -0.1008  Tot=              5.8942
 Quadrupole moment (field-independent basis, Debye-Ang):
   XX=           -219.2224   YY=           -192.6034   ZZ=           -223.1385
   XY=             25.9120   XZ=              8.8549   YZ=             -5.8689

 Normal termination of Gaussian 16 at Mon Oct 18 20:46:55 2021.
