 Gaussian 16, Revision C.01,
 Gaussian 16:  ES64L-G16RevC.01  3-Jul-2019

 ----------------------------------------------------------------------
 #P MP2/aug-cc-pVDZ SP SCF=(YQC,MaxCycle=900) int=(Grid=Superfinegrid)
 SCRF=(PCM,Solvent=Chloroform)
 ----------------------------------------------------------------------

 -----------------------------
 _3_alde1_5_ami4_2_opt_cfm_mp2
 -----------------------------
 Symbolic Z-matrix:
 Charge =  0 Multiplicity = 1

                         Standard orientation:
 ---------------------------------------------------------------------
 Center     Atomic      Atomic             Coordinates (Angstroms)
 Number     Number       Type             X           Y           Z
 ---------------------------------------------------------------------
      1          6           0       -4.025328    1.412035    0.289217
      2          6           0       -5.104719    0.717570   -0.396229
      3          6           0       -3.399625    2.523488   -0.274341
      4          6           0       -2.307079    3.110466    0.354291
      5          1           0       -3.779043    2.908103   -1.209083
      6          6           0       -1.807732    2.550443    1.531429
      7          6           0       -2.433271    1.455142    2.113206
      8          1           0       -0.934064    2.999744    1.978091
      9          6           0       -3.560833    0.910799    1.499890
     10          6           0       -1.880021    0.832106    3.308853
     11          1           0       -4.040882    0.068124    1.971656
     12          6           0       -1.670934    4.288848   -0.218934
     13          1           0       -0.837243    1.096551    3.542377
     14          1           0       -5.640553   -0.030232    0.206523
     15          1           0       -2.175092    4.720045   -1.098314
     16          6           0        4.279166    1.244300   -0.442744
     17          6           0        5.418297    1.410637    0.449828
     18          6           0        4.044564    0.025625   -1.077014
     19          6           0        2.953240   -0.133691   -1.925547
     20          1           0        4.717368   -0.800784   -0.917187
     21          6           0        2.087137    0.938437   -2.130719
     22          6           0        2.317580    2.166219   -1.517290
     23          1           0        1.233312    0.819147   -2.784253
     24          6           0        3.416570    2.311999   -0.673157
     25          6           0        1.423618    3.283912   -1.776289
     26          1           0        3.577430    3.272139   -0.207279
     27          6           0        2.721093   -1.391384   -2.620466
     28          1           0        0.529800    3.047069   -2.377591
     29          1           0        5.532019    2.408841    0.901364
     30          1           0        1.838977   -1.416101   -3.279592
     31          6           0       -2.596201   -2.423703   -1.112307
     32          6           0       -3.497521   -1.936435   -2.148335
     33          6           0       -2.989132   -2.376153    0.224592
     34          6           0       -2.098078   -2.698697    1.241131
     35          1           0       -3.992993   -2.051075    0.447739
     36          6           0       -0.810841   -3.120451    0.911303
     37          6           0       -0.425992   -3.238352   -0.419859
     38          1           0       -0.128074   -3.362764    1.711344
     39          6           0       -1.317110   -2.867531   -1.427690
     40          6           0        0.899893   -3.743892   -0.749253
     41          1           0       -0.990338   -2.940459   -2.453890
     42          6           0       -2.507858   -2.526363    2.626384
     43          1           0        1.600758   -3.834732    0.094311
     44          1           0       -3.580185   -2.334192    2.779000
     45          6           0       -5.551419   -1.119806   -2.910327
     46          6           0       -6.321427    0.038060   -2.238179
     47          7           0       -4.721085   -1.732507   -1.924338
     48          7           0       -5.372535    0.909716   -1.615169
     49          6           0        7.147178   -0.343754    2.766748
     50          6           0        7.310151    0.643458    1.587010
     51          7           0        7.083372   -1.734737    2.381581
     52          7           0        6.223602    0.468882    0.682337
     53          6           0        0.029408    5.899763   -0.314629
     54          6           0        0.735734    5.497463   -1.625654
     55          7           0       -0.617191    4.768631    0.282247
     56          7           0        1.666161    4.450320   -1.363750
     57          6           0       -1.928091   -0.676495    5.089933
     58          6           0       -2.170897   -2.188113    4.885812
     59          7           0       -2.544654    0.019821    4.006978
     60          7           0       -1.689479   -2.547544    3.587287
     61          6           0        3.200718   -3.594875   -3.185390
     62          6           0        2.518077   -4.571213   -2.209455
     63          7           0        3.495685   -2.379165   -2.496787
     64          7           0        1.206722   -4.088447   -1.923051
     65          1           0        6.310946   -1.865461    1.736110
     66          1           0        7.932170   -2.000696    1.892105
     67          1           0       -3.032554   -1.723607   -3.123852
     68          1           0        6.223437   -0.102255    3.300106
     69          1           0        7.988071   -0.210493    3.452978
     70          1           0        8.230370    0.393277    1.047590
     71          1           0        7.388820    1.673762    1.974435
     72          1           0       -4.977196   -0.742552   -3.771065
     73          1           0       -6.280112   -1.857168   -3.261079
     74          1           0       -7.026296   -0.393379   -1.511705
     75          1           0       -6.866518    0.597361   -3.001254
     76          1           0        4.146027   -4.029989   -3.517855
     77          1           0        2.531302   -3.444059   -4.046242
     78          1           0        3.141799   -4.680453   -1.308223
     79          1           0        2.415033   -5.539837   -2.706781
     80          1           0        0.774473    6.257228    0.398913
     81          1           0       -0.679358    6.706632   -0.546324
     82          1           0       -3.248206   -2.382112    4.997297
     83          1           0       -1.609594   -2.746863    5.637276
     84          1           0       -2.414137   -0.373043    6.021772
     85          1           0       -0.847428   -0.475943    5.160283
     86          1           0        1.292101    6.361625   -1.998555
     87          1           0       -0.028413    5.204635   -2.367399
 ---------------------------------------------------------------------

 SCF Done:  E(RHF) =  -1969.03491817     a.u. after    6 cycles
 SCF Done:  E(RHF) =  -1969.03508664     A.U. after   18 cycles
 E2 =    -0.6780696696D+01 EUMP2 =    -0.19758157833336D+04

 The electronic state is 1-A.
 Alpha  occ. eigenvalues --  -15.56531 -15.56404 -15.56393 -15.56374 -15.56307
 Alpha  occ. eigenvalues --  -15.56263 -15.56179 -15.56160 -15.56034 -15.54277
 Alpha  occ. eigenvalues --  -11.29019 -11.28983 -11.28850 -11.28846 -11.28832
 Alpha  occ. eigenvalues --  -11.28757 -11.28746 -11.28711 -11.28618 -11.26124
 Alpha  occ. eigenvalues --  -11.26064 -11.25885 -11.25848 -11.25833 -11.25744
 Alpha  occ. eigenvalues --  -11.25742 -11.25608 -11.25594 -11.25563 -11.25531
 Alpha  occ. eigenvalues --  -11.25500 -11.25464 -11.25450 -11.25385 -11.25383
 Alpha  occ. eigenvalues --  -11.25281 -11.25267 -11.25252 -11.25231 -11.25226
 Alpha  occ. eigenvalues --  -11.25181 -11.25174 -11.25153 -11.25143 -11.25143
 Alpha  occ. eigenvalues --  -11.25126 -11.24896  -1.26590  -1.26336  -1.26302
 Alpha  occ. eigenvalues --   -1.26212  -1.25148  -1.23934  -1.23781  -1.23439
 Alpha  occ. eigenvalues --   -1.23266  -1.18134  -1.17660  -1.16950  -1.16890
 Alpha  occ. eigenvalues --   -1.07742  -1.07455  -1.07394  -1.06412  -1.05619
 Alpha  occ. eigenvalues --   -1.05495  -1.01825  -1.00248  -0.99680  -0.99618
 Alpha  occ. eigenvalues --   -0.98105  -0.91921  -0.91746  -0.91690  -0.91429
 Alpha  occ. eigenvalues --   -0.88625  -0.87839  -0.87726  -0.86771  -0.83730
 Alpha  occ. eigenvalues --   -0.83484  -0.83104  -0.82218  -0.80062  -0.79756
 Alpha  occ. eigenvalues --   -0.76641  -0.75416  -0.75222  -0.74804  -0.74379
 Alpha  occ. eigenvalues --   -0.73762  -0.71448  -0.71060  -0.70509  -0.69410
 Alpha  occ. eigenvalues --   -0.69151  -0.68398  -0.67497  -0.67305  -0.67142
 Alpha  occ. eigenvalues --   -0.66661  -0.66152  -0.65771  -0.65521  -0.64976
 Alpha  occ. eigenvalues --   -0.64817  -0.63877  -0.62742  -0.62434  -0.61977
 Alpha  occ. eigenvalues --   -0.61781  -0.61730  -0.61395  -0.61123  -0.60681
 Alpha  occ. eigenvalues --   -0.60204  -0.59663  -0.59558  -0.59083  -0.58903
 Alpha  occ. eigenvalues --   -0.58825  -0.56431  -0.55990  -0.55131  -0.54745
 Alpha  occ. eigenvalues --   -0.54738  -0.54670  -0.54429  -0.53927  -0.53725
 Alpha  occ. eigenvalues --   -0.53651  -0.53431  -0.52888  -0.52422  -0.51223
 Alpha  occ. eigenvalues --   -0.50672  -0.50380  -0.50344  -0.50032  -0.49664
 Alpha  occ. eigenvalues --   -0.49262  -0.46933  -0.46422  -0.45915  -0.45629
 Alpha  occ. eigenvalues --   -0.45399  -0.45023  -0.41722  -0.41368  -0.41293
 Alpha  occ. eigenvalues --   -0.41132  -0.41022  -0.40923  -0.40647  -0.40472
 Alpha  occ. eigenvalues --   -0.40447  -0.39968  -0.39806  -0.39517  -0.38153
 Alpha  occ. eigenvalues --   -0.33094  -0.32772  -0.32700  -0.32614  -0.32317
 Alpha  occ. eigenvalues --   -0.31913
 Alpha virt. eigenvalues --    0.03377   0.03536   0.03766   0.03887   0.04282
 Alpha virt. eigenvalues --    0.04308   0.04495   0.04626   0.04851   0.05194
 Alpha virt. eigenvalues --    0.05253   0.05351   0.05597   0.05684   0.05881

 Mulliken charges:
               1
     1  C    0.672826
     2  C    0.760397
     3  C    0.876575
     4  C    0.857995
     5  H   -0.888484
     6  C    0.134812
     7  C    0.638811
     8  H   -0.893928
     9  C    0.530210
    10  C    0.956964
    11  H   -1.037010
    12  C    0.735014
    13  H   -0.665525
    14  H   -0.606363
    15  H   -0.692511
    16  C    0.968451
    17  C    0.551007
    18  C   -0.368275
    19  C    1.350571
    20  H   -0.900242
    21  C    0.219674
    22  C    1.157110
    23  H   -0.776596
    24  C    0.250339
    25  C    0.978229
    26  H   -0.872609
    27  C    0.778367
    28  H   -0.702891
    29  H   -0.617804
    30  H   -0.708345
    31  C    0.867695
    32  C    0.653514
    33  C    0.214058
    34  C    1.018018
    35  H   -1.007617
    36  C    0.320248
    37  C    0.858668
    38  H   -0.874181
    39  C    0.337140
    40  C    0.891897
    41  H   -0.919770
    42  C    0.896841
    43  H   -0.668411
    44  H   -0.624792
    45  C    0.729291
    46  C    0.584714
    47  N   -0.686114
    48  N   -0.828727
    49  C    0.855719
    50  C    0.532700
    51  N   -0.482885
    52  N   -0.555156
    53  C    0.798426
    54  C    0.594822
    55  N   -0.580758
    56  N   -0.701528
    57  C    0.727243
    58  C    0.584239
    59  N   -0.749164
    60  N   -0.830799
    61  C    0.626647
    62  C    0.695805
    63  N   -0.739525
    64  N   -0.656131
    65  H    0.033801
    66  H    0.044343
    67  H   -0.658666
    68  H   -0.151514
    69  H   -0.135516
    70  H   -0.298399
    71  H   -0.115557
    72  H   -0.135303
    73  H   -0.230879
    74  H   -0.090964
    75  H   -0.310507
    76  H   -0.316382
    77  H   -0.133782
    78  H   -0.108914
    79  H   -0.276463
    80  H   -0.331910
    81  H   -0.092742
    82  H   -0.101117
    83  H   -0.323319
    84  H   -0.240953
    85  H   -0.124810
    86  H   -0.342966
    87  H   -0.126376
 Sum of Mulliken charges =   0.00000

 Dipole moment (field-independent basis, Debye):
    X=             -2.3219    Y=              2.6935    Z=             -2.6368  Tot=              4.4271
 Quadrupole moment (field-independent basis, Debye-Ang):
   XX=           -276.7546   YY=           -277.7595   ZZ=           -266.1572
   XY=              8.4972   XZ=              4.8034   YZ=              0.9238

 Normal termination of Gaussian 16 at Sat Nov  6 10:25:31 2021.
