 Gaussian 16, Revision C.01,
 Gaussian 16:  ES64L-G16RevC.01  3-Jul-2019

 ----------------------------------------------------------------------
 #P PBE1PBE/Def2TZVP SP SCF=(YQC,MaxCycle=900) int=(Grid=Superfinegrid)
  EmpiricalDispersion=GD3 SCRF=(PCM,Solvent=Dichloromethane)
 ----------------------------------------------------------------------

 -------------------------
 _3_alde1_6_ami2_2_opt_dcm
 -------------------------
 Symbolic Z-matrix:
 Charge =  0 Multiplicity = 1

                         Standard orientation:
 ---------------------------------------------------------------------
 Center     Atomic      Atomic             Coordinates (Angstroms)
 Number     Number       Type             X           Y           Z
 ---------------------------------------------------------------------
      1          6           0        6.007506   -0.696158   -0.526610
      2          6           0        7.210270   -1.458970   -0.827473
      3          6           0        4.852591   -1.336495   -0.086355
      4          6           0        3.696662   -0.610201    0.189984
      5          1           0        4.852174   -2.405385    0.049349
      6          6           0        3.703755    0.769288    0.020310
      7          6           0        4.857475    1.427884   -0.403788
      8          1           0        2.823513    1.361778    0.221202
      9          6           0        6.004753    0.690011   -0.676098
     10          6           0        4.854261    2.878267   -0.532656
     11          1           0        6.901791    1.196193   -1.007290
     12          6           0        2.493958   -1.274332    0.683699
     13          1           0        5.821784    3.353639   -0.764014
     14          1           0        8.074585   -0.876796   -1.187256
     15          1           0        1.619892   -0.630352    0.822500
     16          6           0       -4.550098   -1.120169   -1.388822
     17          6           0       -5.912933   -1.571234   -1.629007
     18          6           0       -4.009526   -0.094527   -2.154996
     19          6           0       -2.699563    0.337452   -1.945271
     20          1           0       -4.587479    0.384479   -2.930864
     21          6           0       -1.930722   -0.262910   -0.954363
     22          6           0       -2.456570   -1.300594   -0.183024
     23          1           0       -0.916190    0.057243   -0.771102
     24          6           0       -3.764072   -1.719443   -0.404740
     25          6           0       -1.656650   -1.978718    0.824695
     26          1           0       -4.194811   -2.518455    0.179567
     27          6           0       -2.156297    1.428971   -2.740909
     28          1           0       -2.148482   -2.835924    1.311895
     29          1           0       -6.461482   -1.038494   -2.421455
     30          1           0       -1.112699    1.703793   -2.531040
     31          6           0       -1.941813    2.274347    2.158989
     32          6           0       -2.604452    1.533349    3.221080
     33          6           0       -0.636096    2.739221    2.317251
     34          6           0       -0.044778    3.536767    1.343236
     35          1           0       -0.108974    2.485742    3.224765
     36          6           0       -0.760901    3.848891    0.190742
     37          6           0       -2.052502    3.368054    0.003819
     38          1           0       -0.307707    4.467981   -0.565564
     39          6           0       -2.638402    2.582674    0.993523
     40          6           0       -2.779283    3.650254   -1.228180
     41          1           0       -3.645737    2.211337    0.857415
     42          6           0        1.311462    4.051447    1.521464
     43          1           0       -3.800005    3.248452   -1.266912
     44          1           0       -3.664496    1.290425    3.042243
     45          1           0        1.884560    3.587422    2.333792
     46          6           0        8.079515   -4.511892   -2.104420
     47          6           0        8.423061   -3.447302   -1.019929
     48          7           0        6.961954   -5.349460   -1.707876
     49          7           0        7.253801   -2.710989   -0.684279
     50          6           0       -7.698009   -4.456283   -1.735321
     51          6           0       -7.743625   -2.971880   -1.261772
     52          7           0       -6.996199   -5.307838   -0.791695
     53          7           0       -6.427008   -2.517257   -0.970998
     54          6           0       -2.191245   -0.899422    5.494138
     55          6           0       -2.716077    0.559887    5.341497
     56          7           0       -0.739949   -0.963403    5.515504
     57          6           0       -2.684538   -1.734396    4.311916
     58          7           0       -2.020017    1.239264    4.300406
     59          6           0        1.382519   -3.235863    1.443691
     60          6           0        0.251417   -2.378389    2.083008
     61          7           0        2.505908   -2.508249    0.936634
     62          7           0       -0.482102   -1.623051    1.123942
     63          6           0        0.828212   -4.074273    0.284232
     64          6           0        3.759635    4.950619   -0.450195
     65          6           0        3.062319    5.515094    0.816759
     66          7           0        3.789251    3.532694   -0.377415
     67          7           0        1.734586    4.973896    0.777612
     68          6           0        2.920470    7.034341    0.671799
     69          6           0       -2.338078    3.172056   -4.257803
     70          6           0       -2.819251    4.434780   -3.462465
     71          7           0       -2.851489    2.008774   -3.626047
     72          7           0       -2.231742    4.296823   -2.164934
     73          6           0       -2.208632    5.684179   -4.101142
     74          1           0       -0.376277   -0.532063    4.671875
     75          1           0       -0.379818   -0.435627    6.303690
     76          1           0        7.181614   -5.846245   -0.850904
     77          1           0        6.154061   -4.764439   -1.521715
     78          1           0       -7.458211   -5.288684    0.111477
     79          1           0       -6.052755   -4.958846   -0.660743
     80          1           0       -2.363905   -1.283686    3.374696
     81          1           0       -3.769790   -1.802320    4.315516
     82          1           0       -2.266783   -2.735113    4.380361
     83          1           0       -3.806421    0.534834    5.181159
     84          1           0       -2.503963    1.102680    6.268963
     85          1           0       -8.251987   -2.356206   -2.022525
     86          1           0       -8.317076   -2.929666   -0.329022
     87          6           0       -6.970803   -4.541786   -3.078646
     88          1           0       -7.505013   -3.980534   -3.841175
     89          1           0       -6.902475   -5.581585   -3.385185
     90          1           0       -5.963404   -4.140750   -2.989414
     91          1           0        0.718867   -1.676633    2.780585
     92          1           0       -0.396621   -3.064716    2.649953
     93          6           0        1.938090   -4.167001    2.530278
     94          1           0        2.264592   -3.587713    3.390568
     95          1           0        2.791897   -4.708557    2.133233
     96          1           0        1.181976   -4.878495    2.851282
     97          1           0        0.013336   -4.705140    0.631267
     98          1           0        1.618065   -4.702042   -0.119183
     99          1           0        0.461164   -3.424162   -0.507110
    100          6           0        9.299632   -5.406403   -2.327537
    101          6           0        7.699714   -3.806078   -3.407644
    102          1           0        4.759655    5.403725   -0.560447
    103          1           0        3.143384    5.221543   -1.312783
    104          6           0        3.901978    5.181593    2.056133
    105          1           0        3.379540    5.490348    2.959542
    106          1           0        4.850073    5.711673    2.005581
    107          1           0        4.107338    4.114454    2.108872
    108          1           0        2.268561    7.263597   -0.166232
    109          1           0        3.890530    7.497380    0.509299
    110          1           0        2.479264    7.450128    1.574425
    111          1           0       -2.460503    5.740568   -5.156919
    112          1           0       -1.128257    5.662247   -3.990826
    113          1           0       -2.587072    6.571385   -3.599580
    114          6           0       -4.349781    4.507416   -3.504901
    115          1           0       -4.705062    5.251149   -2.793774
    116          1           0       -4.788695    3.542434   -3.267287
    117          1           0       -4.673020    4.793737   -4.502206
    118          1           0       -1.238979    3.194025   -4.286177
    119          1           0       -2.744194    3.228401   -5.269312
    120          1           0        7.421189   -4.547617   -4.150828
    121          1           0        8.534297   -3.220219   -3.785085
    122          1           0        6.851565   -3.144926   -3.243459
    123          1           0        8.745151   -3.976106   -0.115695
    124          1           0        9.250644   -2.807400   -1.371143
    125          6           0       -9.129668   -4.973713   -1.880111
    126          6           0       -2.719862   -1.483663    6.804678
    127          1           0        9.580053   -5.909159   -1.404272
    128          1           0       10.147194   -4.822092   -2.676210
    129          1           0        9.060124   -6.161534   -3.070868
    130          1           0       -3.806766   -1.486815    6.813409
    131          1           0       -2.367145   -0.901966    7.653754
    132          1           0       -2.361049   -2.503293    6.914457
    133          1           0       -9.675201   -4.394926   -2.620902
    134          1           0       -9.658292   -4.910822   -0.931189
    135          1           0       -9.104792   -6.014200   -2.191466
 ---------------------------------------------------------------------

 SCF Done:  E(RPBE1PBE) =  -2641.64765590     a.u. after    6 cycles
 SCF Done:  E(RPBE1PBE) =  -2641.64769567     A.U. after    9 cycles

 The electronic state is 1-A.
 Alpha  occ. eigenvalues --  -14.38184 -14.38173 -14.37916 -14.37886 -14.37864
 Alpha  occ. eigenvalues --  -14.37797 -14.37397 -14.37318 -14.37304 -14.35604
 Alpha  occ. eigenvalues --  -14.35508 -14.35305 -10.26982 -10.26974 -10.26961
 Alpha  occ. eigenvalues --  -10.26864 -10.26858 -10.26742 -10.26692 -10.26642
 Alpha  occ. eigenvalues --  -10.26523 -10.26393 -10.26315 -10.26020 -10.25949
 Alpha  occ. eigenvalues --  -10.25917 -10.25729 -10.24782 -10.24732 -10.24715
 Alpha  occ. eigenvalues --  -10.24694 -10.24658 -10.24519 -10.24374 -10.24371
 Alpha  occ. eigenvalues --  -10.24356 -10.24275 -10.24258 -10.24229 -10.24223
 Alpha  occ. eigenvalues --  -10.24198 -10.24177 -10.24171 -10.24167 -10.24110
 Alpha  occ. eigenvalues --  -10.24092 -10.24033 -10.23813 -10.23675 -10.23352
 Alpha  occ. eigenvalues --  -10.23234 -10.20765 -10.20690 -10.20606 -10.20586
 Alpha  occ. eigenvalues --  -10.20536 -10.20517 -10.20486 -10.20472 -10.20378
 Alpha  occ. eigenvalues --  -10.20298 -10.20230 -10.20111  -0.98248  -0.97595
 Alpha  occ. eigenvalues --   -0.97525  -0.96909  -0.96726  -0.96673  -0.95440
 Alpha  occ. eigenvalues --   -0.95218  -0.94778  -0.91856  -0.91803  -0.91643
 Alpha  occ. eigenvalues --   -0.90275  -0.89826  -0.89695  -0.83829  -0.83549
 Alpha  occ. eigenvalues --   -0.82929  -0.81313  -0.80980  -0.80795  -0.79649
 Alpha  occ. eigenvalues --   -0.78886  -0.78512  -0.78151  -0.77970  -0.77924
 Alpha  occ. eigenvalues --   -0.73122  -0.72896  -0.72359  -0.72191  -0.72156
 Alpha  occ. eigenvalues --   -0.71826  -0.71365  -0.71302  -0.71102  -0.71028
 Alpha  occ. eigenvalues --   -0.71022  -0.70909  -0.68212  -0.67954  -0.67631
 Alpha  occ. eigenvalues --   -0.66463  -0.66012  -0.65986  -0.64514  -0.63159
 Alpha  occ. eigenvalues --   -0.62635  -0.60350  -0.59914  -0.59100  -0.57469
 Alpha  occ. eigenvalues --   -0.57240  -0.56899  -0.56781  -0.56772  -0.56398
 Alpha  occ. eigenvalues --   -0.56018  -0.54784  -0.54447  -0.54106  -0.53094
 Alpha  occ. eigenvalues --   -0.52885  -0.52504  -0.52278  -0.51413  -0.50969
 Alpha  occ. eigenvalues --   -0.50755  -0.50577  -0.50414  -0.50185  -0.50061
 Alpha  occ. eigenvalues --   -0.49872  -0.49458  -0.49400  -0.49245  -0.49002
 Alpha  occ. eigenvalues --   -0.48702  -0.48086  -0.47984  -0.47926  -0.47514
 Alpha  occ. eigenvalues --   -0.47438  -0.47264  -0.47111  -0.46745  -0.46429
 Alpha  occ. eigenvalues --   -0.46037  -0.45616  -0.45322  -0.45208  -0.45174
 Alpha  occ. eigenvalues --   -0.44838  -0.44631  -0.44491  -0.44200  -0.43600
 Alpha  occ. eigenvalues --   -0.43121  -0.42638  -0.42375  -0.42204  -0.42035
 Alpha  occ. eigenvalues --   -0.41865  -0.41570  -0.41412  -0.40923  -0.40597
 Alpha  occ. eigenvalues --   -0.40488  -0.39775  -0.39674  -0.39477  -0.39374
 Alpha  occ. eigenvalues --   -0.39268  -0.39188  -0.39091  -0.39042  -0.38984
 Alpha  occ. eigenvalues --   -0.38966  -0.38772  -0.38630  -0.38598  -0.38391
 Alpha  occ. eigenvalues --   -0.38317  -0.38151  -0.37844  -0.37661  -0.37306
 Alpha  occ. eigenvalues --   -0.37198  -0.37043  -0.36977  -0.36912  -0.36865
 Alpha  occ. eigenvalues --   -0.36693  -0.36630  -0.36425  -0.35983  -0.35670
 Alpha  occ. eigenvalues --   -0.35510  -0.34925  -0.34906  -0.34660  -0.34477
 Alpha  occ. eigenvalues --   -0.34447  -0.33903  -0.33831  -0.33751  -0.33648
 Alpha  occ. eigenvalues --   -0.31191  -0.30659  -0.30249  -0.28207  -0.27490
 Alpha  occ. eigenvalues --   -0.27329  -0.27276  -0.27140  -0.27016  -0.26813
 Alpha  occ. eigenvalues --   -0.26675  -0.26392  -0.26270  -0.26201  -0.26084
 Alpha  occ. eigenvalues --   -0.25884  -0.25561  -0.25063  -0.24892  -0.24713
 Alpha  occ. eigenvalues --   -0.24605
 Alpha virt. eigenvalues --   -0.06903  -0.06667  -0.06450  -0.06243  -0.05232
 Alpha virt. eigenvalues --   -0.05099  -0.02645  -0.02097  -0.01719   0.03377
 Alpha virt. eigenvalues --    0.03905   0.04154   0.04299   0.04483   0.04868

 Mulliken charges:
               1
     1  C    0.365894
     2  C   -0.185093
     3  C   -0.385886
     4  C    0.373898
     5  H    0.123154
     6  C   -0.339300
     7  C    0.306381
     8  H    0.170449
     9  C   -0.325758
    10  C   -0.188573
    11  H    0.132930
    12  C   -0.169991
    13  H    0.088431
    14  H    0.086178
    15  H    0.119798
    16  C    0.363615
    17  C   -0.181440
    18  C   -0.352306
    19  C    0.349370
    20  H    0.133982
    21  C   -0.342520
    22  C    0.375663
    23  H    0.145481
    24  C   -0.357691
    25  C   -0.229475
    26  H    0.128755
    27  C   -0.149462
    28  H    0.111223
    29  H    0.089969
    30  H    0.102802
    31  C    0.344022
    32  C   -0.197476
    33  C   -0.392413
    34  C    0.410110
    35  H    0.126753
    36  C   -0.389407
    37  C    0.353752
    38  H    0.117619
    39  C   -0.291900
    40  C   -0.181165
    41  H    0.129647
    42  C   -0.179869
    43  H    0.103952
    44  H    0.090513
    45  H    0.100409
    46  C    0.154948
    47  C   -0.133091
    48  N   -0.550230
    49  N   -0.186794
    50  C    0.155036
    51  C   -0.136543
    52  N   -0.549671
    53  N   -0.191651
    54  C    0.146415
    55  C   -0.124924
    56  N   -0.535862
    57  C   -0.403627
    58  N   -0.193833
    59  C    0.204230
    60  C   -0.177729
    61  N   -0.196966
    62  N   -0.195057
    63  C   -0.400915
    64  C   -0.126101
    65  C    0.183229
    66  N   -0.188006
    67  N   -0.189395
    68  C   -0.364184
    69  C   -0.090782
    70  C    0.147877
    71  N   -0.218549
    72  N   -0.198820
    73  C   -0.362520
    74  H    0.230354
    75  H    0.221531
    76  H    0.223364
    77  H    0.233772
    78  H    0.223953
    79  H    0.231639
    80  H    0.142596
    81  H    0.128963
    82  H    0.121851
    83  H    0.083977
    84  H    0.123381
    85  H    0.084434
    86  H    0.123886
    87  C   -0.386873
    88  H    0.119805
    89  H    0.126976
    90  H    0.133158
    91  H    0.137471
    92  H    0.112343
    93  C   -0.365698
    94  H    0.126884
    95  H    0.131589
    96  H    0.124300
    97  H    0.123958
    98  H    0.136010
    99  H    0.138528
   100  C   -0.372188
   101  C   -0.386972
   102  H    0.090456
   103  H    0.125159
   104  C   -0.429975
   105  H    0.140353
   106  H    0.136017
   107  H    0.143684
   108  H    0.128403
   109  H    0.121737
   110  H    0.128670
   111  H    0.122866
   112  H    0.128271
   113  H    0.127723
   114  C   -0.423058
   115  H    0.135459
   116  H    0.142005
   117  H    0.135131
   118  H    0.098851
   119  H    0.125754
   120  H    0.126075
   121  H    0.118454
   122  H    0.133597
   123  H    0.123368
   124  H    0.081681
   125  C   -0.372381
   126  C   -0.372961
   127  H    0.125287
   128  H    0.121939
   129  H    0.128288
   130  H    0.122349
   131  H    0.127315
   132  H    0.127706
   133  H    0.122840
   134  H    0.125560
   135  H    0.128879
 Sum of Mulliken charges =   0.00000

 Dipole moment (field-independent basis, Debye):
    X=             -1.0041    Y=              4.2365    Z=              1.2483  Tot=              4.5293
 Quadrupole moment (field-independent basis, Debye-Ang):
   XX=           -318.3736   YY=           -409.0694   ZZ=           -373.9097
   XY=             15.9661   XZ=             -3.2268   YZ=            -13.5899

 Normal termination of Gaussian 16 at Mon Oct 18 19:38:10 2021.
