 Gaussian 16, Revision C.01,
 Gaussian 16:  ES64L-G16RevC.01  3-Jul-2019

 ----------------------------------------------------------------------
 #P PBE1PBE/Def2TZVP SP SCF=(YQC,MaxCycle=900) int=(Grid=Superfinegrid)
  EmpiricalDispersion=GD3 SCRF=(PCM,Solvent=Chloroform)
 ----------------------------------------------------------------------

 -------------------------
 _3_alde1_5_ami3_1_opt_cfm
 -------------------------
 Symbolic Z-matrix:
 Charge =  0 Multiplicity = 1

                         Standard orientation:
 ---------------------------------------------------------------------
 Center     Atomic      Atomic             Coordinates (Angstroms)
 Number     Number       Type             X           Y           Z
 ---------------------------------------------------------------------
      1          6           0       -0.900568    0.020281   -2.792257
      2          6           0       -0.176461   -1.129426   -3.310537
      3          6           0       -0.297659    1.255068   -2.555796
      4          6           0       -1.044037    2.318226   -2.054122
      5          1           0        0.751861    1.371721   -2.778758
      6          6           0       -2.384635    2.121655   -1.722241
      7          6           0       -2.997456    0.895098   -1.946008
      8          1           0       -2.932516    2.953062   -1.305636
      9          6           0       -2.255239   -0.137957   -2.512940
     10          6           0       -4.373948    0.661484   -1.528568
     11          1           0       -2.752421   -1.076286   -2.701496
     12          6           0       -0.436610    3.629194   -1.874711
     13          1           0       -4.753427    1.349679   -0.756476
     14          1           0       -0.826837   -1.963262   -3.617141
     15          1           0        0.624480    3.705295   -2.152671
     16          6           0        2.840820    1.169554    0.453350
     17          6           0        3.740434    0.792637   -0.694216
     18          6           0        2.680609    0.326452    1.542970
     19          6           0        1.853295    0.684513    2.606298
     20          1           0        3.193626   -0.623871    1.552782
     21          6           0        1.153118    1.887510    2.553453
     22          6           0        1.309209    2.739718    1.468068
     23          1           0        0.496060    2.136599    3.372435
     24          6           0        2.171946    2.380277    0.432302
     25          6           0        0.521514    3.957228    1.342126
     26          1           0        2.290212    3.060593   -0.395488
     27          6           0        1.708937   -0.217841    3.736576
     28          1           0       -0.380736    4.016229    1.971163
     29          1           0        2.227863   -1.184711    3.637434
     30          6           0       -0.513862   -2.840130    0.117777
     31          6           0        0.713986   -2.948626   -0.657267
     32          6           0       -1.749939   -2.986425   -0.508435
     33          6           0       -2.930230   -2.696727    0.167364
     34          1           0       -1.763701   -3.287712   -1.544373
     35          6           0       -2.872667   -2.300829    1.502753
     36          6           0       -1.650784   -2.218388    2.160204
     37          1           0       -3.795842   -2.062067    2.008251
     38          6           0       -0.473637   -2.473220    1.458076
     39          6           0       -1.587097   -1.781732    3.549546
     40          1           0        0.467647   -2.356454    1.971972
     41          6           0       -4.181754   -2.689901   -0.571454
     42          1           0       -2.434458   -1.168561    3.895507
     43          1           0       -4.111580   -3.043863   -1.611555
     44          6           0        1.932317   -3.359672   -2.591669
     45          6           0        1.604255   -2.487727   -3.831328
     46          7           0        0.739485   -3.459001   -1.811688
     47          1           0        2.743586   -2.876256   -2.021244
     48          6           0        2.396386   -4.734257   -3.074912
     49          7           0        1.081117   -1.223905   -3.394830
     50          1           0        0.847514   -3.041551   -4.414865
     51          6           0        2.865837   -2.313091   -4.671129
     52          1           0        1.584887   -5.205432   -3.632011
     53          6           0        3.636043   -4.597813   -3.953875
     54          1           0        3.628710   -1.811073   -4.073168
     55          6           0        3.370774   -3.674232   -5.140369
     56          1           0        3.939663   -5.583051   -4.313658
     57          1           0        4.456849   -4.193300   -3.357770
     58          1           0        4.285493   -3.548745   -5.723594
     59          1           0        2.620040   -4.128652   -5.791090
     60          6           0        5.223841   -1.016110   -0.701597
     61          6           0        5.949870    0.287910   -1.074378
     62          7           0        3.816452   -0.676732   -0.864133
     63          1           0        5.386285   -1.205754    0.371846
     64          6           0        5.797282   -2.177503   -1.488211
     65          7           0        5.100320    1.314449   -0.490779
     66          1           0        5.891837    0.422720   -2.164538
     67          6           0        7.404753    0.219645   -0.659402
     68          1           0        5.673529   -1.998237   -2.559683
     69          6           0        7.286655   -2.277387   -1.141780
     70          1           0        7.477091    0.072331    0.421077
     71          6           0        8.035138   -0.965688   -1.398453
     72          1           0        7.746692   -3.074508   -1.729209
     73          1           0        7.384254   -2.544081   -0.086615
     74          1           0        9.075521   -1.080676   -1.088663
     75          1           0        8.029052   -0.754532   -2.470389
     76          6           0       -0.425398    5.864817   -1.232431
     77          6           0       -0.047072    5.951620    0.267951
     78          7           0       -1.093792    4.618356   -1.445923
     79          1           0        0.516806    5.923046   -1.804932
     80          6           0       -1.342446    7.028194   -1.600815
     81          7           0        0.834036    4.858816    0.518712
     82          1           0       -0.972825    5.884942    0.868496
     83          6           0        0.651286    7.284752    0.536115
     84          1           0       -2.263670    6.941831   -1.022233
     85          6           0       -0.659148    8.360515   -1.313307
     86          1           0        1.575432    7.316303   -0.043409
     87          6           0       -0.254059    8.450767    0.154996
     88          1           0       -1.332823    9.182039   -1.565142
     89          1           0        0.231002    8.452614   -1.940073
     90          1           0        0.264277    9.393470    0.341688
     91          1           0       -1.150545    8.431494    0.779376
     92          6           0       -6.351953   -0.563974   -1.415543
     93          6           0       -6.359273   -2.055010   -0.995421
     94          7           0       -5.067907   -0.288552   -1.981068
     95          1           0       -6.537473    0.053285   -0.517849
     96          6           0       -7.473303   -0.330888   -2.428550
     97          7           0       -5.260857   -2.237365   -0.097493
     98          1           0       -6.229581   -2.653184   -1.915350
     99          6           0       -7.694957   -2.388786   -0.340013
    100          1           0       -7.286880   -0.945991   -3.310568
    101          6           0       -8.820764   -0.684941   -1.806797
    102          1           0       -7.813610   -1.772962    0.552981
    103          6           0       -8.835632   -2.132011   -1.320269
    104          1           0       -9.614345   -0.532359   -2.541063
    105          1           0       -9.012901   -0.018412   -0.962559
    106          1           0       -9.791360   -2.351087   -0.839947
    107          1           0       -8.730464   -2.801683   -2.177173
    108          6           0        0.875335   -0.925401    5.778652
    109          6           0       -0.536839   -1.530793    5.615864
    110          7           0        1.038110    0.071408    4.765736
    111          1           0        1.599973   -1.750207    5.651669
    112          6           0        1.012625   -0.319289    7.172821
    113          7           0       -0.613788   -2.071105    4.294507
    114          1           0       -1.285507   -0.733461    5.772544
    115          6           0       -0.736405   -2.623855    6.667490
    116          1           0        0.281234    0.483406    7.279444
    117          6           0        0.788191   -1.388757    8.236954
    118          1           0       -0.000657   -3.412303    6.499537
    119          6           0       -0.581188   -2.041534    8.068684
    120          1           0        0.866940   -0.942642    9.230461
    121          1           0        1.564949   -2.152160    8.150042
    122          1           0       -0.709836   -2.832504    8.810312
    123          1           0       -1.360562   -1.294526    8.236561
    124          1           0        1.605997   -2.498637   -0.196829
    125          1           0        5.289417    1.391019    0.506135
    126          1           0        3.348194    1.250081   -1.614031
    127          1           0        3.479519   -0.924438   -1.788380
    128          1           0        2.615503   -5.360605   -2.207522
    129          1           0        2.640103   -1.675544   -5.528153
    130          1           0        5.290203   -3.110479   -1.232563
    131          1           0        7.924716    1.144414   -0.913049
    132          1           0       -1.602590    6.954028   -2.658603
    133          1           0        0.916048    7.338530    1.594392
    134          1           0       -7.461713    0.716135   -2.739443
    135          1           0       -7.690221   -3.435142   -0.028732
    136          1           0        2.007784    0.117574    7.276616
    137          1           0       -1.730619   -3.059226    6.544176
 ---------------------------------------------------------------------

 SCF Done:  E(RPBE1PBE) =  -2759.54520207     a.u. after    7 cycles
 SCF Done:  E(RPBE1PBE) =  -2759.54523492     A.U. after    8 cycles

 The electronic state is 1-A.
 Alpha  occ. eigenvalues --  -14.37813 -14.37733 -14.37726 -14.37569 -14.37460
 Alpha  occ. eigenvalues --  -14.37450 -14.37393 -14.37285 -14.37215 -14.36733
 Alpha  occ. eigenvalues --  -10.27749 -10.26686 -10.26568 -10.26537 -10.26404
 Alpha  occ. eigenvalues --  -10.26363 -10.26354 -10.26345 -10.26180 -10.25168
 Alpha  occ. eigenvalues --  -10.25149 -10.25111 -10.25040 -10.25031 -10.24912
 Alpha  occ. eigenvalues --  -10.24857 -10.24758 -10.24368 -10.24297 -10.24291
 Alpha  occ. eigenvalues --  -10.24281 -10.24268 -10.24241 -10.24193 -10.24147
 Alpha  occ. eigenvalues --  -10.24010 -10.23856 -10.23784 -10.23755 -10.23750
 Alpha  occ. eigenvalues --  -10.23731 -10.23727 -10.23703 -10.23466 -10.23196
 Alpha  occ. eigenvalues --  -10.23079 -10.22799 -10.21958 -10.21793 -10.21744
 Alpha  occ. eigenvalues --  -10.21719 -10.21633 -10.21604 -10.21602 -10.21600
 Alpha  occ. eigenvalues --  -10.21508 -10.21474 -10.21437 -10.21429 -10.21398
 Alpha  occ. eigenvalues --  -10.21361 -10.21315 -10.21304 -10.21292 -10.21239
 Alpha  occ. eigenvalues --  -10.21232 -10.21191  -0.99218  -0.97892  -0.97741
 Alpha  occ. eigenvalues --   -0.97666  -0.97602  -0.95175  -0.94960  -0.94748
 Alpha  occ. eigenvalues --   -0.94696  -0.90448  -0.89693  -0.89579  -0.88067
 Alpha  occ. eigenvalues --   -0.85905  -0.85737  -0.85607  -0.85346  -0.84976
 Alpha  occ. eigenvalues --   -0.80938  -0.80919  -0.80785  -0.80726  -0.80425
 Alpha  occ. eigenvalues --   -0.80171  -0.76884  -0.76678  -0.76425  -0.76317
 Alpha  occ. eigenvalues --   -0.76202  -0.76124  -0.75503  -0.75254  -0.75216
 Alpha  occ. eigenvalues --   -0.74277  -0.68628  -0.68342  -0.68311  -0.67950
 Alpha  occ. eigenvalues --   -0.67269  -0.66957  -0.66571  -0.66180  -0.65555
 Alpha  occ. eigenvalues --   -0.62927  -0.62815  -0.62737  -0.62562  -0.62388
 Alpha  occ. eigenvalues --   -0.62298  -0.62124  -0.61589  -0.61037  -0.60469
 Alpha  occ. eigenvalues --   -0.59309  -0.58498  -0.58247  -0.58157  -0.58088
 Alpha  occ. eigenvalues --   -0.57200  -0.56258  -0.56164  -0.55978  -0.55843
 Alpha  occ. eigenvalues --   -0.55720  -0.53869  -0.53235  -0.53205  -0.52706
 Alpha  occ. eigenvalues --   -0.52509  -0.52432  -0.51399  -0.51148  -0.50848
 Alpha  occ. eigenvalues --   -0.50522  -0.50101  -0.49593  -0.49567  -0.49195
 Alpha  occ. eigenvalues --   -0.48969  -0.48210  -0.47984  -0.47676  -0.47520
 Alpha  occ. eigenvalues --   -0.47384  -0.47345  -0.47261  -0.47174  -0.47053
 Alpha  occ. eigenvalues --   -0.46274  -0.46065  -0.45788  -0.45406  -0.45042
 Alpha  occ. eigenvalues --   -0.44803  -0.44610  -0.44475  -0.44358  -0.44065
 Alpha  occ. eigenvalues --   -0.43937  -0.43831  -0.43642  -0.43474  -0.43436
 Alpha  occ. eigenvalues --   -0.43061  -0.42193  -0.42150  -0.42093  -0.42003
 Alpha  occ. eigenvalues --   -0.41501  -0.41397  -0.41328  -0.40915  -0.40463
 Alpha  occ. eigenvalues --   -0.40198  -0.40031  -0.39876  -0.39802  -0.39665
 Alpha  occ. eigenvalues --   -0.38573  -0.38366  -0.38217  -0.37898  -0.37777
 Alpha  occ. eigenvalues --   -0.37241  -0.37094  -0.36735  -0.36596  -0.36437
 Alpha  occ. eigenvalues --   -0.36248  -0.36130  -0.36090  -0.36027  -0.36005
 Alpha  occ. eigenvalues --   -0.35844  -0.35737  -0.35626  -0.35501  -0.35386
 Alpha  occ. eigenvalues --   -0.35373  -0.34900  -0.34221  -0.34132  -0.34008
 Alpha  occ. eigenvalues --   -0.33925  -0.33731  -0.33579  -0.33573  -0.33478
 Alpha  occ. eigenvalues --   -0.33152  -0.32450  -0.32321  -0.32080  -0.31976
 Alpha  occ. eigenvalues --   -0.31804  -0.31678  -0.30458  -0.29937  -0.29183
 Alpha  occ. eigenvalues --   -0.27769  -0.27478  -0.27382  -0.27315  -0.27169
 Alpha  occ. eigenvalues --   -0.26950  -0.26901  -0.26767  -0.26241  -0.25862
 Alpha  occ. eigenvalues --   -0.25721  -0.25461  -0.25371  -0.25237  -0.24791
 Alpha  occ. eigenvalues --   -0.23947
 Alpha virt. eigenvalues --   -0.06384  -0.06241  -0.05612  -0.05239  -0.05202
 Alpha virt. eigenvalues --   -0.04109  -0.02380  -0.01224   0.02059   0.03494
 Alpha virt. eigenvalues --    0.03837   0.04391   0.04471   0.04827   0.05025

 Mulliken charges:
               1
     1  C    0.356387
     2  C   -0.189523
     3  C   -0.374590
     4  C    0.378020
     5  H    0.131329
     6  C   -0.359815
     7  C    0.317253
     8  H    0.123489
     9  C   -0.274506
    10  C   -0.170096
    11  H    0.125740
    12  C   -0.177810
    13  H    0.084851
    14  H    0.100458
    15  H    0.096757
    16  C    0.289724
    17  C   -0.037519
    18  C   -0.308187
    19  C    0.375845
    20  H    0.141915
    21  C   -0.391423
    22  C    0.385822
    23  H    0.116200
    24  C   -0.448976
    25  C   -0.166192
    26  H    0.123625
    27  C   -0.192462
    28  H    0.085495
    29  H    0.086738
    30  C    0.320839
    31  C   -0.147474
    32  C   -0.324295
    33  C    0.374567
    34  H    0.133826
    35  C   -0.393729
    36  C    0.367683
    37  H    0.121045
    38  C   -0.332321
    39  C   -0.169343
    40  H    0.121607
    41  C   -0.167106
    42  H    0.086411
    43  H    0.094697
    44  C    0.021247
    45  C    0.061559
    46  N   -0.207113
    47  H    0.045217
    48  C   -0.197686
    49  N   -0.218769
    50  H    0.068564
    51  C   -0.182403
    52  H    0.105079
    53  C   -0.179680
    54  H    0.104781
    55  C   -0.186708
    56  H    0.110772
    57  H    0.096330
    58  H    0.111891
    59  H    0.095133
    60  C   -0.056076
    61  C   -0.052950
    62  N   -0.270024
    63  H    0.058490
    64  C   -0.216316
    65  N   -0.282200
    66  H    0.060047
    67  C   -0.148098
    68  H    0.100318
    69  C   -0.174926
    70  H    0.096633
    71  C   -0.201623
    72  H    0.116018
    73  H    0.100533
    74  H    0.115370
    75  H    0.100377
    76  C    0.027950
    77  C    0.024556
    78  N   -0.197544
    79  H    0.060936
    80  C   -0.165664
    81  N   -0.196016
    82  H    0.053348
    83  C   -0.193358
    84  H    0.099428
    85  C   -0.188175
    86  H    0.105256
    87  C   -0.179889
    88  H    0.111940
    89  H    0.092905
    90  H    0.112509
    91  H    0.092209
    92  C    0.021607
    93  C    0.050792
    94  N   -0.196385
    95  H    0.055183
    96  C   -0.194648
    97  N   -0.201026
    98  H    0.058514
    99  C   -0.173834
   100  H    0.104934
   101  C   -0.179315
   102  H    0.100680
   103  C   -0.193602
   104  H    0.112997
   105  H    0.093473
   106  H    0.112564
   107  H    0.093982
   108  C    0.065470
   109  C    0.016728
   110  N   -0.196219
   111  H    0.052333
   112  C   -0.173595
   113  N   -0.195413
   114  H    0.055796
   115  C   -0.196881
   116  H    0.100103
   117  C   -0.189942
   118  H    0.104681
   119  C   -0.177769
   120  H    0.112307
   121  H    0.092726
   122  H    0.112630
   123  H    0.093009
   124  H    0.106716
   125  H    0.203516
   126  H    0.091542
   127  H    0.178224
   128  H    0.110423
   129  H    0.108806
   130  H    0.117574
   131  H    0.110700
   132  H    0.108467
   133  H    0.111057
   134  H    0.112470
   135  H    0.108761
   136  H    0.108439
   137  H    0.112294
 Sum of Mulliken charges =   0.00000

 Dipole moment (field-independent basis, Debye):
    X=              1.2641    Y=             -1.1076    Z=             -0.2690  Tot=              1.7021
 Quadrupole moment (field-independent basis, Debye-Ang):
   XX=           -360.8245   YY=           -394.0903   ZZ=           -382.0260
   XY=            -18.3421   XZ=             -7.7514   YZ=              6.4954

 Normal termination of Gaussian 16 at Sun Oct 17 23:05:14 2021.
