 Gaussian 16, Revision C.01,
 Gaussian 16:  ES64L-G16RevC.01  3-Jul-2019

 ----------------------------------------------------------------------
 #P MP2/aug-cc-pVDZ SP SCF=(YQC,MaxCycle=900) int=(Grid=Superfinegrid)
 SCRF=(PCM,Solvent=Dichloromethane)
 ----------------------------------------------------------------------

 -----------------------------
 _3_alde1_5_ami3_1_opt_dcm_mp2
 -----------------------------
 Symbolic Z-matrix:
 Charge =  0 Multiplicity = 1

                         Standard orientation:
 ---------------------------------------------------------------------
 Center     Atomic      Atomic             Coordinates (Angstroms)
 Number     Number       Type             X           Y           Z
 ---------------------------------------------------------------------
      1          6           0       -0.900568    0.020281   -2.792257
      2          6           0       -0.176461   -1.129426   -3.310537
      3          6           0       -0.297659    1.255068   -2.555796
      4          6           0       -1.044037    2.318226   -2.054122
      5          1           0        0.751861    1.371721   -2.778758
      6          6           0       -2.384635    2.121655   -1.722241
      7          6           0       -2.997456    0.895098   -1.946008
      8          1           0       -2.932516    2.953062   -1.305636
      9          6           0       -2.255239   -0.137957   -2.512940
     10          6           0       -4.373948    0.661484   -1.528568
     11          1           0       -2.752421   -1.076286   -2.701496
     12          6           0       -0.436610    3.629194   -1.874711
     13          1           0       -4.753427    1.349679   -0.756476
     14          1           0       -0.826837   -1.963262   -3.617141
     15          1           0        0.624480    3.705295   -2.152671
     16          6           0        2.840820    1.169554    0.453350
     17          6           0        3.740434    0.792637   -0.694216
     18          6           0        2.680609    0.326452    1.542970
     19          6           0        1.853295    0.684513    2.606298
     20          1           0        3.193626   -0.623871    1.552782
     21          6           0        1.153118    1.887510    2.553453
     22          6           0        1.309209    2.739718    1.468068
     23          1           0        0.496060    2.136599    3.372435
     24          6           0        2.171946    2.380277    0.432302
     25          6           0        0.521514    3.957228    1.342126
     26          1           0        2.290212    3.060593   -0.395488
     27          6           0        1.708937   -0.217841    3.736576
     28          1           0       -0.380736    4.016229    1.971163
     29          1           0        2.227863   -1.184711    3.637434
     30          6           0       -0.513862   -2.840130    0.117777
     31          6           0        0.713986   -2.948626   -0.657267
     32          6           0       -1.749939   -2.986425   -0.508435
     33          6           0       -2.930230   -2.696727    0.167364
     34          1           0       -1.763701   -3.287712   -1.544373
     35          6           0       -2.872667   -2.300829    1.502753
     36          6           0       -1.650784   -2.218388    2.160204
     37          1           0       -3.795842   -2.062067    2.008251
     38          6           0       -0.473637   -2.473220    1.458076
     39          6           0       -1.587097   -1.781732    3.549546
     40          1           0        0.467647   -2.356454    1.971972
     41          6           0       -4.181754   -2.689901   -0.571454
     42          1           0       -2.434458   -1.168561    3.895507
     43          1           0       -4.111580   -3.043863   -1.611555
     44          6           0        1.932317   -3.359672   -2.591669
     45          6           0        1.604255   -2.487727   -3.831328
     46          7           0        0.739485   -3.459001   -1.811688
     47          1           0        2.743586   -2.876256   -2.021244
     48          6           0        2.396386   -4.734257   -3.074912
     49          7           0        1.081117   -1.223905   -3.394830
     50          1           0        0.847514   -3.041551   -4.414865
     51          6           0        2.865837   -2.313091   -4.671129
     52          1           0        1.584887   -5.205432   -3.632011
     53          6           0        3.636043   -4.597813   -3.953875
     54          1           0        3.628710   -1.811073   -4.073168
     55          6           0        3.370774   -3.674232   -5.140369
     56          1           0        3.939663   -5.583051   -4.313658
     57          1           0        4.456849   -4.193300   -3.357770
     58          1           0        4.285493   -3.548745   -5.723594
     59          1           0        2.620040   -4.128652   -5.791090
     60          6           0        5.223841   -1.016110   -0.701597
     61          6           0        5.949870    0.287910   -1.074378
     62          7           0        3.816452   -0.676732   -0.864133
     63          1           0        5.386285   -1.205754    0.371846
     64          6           0        5.797282   -2.177503   -1.488211
     65          7           0        5.100320    1.314449   -0.490779
     66          1           0        5.891837    0.422720   -2.164538
     67          6           0        7.404753    0.219645   -0.659402
     68          1           0        5.673529   -1.998237   -2.559683
     69          6           0        7.286655   -2.277387   -1.141780
     70          1           0        7.477091    0.072331    0.421077
     71          6           0        8.035138   -0.965688   -1.398453
     72          1           0        7.746692   -3.074508   -1.729209
     73          1           0        7.384254   -2.544081   -0.086615
     74          1           0        9.075521   -1.080676   -1.088663
     75          1           0        8.029052   -0.754532   -2.470389
     76          6           0       -0.425398    5.864817   -1.232431
     77          6           0       -0.047072    5.951620    0.267951
     78          7           0       -1.093792    4.618356   -1.445923
     79          1           0        0.516806    5.923046   -1.804932
     80          6           0       -1.342446    7.028194   -1.600815
     81          7           0        0.834036    4.858816    0.518712
     82          1           0       -0.972825    5.884942    0.868496
     83          6           0        0.651286    7.284752    0.536115
     84          1           0       -2.263670    6.941831   -1.022233
     85          6           0       -0.659148    8.360515   -1.313307
     86          1           0        1.575432    7.316303   -0.043409
     87          6           0       -0.254059    8.450767    0.154996
     88          1           0       -1.332823    9.182039   -1.565142
     89          1           0        0.231002    8.452614   -1.940073
     90          1           0        0.264277    9.393470    0.341688
     91          1           0       -1.150545    8.431494    0.779376
     92          6           0       -6.351953   -0.563974   -1.415543
     93          6           0       -6.359273   -2.055010   -0.995421
     94          7           0       -5.067907   -0.288552   -1.981068
     95          1           0       -6.537473    0.053285   -0.517849
     96          6           0       -7.473303   -0.330888   -2.428550
     97          7           0       -5.260857   -2.237365   -0.097493
     98          1           0       -6.229581   -2.653184   -1.915350
     99          6           0       -7.694957   -2.388786   -0.340013
    100          1           0       -7.286880   -0.945991   -3.310568
    101          6           0       -8.820764   -0.684941   -1.806797
    102          1           0       -7.813610   -1.772962    0.552981
    103          6           0       -8.835632   -2.132011   -1.320269
    104          1           0       -9.614345   -0.532359   -2.541063
    105          1           0       -9.012901   -0.018412   -0.962559
    106          1           0       -9.791360   -2.351087   -0.839947
    107          1           0       -8.730464   -2.801683   -2.177173
    108          6           0        0.875335   -0.925401    5.778652
    109          6           0       -0.536839   -1.530793    5.615864
    110          7           0        1.038110    0.071408    4.765736
    111          1           0        1.599973   -1.750207    5.651669
    112          6           0        1.012625   -0.319289    7.172821
    113          7           0       -0.613788   -2.071105    4.294507
    114          1           0       -1.285507   -0.733461    5.772544
    115          6           0       -0.736405   -2.623855    6.667490
    116          1           0        0.281234    0.483406    7.279444
    117          6           0        0.788191   -1.388757    8.236954
    118          1           0       -0.000657   -3.412303    6.499537
    119          6           0       -0.581188   -2.041534    8.068684
    120          1           0        0.866940   -0.942642    9.230461
    121          1           0        1.564949   -2.152160    8.150042
    122          1           0       -0.709836   -2.832504    8.810312
    123          1           0       -1.360562   -1.294526    8.236561
    124          1           0        1.605997   -2.498637   -0.196829
    125          1           0        5.289417    1.391019    0.506135
    126          1           0        3.348194    1.250081   -1.614031
    127          1           0        3.479519   -0.924438   -1.788380
    128          1           0        2.615503   -5.360605   -2.207522
    129          1           0        2.640103   -1.675544   -5.528153
    130          1           0        5.290203   -3.110479   -1.232563
    131          1           0        7.924716    1.144414   -0.913049
    132          1           0       -1.602590    6.954028   -2.658603
    133          1           0        0.916048    7.338530    1.594392
    134          1           0       -7.461713    0.716135   -2.739443
    135          1           0       -7.690221   -3.435142   -0.028732
    136          1           0        2.007784    0.117574    7.276616
    137          1           0       -1.730619   -3.059226    6.544176
 ---------------------------------------------------------------------

 SCF Done:  E(RHF) =  -2744.02760993     a.u. after    7 cycles
 SCF Done:  E(RHF) =  -2744.02765793     A.U. after   28 cycles
 E2 =    -0.9747413070D+01 EUMP2 =    -0.27537750709965D+04

 The electronic state is 1-A.
 Alpha  occ. eigenvalues --  -15.56142 -15.56120 -15.55984 -15.55896 -15.55817
 Alpha  occ. eigenvalues --  -15.55754 -15.55750 -15.55697 -15.55410 -15.54664
 Alpha  occ. eigenvalues --  -11.29022 -11.28666 -11.28610 -11.28562 -11.28468
 Alpha  occ. eigenvalues --  -11.28467 -11.28403 -11.28374 -11.28294 -11.25615
 Alpha  occ. eigenvalues --  -11.25582 -11.25562 -11.25529 -11.25525 -11.25500
 Alpha  occ. eigenvalues --  -11.25416 -11.25394 -11.25352 -11.25340 -11.25306
 Alpha  occ. eigenvalues --  -11.25306 -11.25296 -11.25265 -11.25165 -11.25110
 Alpha  occ. eigenvalues --  -11.25109 -11.25068 -11.25037 -11.24996 -11.24881
 Alpha  occ. eigenvalues --  -11.24817 -11.24669 -11.24632 -11.24480 -11.24415
 Alpha  occ. eigenvalues --  -11.24249 -11.24059 -11.22430 -11.22341 -11.22296
 Alpha  occ. eigenvalues --  -11.22246 -11.22055 -11.22055 -11.22045 -11.22025
 Alpha  occ. eigenvalues --  -11.21985 -11.21958 -11.21930 -11.21915 -11.21905
 Alpha  occ. eigenvalues --  -11.21896 -11.21861 -11.21837 -11.21812 -11.21780
 Alpha  occ. eigenvalues --  -11.21763 -11.21703  -1.27900  -1.26761  -1.26534
 Alpha  occ. eigenvalues --   -1.26505  -1.26457  -1.23723  -1.23492  -1.23169
 Alpha  occ. eigenvalues --   -1.23123  -1.17853  -1.16958  -1.16859  -1.14817
 Alpha  occ. eigenvalues --   -1.11791  -1.11623  -1.11502  -1.11121  -1.10701
 Alpha  occ. eigenvalues --   -1.06069  -1.06016  -1.05902  -1.05875  -1.05510
 Alpha  occ. eigenvalues --   -1.05182  -1.00771  -1.00550  -1.00218  -1.00176
 Alpha  occ. eigenvalues --   -1.00062  -0.99984  -0.99205  -0.98937  -0.98895
 Alpha  occ. eigenvalues --   -0.97799  -0.90355  -0.90011  -0.89928  -0.89328
 Alpha  occ. eigenvalues --   -0.88653  -0.88317  -0.87699  -0.87136  -0.86292
 Alpha  occ. eigenvalues --   -0.83129  -0.83007  -0.82877  -0.82741  -0.82372
 Alpha  occ. eigenvalues --   -0.82267  -0.81977  -0.81326  -0.80651  -0.79975
 Alpha  occ. eigenvalues --   -0.78112  -0.77188  -0.76892  -0.76811  -0.76722
 Alpha  occ. eigenvalues --   -0.75878  -0.75062  -0.74941  -0.74604  -0.74407
 Alpha  occ. eigenvalues --   -0.74267  -0.70754  -0.70337  -0.70173  -0.69510
 Alpha  occ. eigenvalues --   -0.69016  -0.68891  -0.67218  -0.67088  -0.66909
 Alpha  occ. eigenvalues --   -0.66505  -0.66180  -0.65798  -0.65680  -0.65591
 Alpha  occ. eigenvalues --   -0.65203  -0.64153  -0.63218  -0.62953  -0.62765
 Alpha  occ. eigenvalues --   -0.62727  -0.62607  -0.62592  -0.62444  -0.62357
 Alpha  occ. eigenvalues --   -0.61417  -0.61160  -0.60653  -0.60381  -0.60103
 Alpha  occ. eigenvalues --   -0.59742  -0.59583  -0.59209  -0.59152  -0.59024
 Alpha  occ. eigenvalues --   -0.58916  -0.58566  -0.57798  -0.57590  -0.57507
 Alpha  occ. eigenvalues --   -0.57115  -0.56193  -0.56160  -0.55971  -0.55947
 Alpha  occ. eigenvalues --   -0.55627  -0.55053  -0.54150  -0.54060  -0.53970
 Alpha  occ. eigenvalues --   -0.53755  -0.53633  -0.53508  -0.53345  -0.52783
 Alpha  occ. eigenvalues --   -0.52514  -0.52365  -0.52064  -0.51831  -0.51467
 Alpha  occ. eigenvalues --   -0.51066  -0.50129  -0.49666  -0.49359  -0.49213
 Alpha  occ. eigenvalues --   -0.49074  -0.48922  -0.48843  -0.48757  -0.48571
 Alpha  occ. eigenvalues --   -0.48457  -0.47650  -0.47374  -0.47178  -0.47120
 Alpha  occ. eigenvalues --   -0.47005  -0.46859  -0.46804  -0.46514  -0.46408
 Alpha  occ. eigenvalues --   -0.46325  -0.46229  -0.45626  -0.45507  -0.45352
 Alpha  occ. eigenvalues --   -0.45011  -0.44674  -0.43737  -0.43442  -0.43034
 Alpha  occ. eigenvalues --   -0.42774  -0.42521  -0.41173  -0.40955  -0.40823
 Alpha  occ. eigenvalues --   -0.40783  -0.40640  -0.40566  -0.40257  -0.40021
 Alpha  occ. eigenvalues --   -0.39726  -0.39141  -0.38757  -0.38092  -0.37161
 Alpha  occ. eigenvalues --   -0.32951  -0.32763  -0.32525  -0.32337  -0.31975
 Alpha  occ. eigenvalues --   -0.31724
 Alpha virt. eigenvalues --    0.03142   0.03390   0.03507   0.03580   0.03845
 Alpha virt. eigenvalues --    0.03881   0.03917   0.04157   0.04180   0.04503
 Alpha virt. eigenvalues --    0.04558   0.04841   0.04905   0.05002   0.05105

 Mulliken charges:
               1
     1  C    2.050481
     2  C    0.304804
     3  C    0.047403
     4  C    1.683409
     5  H   -1.005808
     6  C   -0.268127
     7  C    1.513656
     8  H   -0.896265
     9  C   -0.017273
    10  C    0.434214
    11  H   -1.127212
    12  C    0.548511
    13  H   -0.786194
    14  H   -0.752958
    15  H   -0.774716
    16  C    1.469779
    17  C    1.032416
    18  C    0.536124
    19  C    1.706996
    20  H   -1.341009
    21  C    0.055887
    22  C    0.919788
    23  H   -0.895841
    24  C   -0.025485
    25  C    0.367514
    26  H   -1.188618
    27  C    0.495207
    28  H   -0.834107
    29  H   -0.709890
    30  C    1.121024
    31  C    0.829548
    32  C    0.435290
    33  C    1.515463
    34  H   -1.053748
    35  C   -0.010837
    36  C    0.928696
    37  H   -0.866204
    38  C    0.755709
    39  C    0.233131
    40  H   -0.808001
    41  C    0.398068
    42  H   -0.724552
    43  H   -0.722125
    44  C   -0.396092
    45  C    0.139770
    46  N   -0.546909
    47  H   -0.576273
    48  C    0.795679
    49  N   -0.554991
    50  H   -0.354004
    51  C    0.812653
    52  H   -0.133254
    53  C    0.736955
    54  H   -0.170707
    55  C    0.514702
    56  H   -0.178247
    57  H   -0.125436
    58  H   -0.195406
    59  H   -0.108970
    60  C   -0.309915
    61  C   -0.167885
    62  N   -0.249028
    63  H   -0.567422
    64  C    1.137495
    65  N   -0.865788
    66  H   -0.448029
    67  C    0.839797
    68  H   -0.144102
    69  C    0.317519
    70  H   -0.001322
    71  C    0.552271
    72  H   -0.153615
    73  H   -0.081221
    74  H   -0.167054
    75  H   -0.099563
    76  C   -0.351496
    77  C   -0.253738
    78  N   -0.497110
    79  H   -0.400379
    80  C    0.960144
    81  N   -0.340488
    82  H   -0.325740
    83  C    0.911588
    84  H   -0.145137
    85  C    0.540845
    86  H   -0.139503
    87  C    0.584783
    88  H   -0.145628
    89  H   -0.081682
    90  H   -0.142656
    91  H   -0.085438
    92  C   -0.456681
    93  C   -0.017220
    94  N   -0.441561
    95  H   -0.285034
    96  C    0.788171
    97  N   -0.671100
    98  H   -0.362836
    99  C    0.804029
   100  H   -0.125271
   101  C    0.524107
   102  H   -0.106510
   103  C    0.534772
   104  H   -0.140060
   105  H   -0.079485
   106  H   -0.145245
   107  H   -0.080864
   108  C   -0.153885
   109  C   -0.199652
   110  N   -0.567713
   111  H   -0.374176
   112  C    0.903495
   113  N   -0.445608
   114  H   -0.284175
   115  C    0.791411
   116  H   -0.141406
   117  C    0.540495
   118  H   -0.118401
   119  C    0.559889
   120  H   -0.143270
   121  H   -0.084017
   122  H   -0.142382
   123  H   -0.088888
   124  H   -0.961922
   125  H    0.150045
   126  H   -0.491078
   127  H    0.059078
   128  H   -0.259073
   129  H   -0.328848
   130  H   -0.422555
   131  H   -0.120284
   132  H   -0.213666
   133  H   -0.231130
   134  H   -0.226077
   135  H   -0.209309
   136  H   -0.224650
   137  H   -0.225581
 Sum of Mulliken charges =   0.00000

 Dipole moment (field-independent basis, Debye):
    X=              1.3265    Y=             -1.4454    Z=             -0.2952  Tot=              1.9839
 Quadrupole moment (field-independent basis, Debye-Ang):
   XX=           -371.0351   YY=           -407.1303   ZZ=           -392.4735
   XY=            -20.5647   XZ=             -8.5763   YZ=              7.7855

 Normal termination of Gaussian 16 at Sun Nov 14 12:34:23 2021.
