 Gaussian 16, Revision C.01,
 Gaussian 16:  ES64L-G16RevC.01  3-Jul-2019

 ----------------------------------------------------------------------
 #P MP2/aug-cc-pVDZ SP SCF=(YQC,MaxCycle=900) int=(Grid=Superfinegrid)
 SCRF=(PCM,Solvent=Dichloromethane)
 ----------------------------------------------------------------------

 -----------------------------
 _3_alde1_6_ami4_1_opt_dcm_mp2
 -----------------------------
 Symbolic Z-matrix:
 Charge =  0 Multiplicity = 1

                         Standard orientation:
 ---------------------------------------------------------------------
 Center     Atomic      Atomic             Coordinates (Angstroms)
 Number     Number       Type             X           Y           Z
 ---------------------------------------------------------------------
      1          6           0        3.132171   -1.426707    0.124162
      2          6           0        3.625467   -1.639482    1.534442
      3          6           0        2.343948   -2.395943   -0.484875
      4          6           0        1.911024   -2.237381   -1.800179
      5          1           0        2.084222   -3.287431    0.068679
      6          6           0        2.251850   -1.078837   -2.495289
      7          6           0        3.043535   -0.108129   -1.896840
      8          1           0        1.903756   -0.969786   -3.510729
      9          6           0        3.486521   -0.293885   -0.586509
     10          6           0        3.392488    1.105726   -2.621140
     11          1           0        4.100416    0.461471   -0.125720
     12          6           0        1.128252   -3.280029   -2.446898
     13          1           0        2.749172    1.352069   -3.480616
     14          1           0        0.803092   -4.108558   -1.797601
     15          6           0       -2.606347   -1.789614    0.569552
     16          6           0       -2.151239   -2.574723    1.772665
     17          6           0       -3.270208   -0.579117    0.695238
     18          6           0       -3.664751    0.132839   -0.437627
     19          1           0       -3.484081   -0.179032    1.676289
     20          6           0       -3.343078   -0.355701   -1.701670
     21          6           0       -2.666777   -1.561700   -1.835572
     22          1           0       -3.640391    0.218993   -2.565419
     23          6           0       -2.318938   -2.280483   -0.692924
     24          6           0       -2.260799   -2.062007   -3.141455
     25          1           0       -1.821407   -3.229304   -0.811666
     26          6           0       -4.392123    1.381717   -0.281712
     27          1           0       -2.277615   -1.333877   -3.967044
     28          1           0       -4.524543    1.724183    0.755547
     29          6           0       -0.101212    2.402689    1.793514
     30          6           0       -0.279768    1.743093    3.135947
     31          6           0        1.183421    2.579341    1.294139
     32          6           0        1.389059    3.219202    0.074224
     33          1           0        2.029804    2.217816    1.859863
     34          6           0        0.290077    3.652984   -0.664126
     35          6           0       -0.997189    3.474758   -0.176037
     36          1           0        0.467503    4.143514   -1.608991
     37          6           0       -1.184617    2.853009    1.060024
     38          6           0       -2.146854    3.902566   -0.960471
     39          1           0       -2.187147    2.718045    1.429697
     40          6           0        2.743313    3.437009   -0.408151
     41          1           0       -1.967417    4.027937   -2.040095
     42          1           0        3.541101    3.001181    0.210468
     43          6           0        3.587540   -0.292985    3.471498
     44          6           0        3.000631   -1.689399    3.737535
     45          7           0        4.168560   -0.402493    2.134533
     46          1           0        2.766355    0.431640    3.436952
     47          7           0        2.572380   -2.123710    2.417006
     48          1           0        3.776849   -2.375704    4.093570
     49          6           0       -0.315307   -3.696182    2.594672
     50          6           0       -1.214048   -4.746732    1.920302
     51          7           0       -0.710112   -2.444154    1.962424
     52          1           0        0.751948   -3.871060    2.480662
     53          7           0       -2.433063   -4.012541    1.594785
     54          1           0       -1.408552   -5.612959    2.552598
     55          6           0       -0.412450   -0.176329    4.357124
     56          6           0       -1.774186    0.543639    4.496280
     57          7           0        0.197968    0.371223    3.155626
     58          1           0       -0.506110   -1.255682    4.276732
     59          7           0       -1.682367    1.655453    3.554668
     60          1           0       -1.951218    0.864325    5.528893
     61          6           0        0.052487   -4.278273   -4.251425
     62          6           0       -1.347419   -3.699842   -4.536648
     63          7           0        0.865336   -3.251723   -3.680512
     64          1           0        0.507683   -4.590864   -5.194611
     65          7           0       -1.883598   -3.254657   -3.293337
     66          1           0       -1.980903   -4.503212   -4.923750
     67          6           0        4.594819    3.072630   -2.937718
     68          6           0        4.344236    4.191494   -1.903188
     69          7           0        4.370029    1.826477   -2.282876
     70          1           0        5.640134    3.119138   -3.253660
     71          7           0        2.989517    4.099459   -1.455464
     72          1           0        4.486012    5.161785   -2.383933
     73          6           0       -5.458708    3.300477   -1.012895
     74          6           0       -4.402532    4.397989   -1.263485
     75          7           0       -4.852461    2.029647   -1.263033
     76          1           0       -6.289830    3.435735   -1.708426
     77          7           0       -3.275268    4.107677   -0.438114
     78          1           0       -4.822881    5.360437   -0.959038
     79          1           0       -0.269378   -2.384336    1.046341
     80          1           0       -2.645400   -2.186094    2.679370
     81          1           0       -3.219184   -4.302521    2.160260
     82          1           0       -2.019352    2.528375    3.940027
     83          1           0       -0.177224   -0.123985    2.348293
     84          1           0        0.329779    2.299670    3.879711
     85          1           0        1.710708   -1.628513    2.196736
     86          1           0        5.179610   -0.442112    2.170875
     87          1           0        4.408018   -2.421378    1.502210
     88          1           0       -0.554514   -3.630001    3.661673
     89          1           0        4.321572    0.022055    4.213042
     90          1           0       -2.600500   -0.108489    4.193421
     91          1           0       -1.276310   -2.895038   -5.285658
     92          1           0        5.066245    4.066593   -1.082397
     93          1           0       -4.146754    4.430594   -2.334815
     94          1           0        2.167871   -1.685364    4.435582
     95          1           0        0.230449    0.070093    5.209048
     96          1           0       -0.058763   -5.146492   -3.582707
     97          1           0        3.934934    3.224204   -3.807222
     98          1           0       -5.815449    3.394680    0.024105
     99          1           0       -0.754485   -5.093448    0.986619
 ---------------------------------------------------------------------

 SCF Done:  E(RHF) =  -2158.34889315     a.u. after    6 cycles
 SCF Done:  E(RHF) =  -2158.34904054     A.U. after   13 cycles
 E2 =    -0.7513449271D+01 EUMP2 =    -0.21658624898067D+04

 The electronic state is 1-A.
 Alpha  occ. eigenvalues --  -15.56027 -15.56012 -15.56011 -15.55978 -15.55813
 Alpha  occ. eigenvalues --  -15.55714 -15.55705 -15.54935 -15.54711 -15.54583
 Alpha  occ. eigenvalues --  -15.54533 -15.54403 -11.29242 -11.28868 -11.28822
 Alpha  occ. eigenvalues --  -11.28499 -11.28458 -11.28439 -11.28410 -11.28323
 Alpha  occ. eigenvalues --  -11.28316 -11.25611 -11.25600 -11.25583 -11.25466
 Alpha  occ. eigenvalues --  -11.25399 -11.25398 -11.25019 -11.24848 -11.24838
 Alpha  occ. eigenvalues --  -11.24768 -11.24724 -11.24632 -11.24627 -11.24627
 Alpha  occ. eigenvalues --  -11.24612 -11.24607 -11.24571 -11.24557 -11.24524
 Alpha  occ. eigenvalues --  -11.24483 -11.24423 -11.24316 -11.24304 -11.24303
 Alpha  occ. eigenvalues --  -11.24293 -11.24279 -11.24101 -11.23981 -11.23844
 Alpha  occ. eigenvalues --  -11.23713  -1.27969  -1.27537  -1.27379  -1.26197
 Alpha  occ. eigenvalues --   -1.26081  -1.26015  -1.23390  -1.23200  -1.22918
 Alpha  occ. eigenvalues --   -1.17000  -1.16528  -1.16460  -1.14580  -1.13950
 Alpha  occ. eigenvalues --   -1.13872  -1.07015  -1.06959  -1.06508  -1.05668
 Alpha  occ. eigenvalues --   -1.05570  -1.04828  -1.01085  -0.99642  -0.99586
 Alpha  occ. eigenvalues --   -0.97997  -0.97642  -0.97550  -0.91162  -0.91089
 Alpha  occ. eigenvalues --   -0.91050  -0.87466  -0.87387  -0.87097  -0.85497
 Alpha  occ. eigenvalues --   -0.85244  -0.83931  -0.82879  -0.82858  -0.81817
 Alpha  occ. eigenvalues --   -0.81414  -0.80720  -0.80523  -0.77695  -0.77280
 Alpha  occ. eigenvalues --   -0.76862  -0.74509  -0.74310  -0.74258  -0.71009
 Alpha  occ. eigenvalues --   -0.70908  -0.70671  -0.69937  -0.69351  -0.69069
 Alpha  occ. eigenvalues --   -0.67968  -0.67505  -0.67222  -0.67116  -0.67028
 Alpha  occ. eigenvalues --   -0.66890  -0.66297  -0.66259  -0.65263  -0.64111
 Alpha  occ. eigenvalues --   -0.63902  -0.63220  -0.62305  -0.61812  -0.61575
 Alpha  occ. eigenvalues --   -0.61286  -0.60786  -0.60496  -0.60181  -0.60014
 Alpha  occ. eigenvalues --   -0.59745  -0.58934  -0.58833  -0.58566  -0.58298
 Alpha  occ. eigenvalues --   -0.58242  -0.57897  -0.55449  -0.55106  -0.54795
 Alpha  occ. eigenvalues --   -0.54542  -0.54287  -0.54205  -0.53871  -0.53535
 Alpha  occ. eigenvalues --   -0.53484  -0.53296  -0.53051  -0.52799  -0.52722
 Alpha  occ. eigenvalues --   -0.52332  -0.51889  -0.51836  -0.51622  -0.51293
 Alpha  occ. eigenvalues --   -0.50013  -0.49685  -0.49537  -0.49309  -0.49252
 Alpha  occ. eigenvalues --   -0.48664  -0.48526  -0.48428  -0.48103  -0.45525
 Alpha  occ. eigenvalues --   -0.45091  -0.45034  -0.41869  -0.41754  -0.41237
 Alpha  occ. eigenvalues --   -0.40786  -0.40651  -0.40564  -0.40389  -0.40122
 Alpha  occ. eigenvalues --   -0.40006  -0.39914  -0.39388  -0.38065  -0.37301
 Alpha  occ. eigenvalues --   -0.36892  -0.36723  -0.33060  -0.32852  -0.32707
 Alpha  occ. eigenvalues --   -0.32183  -0.31973  -0.31613
 Alpha virt. eigenvalues --    0.03175   0.03683   0.03712   0.03755   0.04334
 Alpha virt. eigenvalues --    0.04369   0.04441   0.04627   0.04708   0.05374
 Alpha virt. eigenvalues --    0.05466   0.05526   0.05666   0.05732   0.05813

 Mulliken charges:
               1
     1  C    0.649347
     2  C    0.778927
     3  C    0.340334
     4  C    1.026655
     5  H   -1.017180
     6  C   -0.399651
     7  C    1.220344
     8  H   -0.952516
     9  C    0.614920
    10  C    1.011840
    11  H   -1.082632
    12  C    1.194148
    13  H   -0.669426
    14  H   -0.665712
    15  C    0.575767
    16  C    0.570131
    17  C    1.328930
    18  C    0.748676
    19  H   -0.908623
    20  C    0.373825
    21  C    0.820573
    22  H   -0.921321
    23  C    0.433484
    24  C    0.746044
    25  H   -1.077240
    26  C    1.008561
    27  H   -0.669342
    28  H   -0.723987
    29  C   -0.037308
    30  C    1.132926
    31  C    0.942918
    32  C    1.053663
    33  H   -0.859693
    34  C   -0.036832
    35  C    0.630842
    36  H   -0.900625
    37  C    0.903043
    38  C    0.740526
    39  H   -1.012973
    40  C    1.111061
    41  H   -0.659267
    42  H   -0.738426
    43  C    1.209123
    44  C    0.699556
    45  N   -0.568368
    46  H   -0.487955
    47  N   -0.549776
    48  H   -0.411417
    49  C    1.224609
    50  C    0.664927
    51  N   -0.097078
    52  H   -0.363826
    53  N   -0.625120
    54  H   -0.257268
    55  C    1.081989
    56  C    0.785194
    57  N   -0.731218
    58  H   -0.496744
    59  N   -0.548395
    60  H   -0.262207
    61  C    0.624388
    62  C    0.708025
    63  N   -0.815672
    64  H   -0.310862
    65  N   -0.709223
    66  H   -0.260463
    67  C    0.671981
    68  C    0.550659
    69  N   -0.890674
    70  H   -0.280361
    71  N   -0.917719
    72  H   -0.344370
    73  C    0.552977
    74  C    0.657116
    75  N   -0.879662
    76  H   -0.330290
    77  N   -0.809135
    78  H   -0.269470
    79  H   -0.805044
    80  H   -0.518314
    81  H   -0.057764
    82  H   -0.038481
    83  H   -0.150919
    84  H   -0.142146
    85  H    0.412093
    86  H    0.016383
    87  H   -0.090749
    88  H   -0.379553
    89  H   -0.249988
    90  H   -0.280791
    91  H   -0.133557
    92  H   -0.112271
    93  H   -0.112473
    94  H   -0.261564
    95  H   -0.337829
    96  H   -0.121411
    97  H   -0.099239
    98  H   -0.104236
    99  H   -0.270149
 Sum of Mulliken charges =   0.00000

 Dipole moment (field-independent basis, Debye):
    X=              0.2120    Y=             -2.1107    Z=              5.7942  Tot=              6.1703
 Quadrupole moment (field-independent basis, Debye-Ang):
   XX=           -305.6098   YY=           -302.2428   ZZ=           -270.4793
   XY=             -4.1023   XZ=              0.0500   YZ=            -11.5547

 Normal termination of Gaussian 16 at Tue Nov 16 09:44:19 2021.
