 Gaussian 16, Revision C.01,
 Gaussian 16:  ES64L-G16RevC.01  3-Jul-2019

 ----------------------------------------------------------------------
 #P PBE1PBE/Def2TZVP SP SCF=(YQC,MaxCycle=900) int=(Grid=Superfinegrid)
  EmpiricalDispersion=GD3
 ----------------------------------------------------------------------

 -------------------------
 _3_alde1_6_ami2_2_opt_gas
 -------------------------
 Symbolic Z-matrix:
 Charge =  0 Multiplicity = 1

                         Standard orientation:
 ---------------------------------------------------------------------
 Center     Atomic      Atomic             Coordinates (Angstroms)
 Number     Number       Type             X           Y           Z
 ---------------------------------------------------------------------
      1          6           0        6.007506   -0.696158   -0.526610
      2          6           0        7.210270   -1.458970   -0.827473
      3          6           0        4.852591   -1.336495   -0.086355
      4          6           0        3.696662   -0.610201    0.189984
      5          1           0        4.852174   -2.405385    0.049349
      6          6           0        3.703755    0.769288    0.020310
      7          6           0        4.857475    1.427884   -0.403788
      8          1           0        2.823513    1.361778    0.221202
      9          6           0        6.004753    0.690011   -0.676098
     10          6           0        4.854261    2.878267   -0.532656
     11          1           0        6.901791    1.196193   -1.007290
     12          6           0        2.493958   -1.274332    0.683699
     13          1           0        5.821784    3.353639   -0.764014
     14          1           0        8.074585   -0.876796   -1.187256
     15          1           0        1.619892   -0.630352    0.822500
     16          6           0       -4.550098   -1.120169   -1.388822
     17          6           0       -5.912933   -1.571234   -1.629007
     18          6           0       -4.009526   -0.094527   -2.154996
     19          6           0       -2.699563    0.337452   -1.945271
     20          1           0       -4.587479    0.384479   -2.930864
     21          6           0       -1.930722   -0.262910   -0.954363
     22          6           0       -2.456570   -1.300594   -0.183024
     23          1           0       -0.916190    0.057243   -0.771102
     24          6           0       -3.764072   -1.719443   -0.404740
     25          6           0       -1.656650   -1.978718    0.824695
     26          1           0       -4.194811   -2.518455    0.179567
     27          6           0       -2.156297    1.428971   -2.740909
     28          1           0       -2.148482   -2.835924    1.311895
     29          1           0       -6.461482   -1.038494   -2.421455
     30          1           0       -1.112699    1.703793   -2.531040
     31          6           0       -1.941813    2.274347    2.158989
     32          6           0       -2.604452    1.533349    3.221080
     33          6           0       -0.636096    2.739221    2.317251
     34          6           0       -0.044778    3.536767    1.343236
     35          1           0       -0.108974    2.485742    3.224765
     36          6           0       -0.760901    3.848891    0.190742
     37          6           0       -2.052502    3.368054    0.003819
     38          1           0       -0.307707    4.467981   -0.565564
     39          6           0       -2.638402    2.582674    0.993523
     40          6           0       -2.779283    3.650254   -1.228180
     41          1           0       -3.645737    2.211337    0.857415
     42          6           0        1.311462    4.051447    1.521464
     43          1           0       -3.800005    3.248452   -1.266912
     44          1           0       -3.664496    1.290425    3.042243
     45          1           0        1.884560    3.587422    2.333792
     46          6           0        8.079515   -4.511892   -2.104420
     47          6           0        8.423061   -3.447302   -1.019929
     48          7           0        6.961954   -5.349460   -1.707876
     49          7           0        7.253801   -2.710989   -0.684279
     50          6           0       -7.698009   -4.456283   -1.735321
     51          6           0       -7.743625   -2.971880   -1.261772
     52          7           0       -6.996199   -5.307838   -0.791695
     53          7           0       -6.427008   -2.517257   -0.970998
     54          6           0       -2.191245   -0.899422    5.494138
     55          6           0       -2.716077    0.559887    5.341497
     56          7           0       -0.739949   -0.963403    5.515504
     57          6           0       -2.684538   -1.734396    4.311916
     58          7           0       -2.020017    1.239264    4.300406
     59          6           0        1.382519   -3.235863    1.443691
     60          6           0        0.251417   -2.378389    2.083008
     61          7           0        2.505908   -2.508249    0.936634
     62          7           0       -0.482102   -1.623051    1.123942
     63          6           0        0.828212   -4.074273    0.284232
     64          6           0        3.759635    4.950619   -0.450195
     65          6           0        3.062319    5.515094    0.816759
     66          7           0        3.789251    3.532694   -0.377415
     67          7           0        1.734586    4.973896    0.777612
     68          6           0        2.920470    7.034341    0.671799
     69          6           0       -2.338078    3.172056   -4.257803
     70          6           0       -2.819251    4.434780   -3.462465
     71          7           0       -2.851489    2.008774   -3.626047
     72          7           0       -2.231742    4.296823   -2.164934
     73          6           0       -2.208632    5.684179   -4.101142
     74          1           0       -0.376277   -0.532063    4.671875
     75          1           0       -0.379818   -0.435627    6.303690
     76          1           0        7.181614   -5.846245   -0.850904
     77          1           0        6.154061   -4.764439   -1.521715
     78          1           0       -7.458211   -5.288684    0.111477
     79          1           0       -6.052755   -4.958846   -0.660743
     80          1           0       -2.363905   -1.283686    3.374696
     81          1           0       -3.769790   -1.802320    4.315516
     82          1           0       -2.266783   -2.735113    4.380361
     83          1           0       -3.806421    0.534834    5.181159
     84          1           0       -2.503963    1.102680    6.268963
     85          1           0       -8.251987   -2.356206   -2.022525
     86          1           0       -8.317076   -2.929666   -0.329022
     87          6           0       -6.970803   -4.541786   -3.078646
     88          1           0       -7.505013   -3.980534   -3.841175
     89          1           0       -6.902475   -5.581585   -3.385185
     90          1           0       -5.963404   -4.140750   -2.989414
     91          1           0        0.718867   -1.676633    2.780585
     92          1           0       -0.396621   -3.064716    2.649953
     93          6           0        1.938090   -4.167001    2.530278
     94          1           0        2.264592   -3.587713    3.390568
     95          1           0        2.791897   -4.708557    2.133233
     96          1           0        1.181976   -4.878495    2.851282
     97          1           0        0.013336   -4.705140    0.631267
     98          1           0        1.618065   -4.702042   -0.119183
     99          1           0        0.461164   -3.424162   -0.507110
    100          6           0        9.299632   -5.406403   -2.327537
    101          6           0        7.699714   -3.806078   -3.407644
    102          1           0        4.759655    5.403725   -0.560447
    103          1           0        3.143384    5.221543   -1.312783
    104          6           0        3.901978    5.181593    2.056133
    105          1           0        3.379540    5.490348    2.959542
    106          1           0        4.850073    5.711673    2.005581
    107          1           0        4.107338    4.114454    2.108872
    108          1           0        2.268561    7.263597   -0.166232
    109          1           0        3.890530    7.497380    0.509299
    110          1           0        2.479264    7.450128    1.574425
    111          1           0       -2.460503    5.740568   -5.156919
    112          1           0       -1.128257    5.662247   -3.990826
    113          1           0       -2.587072    6.571385   -3.599580
    114          6           0       -4.349781    4.507416   -3.504901
    115          1           0       -4.705062    5.251149   -2.793774
    116          1           0       -4.788695    3.542434   -3.267287
    117          1           0       -4.673020    4.793737   -4.502206
    118          1           0       -1.238979    3.194025   -4.286177
    119          1           0       -2.744194    3.228401   -5.269312
    120          1           0        7.421189   -4.547617   -4.150828
    121          1           0        8.534297   -3.220219   -3.785085
    122          1           0        6.851565   -3.144926   -3.243459
    123          1           0        8.745151   -3.976106   -0.115695
    124          1           0        9.250644   -2.807400   -1.371143
    125          6           0       -9.129668   -4.973713   -1.880111
    126          6           0       -2.719862   -1.483663    6.804678
    127          1           0        9.580053   -5.909159   -1.404272
    128          1           0       10.147194   -4.822092   -2.676210
    129          1           0        9.060124   -6.161534   -3.070868
    130          1           0       -3.806766   -1.486815    6.813409
    131          1           0       -2.367145   -0.901966    7.653754
    132          1           0       -2.361049   -2.503293    6.914457
    133          1           0       -9.675201   -4.394926   -2.620902
    134          1           0       -9.658292   -4.910822   -0.931189
    135          1           0       -9.104792   -6.014200   -2.191466
 ---------------------------------------------------------------------

 SCF Done:  E(RPBE1PBE) =  -2641.62582530     a.u. after    7 cycles
 SCF Done:  E(RPBE1PBE) =  -2641.62583420     A.U. after    9 cycles

 The electronic state is 1-A.
 Alpha  occ. eigenvalues --  -14.38314 -14.38148 -14.37802 -14.37781 -14.37656
 Alpha  occ. eigenvalues --  -14.37623 -14.37005 -14.36953 -14.36852 -14.35347
 Alpha  occ. eigenvalues --  -14.35222 -14.34573 -10.27206 -10.27003 -10.26898
 Alpha  occ. eigenvalues --  -10.26874 -10.26861 -10.26607 -10.26597 -10.26483
 Alpha  occ. eigenvalues --  -10.26407 -10.26257 -10.26061 -10.26013 -10.25956
 Alpha  occ. eigenvalues --  -10.25527 -10.25392 -10.24852 -10.24838 -10.24735
 Alpha  occ. eigenvalues --  -10.24730 -10.24620 -10.24511 -10.24456 -10.24285
 Alpha  occ. eigenvalues --  -10.24251 -10.24243 -10.24183 -10.24164 -10.24124
 Alpha  occ. eigenvalues --  -10.24089 -10.24037 -10.24014 -10.23970 -10.23852
 Alpha  occ. eigenvalues --  -10.23800 -10.23655 -10.23527 -10.23325 -10.22871
 Alpha  occ. eigenvalues --  -10.22787 -10.20954 -10.20755 -10.20736 -10.20668
 Alpha  occ. eigenvalues --  -10.20644 -10.20584 -10.20500 -10.20493 -10.20265
 Alpha  occ. eigenvalues --  -10.20259 -10.20222 -10.19797  -0.98078  -0.97436
 Alpha  occ. eigenvalues --   -0.97339  -0.97035  -0.96658  -0.96415  -0.95131
 Alpha  occ. eigenvalues --   -0.94997  -0.94572  -0.91741  -0.91675  -0.91130
 Alpha  occ. eigenvalues --   -0.90170  -0.89572  -0.89368  -0.83705  -0.83344
 Alpha  occ. eigenvalues --   -0.82763  -0.81291  -0.80862  -0.80539  -0.79514
 Alpha  occ. eigenvalues --   -0.78663  -0.78328  -0.78144  -0.77913  -0.77592
 Alpha  occ. eigenvalues --   -0.73111  -0.72828  -0.72400  -0.72192  -0.72132
 Alpha  occ. eigenvalues --   -0.71694  -0.71414  -0.71355  -0.71271  -0.71107
 Alpha  occ. eigenvalues --   -0.70781  -0.70643  -0.67988  -0.67745  -0.67333
 Alpha  occ. eigenvalues --   -0.66271  -0.66039  -0.65963  -0.64421  -0.63174
 Alpha  occ. eigenvalues --   -0.62493  -0.60153  -0.59768  -0.59038  -0.57486
 Alpha  occ. eigenvalues --   -0.57023  -0.56887  -0.56817  -0.56506  -0.56318
 Alpha  occ. eigenvalues --   -0.56031  -0.54693  -0.54361  -0.54032  -0.52887
 Alpha  occ. eigenvalues --   -0.52829  -0.52351  -0.52211  -0.51397  -0.50934
 Alpha  occ. eigenvalues --   -0.50679  -0.50534  -0.50374  -0.50166  -0.49813
 Alpha  occ. eigenvalues --   -0.49709  -0.49432  -0.49356  -0.49081  -0.48959
 Alpha  occ. eigenvalues --   -0.48580  -0.47990  -0.47913  -0.47799  -0.47476
 Alpha  occ. eigenvalues --   -0.47431  -0.47291  -0.46899  -0.46652  -0.46304
 Alpha  occ. eigenvalues --   -0.45943  -0.45522  -0.45330  -0.45164  -0.44998
 Alpha  occ. eigenvalues --   -0.44784  -0.44513  -0.44305  -0.43967  -0.43365
 Alpha  occ. eigenvalues --   -0.43037  -0.42590  -0.42288  -0.42139  -0.42061
 Alpha  occ. eigenvalues --   -0.41705  -0.41437  -0.41327  -0.40986  -0.40585
 Alpha  occ. eigenvalues --   -0.40455  -0.39811  -0.39642  -0.39439  -0.39346
 Alpha  occ. eigenvalues --   -0.39222  -0.39170  -0.39153  -0.39080  -0.38967
 Alpha  occ. eigenvalues --   -0.38703  -0.38688  -0.38619  -0.38517  -0.38348
 Alpha  occ. eigenvalues --   -0.38335  -0.37971  -0.37707  -0.37538  -0.37263
 Alpha  occ. eigenvalues --   -0.37116  -0.36985  -0.36905  -0.36807  -0.36657
 Alpha  occ. eigenvalues --   -0.36590  -0.36439  -0.36261  -0.35867  -0.35478
 Alpha  occ. eigenvalues --   -0.35438  -0.34847  -0.34756  -0.34516  -0.34361
 Alpha  occ. eigenvalues --   -0.34233  -0.33967  -0.33884  -0.33581  -0.33447
 Alpha  occ. eigenvalues --   -0.31030  -0.30495  -0.30011  -0.28018  -0.27584
 Alpha  occ. eigenvalues --   -0.27206  -0.27110  -0.26959  -0.26790  -0.26665
 Alpha  occ. eigenvalues --   -0.26427  -0.26005  -0.25904  -0.25822  -0.25705
 Alpha  occ. eigenvalues --   -0.25523  -0.25141  -0.24681  -0.24544  -0.24271
 Alpha  occ. eigenvalues --   -0.23984
 Alpha virt. eigenvalues --   -0.06672  -0.06471  -0.06346  -0.06045  -0.04867
 Alpha virt. eigenvalues --   -0.04777  -0.02619  -0.01915  -0.01525   0.03155
 Alpha virt. eigenvalues --    0.03684   0.04084   0.04240   0.04354   0.04674

 Mulliken charges:
               1
     1  C    0.378807
     2  C   -0.185276
     3  C   -0.373130
     4  C    0.393189
     5  H    0.135397
     6  C   -0.338407
     7  C    0.309627
     8  H    0.171150
     9  C   -0.315140
    10  C   -0.189807
    11  H    0.107894
    12  C   -0.181977
    13  H    0.063377
    14  H    0.060887
    15  H    0.118040
    16  C    0.371521
    17  C   -0.180004
    18  C   -0.351906
    19  C    0.347414
    20  H    0.133670
    21  C   -0.327069
    22  C    0.381359
    23  H    0.137205
    24  C   -0.351682
    25  C   -0.226536
    26  H    0.122900
    27  C   -0.146635
    28  H    0.089773
    29  H    0.069974
    30  H    0.093972
    31  C    0.348632
    32  C   -0.194896
    33  C   -0.380938
    34  C    0.421796
    35  H    0.122227
    36  C   -0.377236
    37  C    0.353748
    38  H    0.131038
    39  C   -0.283206
    40  C   -0.177343
    41  H    0.110166
    42  C   -0.172601
    43  H    0.086009
    44  H    0.068234
    45  H    0.083715
    46  C    0.139205
    47  C   -0.122721
    48  N   -0.497627
    49  N   -0.165437
    50  C    0.138920
    51  C   -0.127878
    52  N   -0.496047
    53  N   -0.173145
    54  C    0.136778
    55  C   -0.117483
    56  N   -0.489464
    57  C   -0.401080
    58  N   -0.175690
    59  C    0.186768
    60  C   -0.169616
    61  N   -0.175749
    62  N   -0.177187
    63  C   -0.386259
    64  C   -0.109543
    65  C    0.167325
    66  N   -0.172837
    67  N   -0.169509
    68  C   -0.342383
    69  C   -0.081316
    70  C    0.134144
    71  N   -0.204404
    72  N   -0.180661
    73  C   -0.340850
    74  H    0.220561
    75  H    0.203285
    76  H    0.203576
    77  H    0.225544
    78  H    0.204141
    79  H    0.220201
    80  H    0.143565
    81  H    0.118831
    82  H    0.120699
    83  H    0.069390
    84  H    0.113652
    85  H    0.070220
    86  H    0.112244
    87  C   -0.377398
    88  H    0.108212
    89  H    0.132442
    90  H    0.129779
    91  H    0.127377
    92  H    0.101465
    93  C   -0.341282
    94  H    0.123241
    95  H    0.131605
    96  H    0.111642
    97  H    0.109605
    98  H    0.135075
    99  H    0.137617
   100  C   -0.354477
   101  C   -0.377605
   102  H    0.071984
   103  H    0.118616
   104  C   -0.421235
   105  H    0.134251
   106  H    0.124750
   107  H    0.144139
   108  H    0.130963
   109  H    0.109002
   110  H    0.121759
   111  H    0.110559
   112  H    0.128963
   113  H    0.121483
   114  C   -0.408807
   115  H    0.130319
   116  H    0.140477
   117  H    0.124074
   118  H    0.090077
   119  H    0.113198
   120  H    0.130443
   121  H    0.105285
   122  H    0.131374
   123  H    0.111703
   124  H    0.065423
   125  C   -0.354672
   126  C   -0.355465
   127  H    0.111588
   128  H    0.110844
   129  H    0.133177
   130  H    0.112212
   131  H    0.114790
   132  H    0.132015
   133  H    0.112734
   134  H    0.111970
   135  H    0.134616
 Sum of Mulliken charges =  -0.00000

 Dipole moment (field-independent basis, Debye):
    X=             -0.7085    Y=              3.3067    Z=              0.9894  Tot=              3.5235
 Quadrupole moment (field-independent basis, Debye-Ang):
   XX=           -339.7651   YY=           -402.6944   ZZ=           -376.6157
   XY=             11.6363   XZ=             -1.5248   YZ=            -11.5545

 Normal termination of Gaussian 16 at Mon Oct 18 10:57:29 2021.
