 Gaussian 16, Revision C.01,
 Gaussian 16:  ES64L-G16RevC.01  3-Jul-2019

 ----------------------------------------------------------------------
 #P PBE1PBE/Def2TZVP SP SCF=(YQC,MaxCycle=900) int=(Grid=Superfinegrid)
  EmpiricalDispersion=GD3 SCRF=(PCM,Solvent=Chloroform)
 ----------------------------------------------------------------------

 -------------------------
 _3_alde1_4_ami3_1_opt_cfm
 -------------------------
 Symbolic Z-matrix:
 Charge =  0 Multiplicity = 1

                         Standard orientation:
 ---------------------------------------------------------------------
 Center     Atomic      Atomic             Coordinates (Angstroms)
 Number     Number       Type             X           Y           Z
 ---------------------------------------------------------------------
      1          6           0       -3.415786   -1.635382    0.544088
      2          6           0       -3.594363   -2.874555   -0.194150
      3          6           0       -3.736992   -0.394367   -0.003949
      4          6           0       -3.467426    0.775407    0.698424
      5          1           0       -4.191140   -0.364782   -0.982512
      6          6           0       -2.837472    0.706138    1.942546
      7          6           0       -2.489747   -0.522783    2.489631
      8          1           0       -2.610720    1.630155    2.452296
      9          6           0       -2.813289   -1.688161    1.794128
     10          6           0       -1.667031   -0.614982    3.688705
     11          1           0       -2.549984   -2.634549    2.240696
     12          6           0       -3.799834    2.065291    0.112583
     13          1           0       -1.379308    0.340055    4.148086
     14          1           0       -3.341057   -3.787592    0.366484
     15          1           0       -4.177020    2.037213   -0.921527
     16          6           0        1.088407    2.752603   -3.311670
     17          6           0        0.906190    2.686335   -4.769189
     18          6           0        2.264499    2.273369   -2.736720
     19          6           0        2.437432    2.305360   -1.356810
     20          1           0        3.048762    1.879097   -3.363919
     21          6           0        1.418874    2.820799   -0.557657
     22          6           0        0.257126    3.343953   -1.121706
     23          1           0        1.545841    2.841859    0.516109
     24          6           0        0.094961    3.299177   -2.504500
     25          6           0       -0.744265    3.976457   -0.273125
     26          1           0       -0.811831    3.702054   -2.928982
     27          6           0        3.673135    1.832547   -0.745327
     28          1           0       -0.559175    3.917821    0.810287
     29          1           0       -0.042882    3.140949   -5.117524
     30          1           0        3.631007    1.649781    0.339335
     31          6           0        0.488826   -2.804299   -1.260142
     32          6           0       -0.561630   -3.180412   -2.198065
     33          6           0        0.286645   -2.910816    0.113586
     34          6           0        1.234879   -2.425937    1.011587
     35          1           0       -0.644425   -3.327901    0.463733
     36          6           0        2.430278   -1.903239    0.527172
     37          6           0        2.662957   -1.826124   -0.843276
     38          1           0        3.174790   -1.536642    1.214587
     39          6           0        1.674032   -2.246306   -1.729908
     40          6           0        3.897532   -1.257296   -1.361458
     41          1           0        1.834128   -2.147226   -2.794961
     42          6           0        0.890279   -2.360062    2.428047
     43          1           0        3.916730   -1.071765   -2.446887
     44          1           0       -0.016285   -2.906123    2.709086
     45          6           0       -2.538493   -4.225158   -2.844993
     46          6           0       -3.874682   -4.186241   -2.068297
     47          7           0       -1.479644   -3.993857   -1.909530
     48          7           0       -3.942588   -2.919104   -1.406517
     49          8           0        1.679418    2.190683   -5.547352
     50          6           0       -3.968727    4.393222    0.128554
     51          6           0       -2.672930    5.234188    0.106314
     52          7           0       -3.661611    3.144363    0.749947
     53          7           0       -1.732433    4.591571   -0.757325
     54          6           0       -0.231046   -1.937949    5.048681
     55          6           0        1.118727   -1.338917    4.561069
     56          7           0       -1.250948   -1.748648    4.063575
     57          7           0        1.526438   -1.615602    3.222294
     58          6           0        5.902826    1.166981   -0.788341
     59          6           0        6.019341   -0.331835   -1.172711
     60          7           0        4.728448    1.678075   -1.417911
     61          7           0        4.881606   -0.991710   -0.618158
     62          1           0       -0.513593   -2.675090   -3.176813
     63          6           0        7.130899    1.924509   -1.289741
     64          6           0       -2.964705    6.632748   -0.439665
     65          6           0       -5.032128   -4.380237   -3.042512
     66          6           0        2.228380   -1.737980    5.538766
     67          1           0        1.022414   -0.242520    4.588628
     68          6           0        1.917764   -1.217376    6.938381
     69          1           0        3.174816   -1.332073    5.179420
     70          1           0        2.312015   -2.826888    5.552153
     71          6           0        0.560719   -1.725974    7.418405
     72          1           0        1.910436   -0.124833    6.923450
     73          1           0        2.698829   -1.536585    7.631088
     74          6           0       -0.539935   -1.352110    6.431104
     75          1           0        0.596677   -2.813045    7.521064
     76          1           0        0.332688   -1.305196    8.399889
     77          1           0       -0.621499   -0.265081    6.361072
     78          1           0       -1.502373   -1.740153    6.772492
     79          1           0       -0.114174   -3.026543    5.149869
     80          1           0       -2.301324    5.295787    1.144584
     81          6           0       -4.035982    7.332462    0.387575
     82          1           0       -3.292778    6.534659   -1.475804
     83          1           0       -2.039407    7.212451   -0.434790
     84          6           0       -5.316031    6.504001    0.405076
     85          1           0       -4.234762    8.320941   -0.030905
     86          1           0       -3.676475    7.466597    1.410416
     87          6           0       -5.037393    5.111265    0.956653
     88          1           0       -5.709000    6.421188   -0.610817
     89          1           0       -6.072979    6.995771    1.019161
     90          1           0       -5.948170    4.508695    0.950369
     91          1           0       -4.686411    5.177451    1.987894
     92          1           0       -4.318328    4.265422   -0.911976
     93          1           0       -3.851628   -5.016488   -1.339743
     94          6           0       -4.898010   -5.724861   -3.750690
     95          1           0       -5.023522   -3.564814   -3.767572
     96          1           0       -5.974799   -4.332544   -2.494048
     97          6           0       -3.558863   -5.826606   -4.476542
     98          1           0       -4.970758   -6.528128   -3.013685
     99          1           0       -5.715508   -5.849884   -4.463487
    100          6           0       -2.397208   -5.593473   -3.515512
    101          1           0       -3.521947   -5.079346   -5.272730
    102          1           0       -3.460235   -6.811723   -4.937243
    103          1           0       -1.446430   -5.631434   -4.052338
    104          1           0       -2.379589   -6.365605   -2.744403
    105          1           0       -2.560061   -3.443606   -3.625272
    106          1           0        5.837520    1.220996    0.312806
    107          6           0        8.409968    1.328608   -0.713450
    108          1           0        7.037917    2.974408   -1.004786
    109          1           0        7.146553    1.873403   -2.379519
    110          6           0        8.523908   -0.147426   -1.080905
    111          1           0        8.400248    1.431390    0.374249
    112          1           0        9.273741    1.876709   -1.094579
    113          6           0        7.303250   -0.915244   -0.587210
    114          1           0        9.428081   -0.573484   -0.641620
    115          1           0        8.599636   -0.245541   -2.166295
    116          1           0        7.373374   -1.966650   -0.872870
    117          1           0        7.239490   -0.867288    0.500991
    118          1           0        6.036452   -0.390697   -2.275644
 ---------------------------------------------------------------------

 SCF Done:  E(RPBE1PBE) =  -2489.59325701     a.u. after    6 cycles
 SCF Done:  E(RPBE1PBE) =  -2489.59329537     A.U. after    9 cycles

 The electronic state is 1-A.
 Alpha  occ. eigenvalues --  -19.21158 -14.38096 -14.37945 -14.37878 -14.37855
 Alpha  occ. eigenvalues --  -14.37756 -14.37544 -14.37543 -14.37536 -10.31615
 Alpha  occ. eigenvalues --  -10.27040 -10.26918 -10.26884 -10.26745 -10.26735
 Alpha  occ. eigenvalues --  -10.26520 -10.26372 -10.26091 -10.25622 -10.25327
 Alpha  occ. eigenvalues --  -10.25276 -10.25272 -10.25253 -10.25209 -10.25174
 Alpha  occ. eigenvalues --  -10.25149 -10.25127 -10.25085 -10.24990 -10.24919
 Alpha  occ. eigenvalues --  -10.24862 -10.24628 -10.24448 -10.24408 -10.24358
 Alpha  occ. eigenvalues --  -10.24318 -10.24252 -10.24155 -10.24141 -10.23945
 Alpha  occ. eigenvalues --  -10.23937 -10.23830 -10.23730 -10.23376 -10.22038
 Alpha  occ. eigenvalues --  -10.21716 -10.21707 -10.21653 -10.21646 -10.21564
 Alpha  occ. eigenvalues --  -10.21523 -10.21461 -10.21454 -10.21419 -10.21383
 Alpha  occ. eigenvalues --  -10.21374 -10.21317 -10.21311 -10.21287 -10.21251
 Alpha  occ. eigenvalues --   -1.08911  -0.98103  -0.97969  -0.97812  -0.97676
 Alpha  occ. eigenvalues --   -0.95551  -0.95269  -0.94993  -0.94713  -0.91034
 Alpha  occ. eigenvalues --   -0.90334  -0.89749  -0.85943  -0.85855  -0.85715
 Alpha  occ. eigenvalues --   -0.85134  -0.81686  -0.81319  -0.81039  -0.80987
 Alpha  occ. eigenvalues --   -0.80953  -0.80696  -0.77019  -0.76885  -0.76685
 Alpha  occ. eigenvalues --   -0.76440  -0.76230  -0.75570  -0.75529  -0.75142
 Alpha  occ. eigenvalues --   -0.69526  -0.69415  -0.68708  -0.68401  -0.68347
 Alpha  occ. eigenvalues --   -0.67465  -0.66921  -0.66639  -0.65663  -0.63249
 Alpha  occ. eigenvalues --   -0.63224  -0.63108  -0.62667  -0.62465  -0.61378
 Alpha  occ. eigenvalues --   -0.60619  -0.60132  -0.59203  -0.58973  -0.58323
 Alpha  occ. eigenvalues --   -0.58255  -0.58018  -0.57056  -0.56301  -0.56147
 Alpha  occ. eigenvalues --   -0.56022  -0.55019  -0.54130  -0.53802  -0.53359
 Alpha  occ. eigenvalues --   -0.53081  -0.52926  -0.52176  -0.51403  -0.51104
 Alpha  occ. eigenvalues --   -0.50697  -0.50138  -0.50059  -0.49926  -0.49119
 Alpha  occ. eigenvalues --   -0.48565  -0.48192  -0.47643  -0.47622  -0.47454
 Alpha  occ. eigenvalues --   -0.47378  -0.47208  -0.47106  -0.46688  -0.46267
 Alpha  occ. eigenvalues --   -0.45943  -0.45745  -0.45385  -0.45260  -0.44929
 Alpha  occ. eigenvalues --   -0.44492  -0.44466  -0.44300  -0.44222  -0.43950
 Alpha  occ. eigenvalues --   -0.43672  -0.43638  -0.43521  -0.43297  -0.42439
 Alpha  occ. eigenvalues --   -0.42237  -0.42031  -0.41881  -0.41531  -0.41115
 Alpha  occ. eigenvalues --   -0.40911  -0.40493  -0.40091  -0.39990  -0.39896
 Alpha  occ. eigenvalues --   -0.39283  -0.38782  -0.38599  -0.38286  -0.37888
 Alpha  occ. eigenvalues --   -0.37706  -0.37539  -0.37118  -0.36760  -0.36503
 Alpha  occ. eigenvalues --   -0.36344  -0.36246  -0.36142  -0.36082  -0.35914
 Alpha  occ. eigenvalues --   -0.35853  -0.35724  -0.35481  -0.35207  -0.34357
 Alpha  occ. eigenvalues --   -0.34231  -0.34151  -0.33992  -0.33818  -0.33733
 Alpha  occ. eigenvalues --   -0.33445  -0.32998  -0.32585  -0.32192  -0.32106
 Alpha  occ. eigenvalues --   -0.31969  -0.31237  -0.30140  -0.29747  -0.28500
 Alpha  occ. eigenvalues --   -0.27918  -0.27749  -0.27655  -0.27593  -0.27251
 Alpha  occ. eigenvalues --   -0.27061  -0.26859  -0.26809  -0.26155  -0.26026
 Alpha  occ. eigenvalues --   -0.25888  -0.25577  -0.25375  -0.24391
 Alpha virt. eigenvalues --   -0.07522  -0.06864  -0.06560  -0.05981  -0.05831
 Alpha virt. eigenvalues --   -0.05118  -0.02626  -0.02365  -0.01469   0.03600
 Alpha virt. eigenvalues --    0.04364   0.04517   0.04686   0.04888   0.04963

 Mulliken charges:
               1
     1  C    0.359666
     2  C   -0.148841
     3  C   -0.401658
     4  C    0.374091
     5  H    0.119791
     6  C   -0.366845
     7  C    0.378658
     8  H    0.122431
     9  C   -0.361329
    10  C   -0.148445
    11  H    0.151143
    12  C   -0.162431
    13  H    0.095276
    14  H    0.089999
    15  H    0.090788
    16  C    0.283202
    17  C    0.063852
    18  C   -0.364829
    19  C    0.352797
    20  H    0.135034
    21  C   -0.319813
    22  C    0.316889
    23  H    0.130802
    24  C   -0.308612
    25  C   -0.152568
    26  H    0.131295
    27  C   -0.159232
    28  H    0.091818
    29  H    0.094618
    30  H    0.097300
    31  C    0.292538
    32  C   -0.171654
    33  C   -0.275182
    34  C    0.349179
    35  H    0.118670
    36  C   -0.405102
    37  C    0.357613
    38  H    0.117528
    39  C   -0.325208
    40  C   -0.174384
    41  H    0.132762
    42  C   -0.124016
    43  H    0.091516
    44  H    0.115757
    45  C    0.013569
    46  C    0.065194
    47  N   -0.194180
    48  N   -0.200840
    49  O   -0.317725
    50  C    0.034508
    51  C    0.037806
    52  N   -0.196133
    53  N   -0.193535
    54  C   -0.052801
    55  C   -0.015993
    56  N   -0.222003
    57  N   -0.189448
    58  C    0.034391
    59  C    0.023740
    60  N   -0.189186
    61  N   -0.188519
    62  H    0.084922
    63  C   -0.173669
    64  C   -0.179361
    65  C   -0.173633
    66  C   -0.185738
    67  H    0.087361
    68  C   -0.187165
    69  H    0.113674
    70  H    0.107045
    71  C   -0.176199
    72  H    0.094548
    73  H    0.114680
    74  C   -0.188062
    75  H    0.098629
    76  H    0.115059
    77  H    0.106412
    78  H    0.114052
    79  H    0.093402
    80  H    0.058178
    81  C   -0.182776
    82  H    0.101630
    83  H    0.111027
    84  C   -0.176417
    85  H    0.113373
    86  H    0.092310
    87  C   -0.198171
    88  H    0.092876
    89  H    0.113330
    90  H    0.113382
    91  H    0.103058
    92  H    0.054898
    93  H    0.058404
    94  C   -0.195059
    95  H    0.100243
    96  H    0.108563
    97  C   -0.176443
    98  H    0.094233
    99  H    0.112626
   100  C   -0.200370
   101  H    0.093787
   102  H    0.113037
   103  H    0.112881
   104  H    0.105965
   105  H    0.058561
   106  H    0.062609
   107  C   -0.184884
   108  H    0.108971
   109  H    0.104462
   110  C   -0.185647
   111  H    0.092406
   112  H    0.112979
   113  C   -0.176836
   114  H    0.112671
   115  H    0.093329
   116  H    0.109947
   117  H    0.103557
   118  H    0.063641
 Sum of Mulliken charges =   0.00000

 Dipole moment (field-independent basis, Debye):
    X=             -1.7452    Y=              1.2001    Z=              4.1974  Tot=              4.7015
 Quadrupole moment (field-independent basis, Debye-Ang):
   XX=           -346.9642   YY=           -338.3664   ZZ=           -348.7030
   XY=             -3.4923   XZ=             17.2781   YZ=             17.0278

 Normal termination of Gaussian 16 at Mon Oct 18 04:11:39 2021.
