 Gaussian 16, Revision C.01,
 Gaussian 16:  ES64L-G16RevC.01  3-Jul-2019

 ---------------------------------------------------------------------
 #P MP2/aug-cc-pVDZ SP SCF=(YQC,MaxCycle=900) int=(Grid=Superfinegrid)
 ---------------------------------------------------------------------

 -----------------------------
 _3_alde1_6_ami2_1_opt_gas_mp2
 -----------------------------
 Symbolic Z-matrix:
 Charge =  0 Multiplicity = 1

                         Standard orientation:
 ---------------------------------------------------------------------
 Center     Atomic      Atomic             Coordinates (Angstroms)
 Number     Number       Type             X           Y           Z
 ---------------------------------------------------------------------
      1          6           0        4.601102   -0.057915   -0.219484
      2          6           0        5.467600   -1.197569   -0.691892
      3          6           0        3.919302   -0.163855    0.981758
      4          6           0        3.119191    0.878888    1.447400
      5          1           0        3.980413   -1.058114    1.581195
      6          6           0        2.996649    2.034451    0.684588
      7          6           0        3.663455    2.148776   -0.531246
      8          1           0        2.383855    2.860374    1.012689
      9          6           0        4.461916    1.096360   -0.975447
     10          6           0        3.515894    3.344655   -1.354205
     11          1           0        4.986122    1.187848   -1.916821
     12          6           0        2.445824    0.773847    2.737665
     13          1           0        3.788394    3.206178   -2.407009
     14          1           0        1.790149    1.616851    2.985539
     15          6           0       -3.072860   -2.532000    0.483351
     16          6           0       -3.400176   -3.474390   -0.639113
     17          6           0       -3.912377   -1.481303    0.816258
     18          6           0       -3.553836   -0.578186    1.819190
     19          1           0       -4.854140   -1.346100    0.309132
     20          6           0       -2.357251   -0.754312    2.501761
     21          6           0       -1.532617   -1.840165    2.216351
     22          1           0       -2.056299   -0.071050    3.281067
     23          6           0       -1.896892   -2.718505    1.198992
     24          6           0       -0.313930   -2.070985    2.977812
     25          1           0       -1.271632   -3.564023    0.955965
     26          6           0       -4.394780    0.572188    2.128854
     27          1           0        0.297854   -2.928759    2.657963
     28          1           0       -3.891561    1.352575    2.712563
     29          6           0       -1.221279    0.974591   -2.110405
     30          6           0       -0.593584   -0.237480   -2.764358
     31          6           0       -0.509963    2.144740   -1.906013
     32          6           0       -1.095461    3.219780   -1.236238
     33          1           0        0.504586    2.233608   -2.258111
     34          6           0       -2.406187    3.122133   -0.786723
     35          6           0       -3.148412    1.970091   -1.034317
     36          1           0       -2.882683    3.940684   -0.269264
     37          6           0       -2.540584    0.899823   -1.685550
     38          6           0       -4.536250    1.852844   -0.622241
     39          1           0       -3.106938   -0.004455   -1.860454
     40          6           0       -0.324162    4.433004   -0.990463
     41          1           0       -5.039223    0.925502   -0.934687
     42          1           0       -0.623957    5.016912   -0.104778
     43          6           0        6.827639   -2.902136    0.024405
     44          6           0        5.468030   -3.561817   -0.325089
     45          7           0        6.539053   -1.495335    0.239696
     46          1           0        7.306826   -3.343764    0.895700
     47          7           0        4.669358   -2.432097   -0.816595
     48          6           0        5.619247   -4.658917   -1.375674
     49          6           0        4.793845   -4.126100    0.930536
     50          6           0       -2.746218   -4.509567   -2.559068
     51          6           0       -4.027179   -3.669901   -2.885146
     52          7           0       -2.206194   -3.967271   -1.325362
     53          1           0       -2.010083   -4.472366   -3.360546
     54          7           0       -4.271735   -2.896735   -1.661344
     55          6           0       -5.231015   -4.575296   -3.146833
     56          6           0       -3.791421   -2.744395   -4.076296
     57          6           0        0.906978   -1.762709   -1.717360
     58          6           0        1.645637   -0.517254   -2.258041
     59          7           0       -0.507316   -1.361035   -1.801927
     60          6           0        1.327929   -2.107544   -0.297166
     61          6           0        1.125088   -2.970159   -2.636148
     62          7           0        0.748744    0.045701   -3.253314
     63          1           0        2.621744   -0.740039   -2.683426
     64          6           0        2.085302   -0.378707    4.800209
     65          6           0        1.178239   -1.631062    4.714813
     66          7           0        2.658558   -0.212253    3.492689
     67          6           0        3.264925   -0.690308    5.731564
     68          6           0        1.279741    0.801331    5.351057
     69          7           0       -0.000414   -1.351471    3.964984
     70          1           0        0.861551   -1.887129    5.730957
     71          1           0        0.961389    0.576129    6.365220
     72          6           0        2.889036    5.626269   -1.626898
     73          6           0        1.385070    5.950296   -1.437691
     74          7           0        3.110496    4.428745   -0.859627
     75          6           0        3.729413    6.731854   -0.977949
     76          6           0        3.194413    5.538756   -3.125804
     77          7           0        0.615954    4.788430   -1.748162
     78          1           0        1.111740    6.743528   -2.140346
     79          1           0        4.230637    5.251439   -3.294304
     80          6           0       -6.410332    1.809470    1.906605
     81          6           0       -6.464368    2.459326    0.487875
     82          7           0       -5.592830    0.640534    1.742766
     83          6           0       -7.813318    1.324081    2.282450
     84          6           0       -5.920608    2.852651    2.916579
     85          7           0       -5.137983    2.743034    0.043868
     86          1           0       -7.017781    3.397851    0.554520
     87          1           0       -1.605151   -3.167177   -1.536413
     88          1           0       -3.922797   -4.358073   -0.234645
     89          1           0       -4.008169   -1.927027   -1.811284
     90          1           0        0.897140   -0.407305   -4.147845
     91          1           0       -0.828745   -1.049633   -0.888823
     92          1           0       -1.235014   -0.543218   -3.605916
     93          1           0        4.360986   -2.574577   -1.769748
     94          1           0        6.207181   -1.347241    1.188030
     95          1           0        5.933936   -0.930150   -1.657227
     96          1           0       -3.023367   -5.553433   -2.381740
     97          1           0       -3.655808   -3.325721   -4.985667
     98          1           0       -2.900029   -2.138501   -3.915357
     99          1           0       -4.644472   -2.082311   -4.214005
    100          1           0        7.508565   -2.979732   -0.830232
    101          1           0        4.720348   -3.359976    1.698337
    102          1           0        5.363398   -4.965248    1.322764
    103          1           0        3.788535   -4.462702    0.689889
    104          1           0        1.771241    0.208802   -1.449129
    105          1           0        0.848298   -2.732768   -3.661480
    106          1           0        0.512790   -3.803847   -2.301803
    107          1           0        2.169106   -3.272114   -2.613533
    108          1           0        1.759382   -2.468555    4.295308
    109          1           0        1.889166    1.703030    5.369567
    110          1           0        0.394182    0.969351    4.744418
    111          1           0        1.203490    6.308125   -0.411825
    112          1           0        3.032506    6.511630   -3.582944
    113          1           0        2.531824    4.817729   -3.598044
    114          1           0       -6.986199    1.760316   -0.181727
    115          1           0       -6.107400   -3.971183   -3.366769
    116          1           0       -5.442664   -5.175987   -2.266429
    117          1           0       -5.034101   -5.235077   -3.988494
    118          1           0        4.649382   -5.094825   -1.607766
    119          1           0        6.271650   -5.445787   -1.004565
    120          1           0        6.051709   -4.257613   -2.291337
    121          1           0        0.815544   -3.007402    0.032850
    122          1           0        1.087804   -1.294449    0.386858
    123          1           0        2.402543   -2.275451   -0.266696
    124          1           0        2.909074   -0.942563    6.727066
    125          1           0        3.917982    0.176784    5.798999
    126          1           0        3.839594   -1.523409    5.335926
    127          1           0       -5.732509    2.386939    3.882563
    128          1           0       -6.684420    3.615432    3.042884
    129          1           0       -5.012492    3.332088    2.559984
    130          1           0       -8.114781    0.518769    1.618329
    131          1           0       -8.531717    2.136721    2.210728
    132          1           0       -7.808544    0.945162    3.301786
    133          1           0        3.463359    7.701857   -1.390519
    134          1           0        4.785801    6.547726   -1.159951
    135          1           0        3.562634    6.741198    0.095858
 ---------------------------------------------------------------------

 SCF Done:  E(RHF) =  -2626.79137177     a.u. after    7 cycles
 SCF Done:  E(RHF) =  -2626.79141486     A.U. after   25 cycles
 E2 =    -0.9387756475D+01 EUMP2 =    -0.26361791713380D+04

 The electronic state is 1-A.
 Alpha  occ. eigenvalues --  -15.55769 -15.55765 -15.55679 -15.55555 -15.55486
 Alpha  occ. eigenvalues --  -15.55361 -15.55089 -15.55075 -15.55073 -15.55060
 Alpha  occ. eigenvalues --  -15.54296 -15.53440 -11.29647 -11.29491 -11.28334
 Alpha  occ. eigenvalues --  -11.28283 -11.28156 -11.27947 -11.27932 -11.27899
 Alpha  occ. eigenvalues --  -11.27858 -11.26886 -11.26530 -11.26383 -11.26320
 Alpha  occ. eigenvalues --  -11.26114 -11.25782 -11.25626 -11.25275 -11.25157
 Alpha  occ. eigenvalues --  -11.24845 -11.24768 -11.24642 -11.24497 -11.24473
 Alpha  occ. eigenvalues --  -11.24444 -11.24440 -11.24384 -11.24339 -11.24335
 Alpha  occ. eigenvalues --  -11.24327 -11.24253 -11.24251 -11.24183 -11.24144
 Alpha  occ. eigenvalues --  -11.24092 -11.24080 -11.23963 -11.23837 -11.23811
 Alpha  occ. eigenvalues --  -11.23420 -11.22967 -11.22180 -11.21895 -11.21833
 Alpha  occ. eigenvalues --  -11.21522 -11.21454 -11.21297 -11.21232 -11.21212
 Alpha  occ. eigenvalues --  -11.21083 -11.20928 -11.20589  -1.28588  -1.28171
 Alpha  occ. eigenvalues --   -1.27455  -1.26040  -1.25840  -1.25765  -1.23354
 Alpha  occ. eigenvalues --   -1.22945  -1.22366  -1.16992  -1.16556  -1.16281
 Alpha  occ. eigenvalues --   -1.15633  -1.15418  -1.14155  -1.08948  -1.08641
 Alpha  occ. eigenvalues --   -1.08254  -1.07316  -1.06948  -1.05946  -1.04700
 Alpha  occ. eigenvalues --   -1.03261  -1.02652  -1.02318  -1.02049  -1.01949
 Alpha  occ. eigenvalues --   -0.94665  -0.94544  -0.94355  -0.94065  -0.93896
 Alpha  occ. eigenvalues --   -0.93891  -0.93836  -0.93789  -0.93627  -0.92831
 Alpha  occ. eigenvalues --   -0.92436  -0.91686  -0.89452  -0.88661  -0.88532
 Alpha  occ. eigenvalues --   -0.87203  -0.86311  -0.86134  -0.85224  -0.84292
 Alpha  occ. eigenvalues --   -0.83178  -0.79869  -0.79379  -0.79293  -0.77467
 Alpha  occ. eigenvalues --   -0.77343  -0.76621  -0.76258  -0.75503  -0.74892
 Alpha  occ. eigenvalues --   -0.73942  -0.72162  -0.71465  -0.70590  -0.70432
 Alpha  occ. eigenvalues --   -0.70140  -0.69949  -0.68760  -0.67844  -0.67452
 Alpha  occ. eigenvalues --   -0.67250  -0.67179  -0.66655  -0.66011  -0.65575
 Alpha  occ. eigenvalues --   -0.65226  -0.64592  -0.64367  -0.63909  -0.63702
 Alpha  occ. eigenvalues --   -0.63414  -0.62975  -0.62597  -0.62330  -0.62029
 Alpha  occ. eigenvalues --   -0.61975  -0.61780  -0.61559  -0.61221  -0.60967
 Alpha  occ. eigenvalues --   -0.60800  -0.60381  -0.60293  -0.60075  -0.59674
 Alpha  occ. eigenvalues --   -0.59463  -0.58503  -0.58315  -0.58136  -0.56795
 Alpha  occ. eigenvalues --   -0.56713  -0.56444  -0.56044  -0.55849  -0.55235
 Alpha  occ. eigenvalues --   -0.55194  -0.55079  -0.54668  -0.54616  -0.54571
 Alpha  occ. eigenvalues --   -0.54283  -0.53984  -0.53963  -0.53609  -0.53554
 Alpha  occ. eigenvalues --   -0.53459  -0.53294  -0.53192  -0.53004  -0.52800
 Alpha  occ. eigenvalues --   -0.52697  -0.52529  -0.52083  -0.52031  -0.51909
 Alpha  occ. eigenvalues --   -0.51518  -0.51351  -0.51326  -0.51079  -0.50842
 Alpha  occ. eigenvalues --   -0.50668  -0.50573  -0.50388  -0.49916  -0.49294
 Alpha  occ. eigenvalues --   -0.48868  -0.48778  -0.48553  -0.48377  -0.47860
 Alpha  occ. eigenvalues --   -0.47651  -0.47545  -0.47338  -0.47169  -0.46924
 Alpha  occ. eigenvalues --   -0.46455  -0.46356  -0.45168  -0.44030  -0.43664
 Alpha  occ. eigenvalues --   -0.41444  -0.40905  -0.40639  -0.40132  -0.39993
 Alpha  occ. eigenvalues --   -0.39383  -0.39293  -0.39128  -0.38907  -0.38862
 Alpha  occ. eigenvalues --   -0.38823  -0.38233  -0.37453  -0.37209  -0.36288
 Alpha  occ. eigenvalues --   -0.32901  -0.32641  -0.32395  -0.31866  -0.31547
 Alpha  occ. eigenvalues --   -0.31284
 Alpha virt. eigenvalues --    0.02490   0.03107   0.03308   0.03354   0.03819
 Alpha virt. eigenvalues --    0.03908   0.03943   0.04132   0.04334   0.04740
 Alpha virt. eigenvalues --    0.04787   0.04863   0.04997   0.05144   0.05270

 Mulliken charges:
               1
     1  C    0.805863
     2  C    0.326882
     3  C    0.881515
     4  C    1.048121
     5  H   -1.350094
     6  C    0.260682
     7  C    1.371231
     8  H   -1.084298
     9  C    0.225629
    10  C    0.368437
    11  H   -0.859167
    12  C   -0.074336
    13  H   -0.843086
    14  H   -0.971082
    15  C    1.109602
    16  C    0.923223
    17  C    0.253686
    18  C    0.995033
    19  H   -1.074025
    20  C   -0.005375
    21  C    1.051250
    22  H   -0.894652
    23  C    0.154840
    24  C    0.657616
    25  H   -0.903598
    26  C    0.438030
    27  H   -0.794915
    28  H   -0.870109
    29  C   -0.032561
    30  C    1.426893
    31  C    0.857141
    32  C    0.704178
    33  H   -0.965069
    34  C   -0.496233
    35  C    1.421431
    36  H   -0.904516
    37  C    1.295459
    38  C    1.093944
    39  H   -1.129116
    40  C    0.634671
    41  H   -0.582141
    42  H   -0.653459
    43  C    1.561508
    44  C   -2.896477
    45  N   -0.577040
    46  H   -0.242069
    47  N    0.234212
    48  C    1.070790
    49  C    1.501187
    50  C    1.486274
    51  C   -2.246723
    52  N   -0.071498
    53  H   -0.388341
    54  N   -0.169438
    55  C    1.336321
    56  C    1.185773
    57  C   -1.336630
    58  C    1.981907
    59  N   -0.743422
    60  C    1.576632
    61  C    1.714433
    62  N   -1.072825
    63  H   -0.438322
    64  C   -3.873024
    65  C    1.652121
    66  N    0.383987
    67  C    1.981167
    68  C    1.593446
    69  N   -0.380362
    70  H   -0.275515
    71  H   -0.150661
    72  C   -3.865292
    73  C    1.582914
    74  N    0.054332
    75  C    1.703396
    76  C    1.594152
    77  N   -0.480594
    78  H   -0.243519
    79  H    0.008598
    80  C   -3.464262
    81  C    1.172675
    82  N   -0.117085
    83  C    1.565701
    84  C    1.521041
    85  N   -0.796474
    86  H   -0.325400
    87  H    0.223163
    88  H   -0.312613
    89  H   -0.479779
    90  H    0.018176
    91  H    0.205002
    92  H   -0.227052
    93  H   -0.044236
    94  H    0.100793
    95  H   -0.574228
    96  H   -0.427292
    97  H   -0.034557
    98  H   -0.702372
    99  H    0.010491
   100  H   -0.290662
   101  H   -0.108660
   102  H   -0.118875
   103  H   -0.146600
   104  H   -1.088593
   105  H   -0.010056
   106  H   -0.139447
   107  H   -0.301933
   108  H   -0.218801
   109  H    0.050690
   110  H    0.031490
   111  H   -0.221590
   112  H   -0.170660
   113  H    0.102423
   114  H   -0.138191
   115  H   -0.098875
   116  H   -0.047161
   117  H   -0.060320
   118  H   -0.023776
   119  H   -0.069297
   120  H   -0.082105
   121  H   -0.185352
   122  H   -0.627236
   123  H   -1.513310
   124  H   -0.078904
   125  H   -0.066723
   126  H   -0.018498
   127  H    0.057392
   128  H   -0.153897
   129  H    0.074174
   130  H   -0.048932
   131  H   -0.017769
   132  H   -0.046288
   133  H    0.009605
   134  H   -0.055280
   135  H   -0.058596
 Sum of Mulliken charges =   0.00000

 Dipole moment (field-independent basis, Debye):
    X=              2.8656    Y=             -1.4825    Z=             -1.6993  Tot=              3.6465
 Quadrupole moment (field-independent basis, Debye-Ang):
   XX=           -396.0680   YY=           -379.5008   ZZ=           -373.7910
   XY=            -17.8054   XZ=             -7.2470   YZ=              9.9400

 Normal termination of Gaussian 16 at Thu Nov 18 01:34:32 2021.
