 Gaussian 16, Revision C.01,
 Gaussian 16:  ES64L-G16RevC.01  3-Jul-2019

 ----------------------------------------------------------------------
 #P PBE1PBE/Def2TZVP SP SCF=(YQC,MaxCycle=900) int=(Grid=Superfinegrid)
  EmpiricalDispersion=GD3 SCRF=(PCM,Solvent=Chloroform)
 ----------------------------------------------------------------------

 -------------------------
 _3_alde1_5_ami2_1_opt_cfm
 -------------------------
 Symbolic Z-matrix:
 Charge =  0 Multiplicity = 1

                         Standard orientation:
 ---------------------------------------------------------------------
 Center     Atomic      Atomic             Coordinates (Angstroms)
 Number     Number       Type             X           Y           Z
 ---------------------------------------------------------------------
      1          6           0       -2.530528    2.457952   -0.535201
      2          6           0       -2.797442    3.357366    0.577289
      3          6           0       -3.255749    1.283195   -0.717855
      4          6           0       -2.922710    0.400773   -1.741886
      5          1           0       -4.080437    1.054732   -0.063154
      6          6           0       -1.829613    0.681240   -2.560025
      7          6           0       -1.100926    1.854913   -2.394886
      8          1           0       -1.555404   -0.018461   -3.337566
      9          6           0       -1.476456    2.748955   -1.395986
     10          6           0        0.081089    2.111986   -3.210617
     11          1           0       -0.906995    3.658632   -1.289898
     12          6           0       -3.680319   -0.822158   -1.961169
     13          1           0        0.441697    1.243130   -3.775095
     14          1           0       -2.270409    4.323092    0.537118
     15          1           0       -3.259448   -1.512653   -2.708252
     16          6           0        0.529899   -3.552440   -0.954428
     17          6           0        1.171023   -3.836214   -2.299134
     18          6           0        1.315164   -3.430603    0.179955
     19          6           0        0.738495   -3.121113    1.411340
     20          1           0        2.383635   -3.556074    0.117999
     21          6           0       -0.638478   -2.939462    1.491775
     22          6           0       -1.440949   -3.111373    0.368467
     23          1           0       -1.091946   -2.686337    2.440918
     24          6           0       -0.846210   -3.418229   -0.854126
     25          6           0       -2.887190   -2.960002    0.483813
     26          1           0       -1.469250   -3.531190   -1.726203
     27          6           0        1.564333   -2.965907    2.597443
     28          1           0       -3.222039   -2.436397    1.388039
     29          1           0        1.046729   -2.587242    3.493890
     30          6           0        0.613619    2.115977    2.388900
     31          6           0       -0.596176    2.231322    3.197408
     32          6           0        0.824927    2.979178    1.315549
     33          6           0        1.898985    2.794924    0.452486
     34          1           0        0.113329    3.773713    1.156574
     35          6           0        2.795810    1.754831    0.692914
     36          6           0        2.633334    0.923561    1.795099
     37          1           0        3.623139    1.620141    0.013315
     38          6           0        1.530468    1.099461    2.629790
     39          6           0        3.596863   -0.141960    2.053916
     40          1           0        1.409161    0.425052    3.463790
     41          6           0        2.029709    3.657326   -0.711106
     42          1           0        4.253063   -0.380289    1.209650
     43          1           0        1.369259    4.537393   -0.718167
     44          6           0       -2.615332    3.375293    3.770776
     45          6           0       -3.578723    3.921139    2.675771
     46          7           0       -1.349902    3.235246    3.100758
     47          7           0       -3.534551    3.042173    1.551639
     48          1           0       -3.259019    4.942417    2.416955
     49          6           0        2.468653   -1.948244   -2.839884
     50          6           0        0.978214   -1.791833   -3.277235
     51          7           0        2.538575   -3.322005   -2.324969
     52          7           0        0.428190   -3.135467   -3.344791
     53          6           0       -5.402034   -2.321757   -1.564268
     54          6           0       -5.090275   -3.269013   -0.370731
     55          7           0       -4.755860   -1.069177   -1.349710
     56          1           0       -6.480040   -2.150035   -1.602577
     57          7           0       -3.662078   -3.426730   -0.392369
     58          6           0       -5.687592   -4.649711   -0.663180
     59          6           0        1.859881    3.551903   -3.902596
     60          6           0        2.744645    4.246530   -2.825398
     61          7           0        0.634437    3.242741   -3.217675
     62          6           0        2.623864    2.364628   -4.496041
     63          7           0        2.814171    3.409001   -1.669251
     64          1           0        2.298383    5.226491   -2.598039
     65          6           0        3.566532   -2.996657    3.774862
     66          6           0        4.520882   -1.802818    3.494299
     67          7           0        2.792688   -3.252266    2.605741
     68          1           0        2.942231   -2.749331    4.648666
     69          7           0        3.645485   -0.707297    3.178023
     70          1           0       -0.792350    1.369183    3.846684
     71          1           0        0.638695   -3.551154   -4.248684
     72          1           0        1.155401   -4.918528   -2.471867
     73          1           0        3.134752   -3.896062   -2.909574
     74          1           0       -4.596702    3.938996    3.069485
     75          1           0       -5.066002   -2.814854   -2.489464
     76          6           0       -5.699818   -2.687917    0.908794
     77          6           0        1.523656    4.566149   -5.001977
     78          1           0        3.752747    4.381208   -3.222326
     79          1           0        4.168741   -3.882501    3.990561
     80          6           0        5.530308   -2.206086    2.415901
     81          6           0        5.247581   -1.427193    4.790212
     82          1           0        6.158641   -1.359938    2.143333
     83          1           0        5.010313   -2.576208    1.536050
     84          1           0        6.167512   -2.998467    2.799328
     85          6           0       -2.444015    4.439389    4.861036
     86          6           0       -3.202902    2.093414    4.368033
     87          1           0       -1.974312    5.327357    4.445983
     88          1           0       -1.809436    4.054316    5.656433
     89          1           0       -3.410673    4.709171    5.278530
     90          1           0        0.919762    5.371774   -4.592981
     91          1           0        0.957113    4.079091   -5.792762
     92          1           0        2.435295    4.981406   -5.423834
     93          1           0       -6.783472   -2.704162    0.828943
     94          1           0       -5.380788   -1.657961    1.046240
     95          1           0       -5.408027   -3.281251    1.773696
     96          1           0       -4.181123    2.306462    4.790591
     97          1           0       -2.567565    1.705058    5.161691
     98          1           0       -3.314832    1.342893    3.589125
     99          1           0        2.895562    1.669219   -3.705363
    100          1           0        3.532867    2.721915   -4.973019
    101          1           0        2.024559    1.851203   -5.245970
    102          1           0        5.955759   -0.625050    4.595150
    103          1           0        5.785052   -2.284624    5.187147
    104          1           0        4.531021   -1.080287    5.529784
    105          1           0       -6.755413   -4.571855   -0.851257
    106          1           0       -5.525460   -5.307126    0.187918
    107          1           0       -5.201138   -5.085846   -1.531277
    108          1           0        0.876016   -1.277876   -4.232410
    109          1           0        0.428860   -1.242657   -2.507776
    110          6           0        2.820307   -0.963585   -1.723793
    111          1           0        2.664037    0.061674   -2.052037
    112          1           0        3.862073   -1.089333   -1.439334
    113          1           0        2.198562   -1.147567   -0.851606
    114          6           0        3.416370   -1.761432   -4.025484
    115          1           0        3.144946   -2.423691   -4.848044
    116          1           0        4.439023   -1.983016   -3.726045
    117          1           0        3.379225   -0.735419   -4.383700
 ---------------------------------------------------------------------

 SCF Done:  E(RPBE1PBE) =  -2372.70813464     a.u. after    7 cycles
 SCF Done:  E(RPBE1PBE) =  -2372.70816315     A.U. after    8 cycles

 The electronic state is 1-A.
 Alpha  occ. eigenvalues --  -14.37732 -14.37568 -14.37499 -14.37389 -14.37370
 Alpha  occ. eigenvalues --  -14.37369 -14.37238 -14.37190 -14.37064 -14.36456
 Alpha  occ. eigenvalues --  -10.27855 -10.26741 -10.26738 -10.26563 -10.26553
 Alpha  occ. eigenvalues --  -10.26385 -10.26332 -10.26300 -10.26281 -10.26279
 Alpha  occ. eigenvalues --  -10.26229 -10.26165 -10.26100 -10.25513 -10.24378
 Alpha  occ. eigenvalues --  -10.24281 -10.24262 -10.24232 -10.24192 -10.24168
 Alpha  occ. eigenvalues --  -10.24155 -10.24095 -10.24083 -10.24069 -10.24038
 Alpha  occ. eigenvalues --  -10.23867 -10.23685 -10.23617 -10.23590 -10.23572
 Alpha  occ. eigenvalues --  -10.23419 -10.23407 -10.23389 -10.23245 -10.23073
 Alpha  occ. eigenvalues --  -10.22364 -10.22219 -10.21081 -10.21005 -10.20993
 Alpha  occ. eigenvalues --  -10.20840 -10.20651 -10.20547 -10.20515 -10.20307
 Alpha  occ. eigenvalues --  -10.20284 -10.19701  -0.99439  -0.97758  -0.97544
 Alpha  occ. eigenvalues --   -0.97391  -0.97369  -0.95042  -0.94685  -0.94618
 Alpha  occ. eigenvalues --   -0.94447  -0.90235  -0.89530  -0.89156  -0.88162
 Alpha  occ. eigenvalues --   -0.83858  -0.83470  -0.83184  -0.82075  -0.81280
 Alpha  occ. eigenvalues --   -0.80550  -0.79817  -0.78747  -0.78419  -0.78017
 Alpha  occ. eigenvalues --   -0.77655  -0.72031  -0.71978  -0.71817  -0.71641
 Alpha  occ. eigenvalues --   -0.71597  -0.71354  -0.71203  -0.71149  -0.71047
 Alpha  occ. eigenvalues --   -0.69785  -0.68439  -0.68069  -0.67614  -0.67405
 Alpha  occ. eigenvalues --   -0.66103  -0.65498  -0.64855  -0.64202  -0.63447
 Alpha  occ. eigenvalues --   -0.60773  -0.59882  -0.58935  -0.58195  -0.57816
 Alpha  occ. eigenvalues --   -0.57623  -0.57240  -0.55099  -0.54942  -0.54718
 Alpha  occ. eigenvalues --   -0.53847  -0.53735  -0.53463  -0.53006  -0.52200
 Alpha  occ. eigenvalues --   -0.52040  -0.51456  -0.51078  -0.50695  -0.50041
 Alpha  occ. eigenvalues --   -0.49701  -0.49452  -0.49175  -0.48852  -0.48501
 Alpha  occ. eigenvalues --   -0.48013  -0.47856  -0.47650  -0.47571  -0.47519
 Alpha  occ. eigenvalues --   -0.47283  -0.46726  -0.46589  -0.46190  -0.45337
 Alpha  occ. eigenvalues --   -0.45279  -0.45043  -0.44944  -0.44849  -0.44694
 Alpha  occ. eigenvalues --   -0.44424  -0.44057  -0.42695  -0.42641  -0.42097
 Alpha  occ. eigenvalues --   -0.41715  -0.41679  -0.41356  -0.41279  -0.41085
 Alpha  occ. eigenvalues --   -0.40982  -0.40932  -0.40604  -0.40470  -0.40143
 Alpha  occ. eigenvalues --   -0.39966  -0.39931  -0.39673  -0.39580  -0.39522
 Alpha  occ. eigenvalues --   -0.39438  -0.39243  -0.39115  -0.38873  -0.38462
 Alpha  occ. eigenvalues --   -0.38257  -0.37870  -0.37734  -0.37518  -0.37183
 Alpha  occ. eigenvalues --   -0.37123  -0.36837  -0.36519  -0.36281  -0.36226
 Alpha  occ. eigenvalues --   -0.36077  -0.36023  -0.35662  -0.35289  -0.34960
 Alpha  occ. eigenvalues --   -0.34589  -0.34337  -0.34142  -0.34044  -0.33896
 Alpha  occ. eigenvalues --   -0.33790  -0.33427  -0.31121  -0.30440  -0.29961
 Alpha  occ. eigenvalues --   -0.27162  -0.26850  -0.26785  -0.26741  -0.26632
 Alpha  occ. eigenvalues --   -0.26480  -0.26396  -0.26302  -0.26209  -0.26004
 Alpha  occ. eigenvalues --   -0.25806  -0.25520  -0.25482  -0.25306  -0.24879
 Alpha  occ. eigenvalues --   -0.23796
 Alpha virt. eigenvalues --   -0.06656  -0.05913  -0.05581  -0.05227  -0.05070
 Alpha virt. eigenvalues --   -0.02957  -0.02103  -0.01385   0.00968   0.03176
 Alpha virt. eigenvalues --    0.03539   0.04755   0.04959   0.05033   0.05299

 Mulliken charges:
               1
     1  C    0.429644
     2  C   -0.192900
     3  C   -0.405622
     4  C    0.355571
     5  H    0.132049
     6  C   -0.355039
     7  C    0.280882
     8  H    0.165070
     9  C   -0.307538
    10  C   -0.142436
    11  H    0.129179
    12  C   -0.182838
    13  H    0.090799
    14  H    0.093371
    15  H    0.084605
    16  C    0.174365
    17  C    0.171780
    18  C   -0.392037
    19  C    0.370958
    20  H    0.143104
    21  C   -0.372201
    22  C    0.354003
    23  H    0.121461
    24  C   -0.385393
    25  C   -0.165206
    26  H    0.112565
    27  C   -0.191648
    28  H    0.098225
    29  H    0.075348
    30  C    0.341135
    31  C   -0.154498
    32  C   -0.301908
    33  C    0.389726
    34  H    0.127210
    35  C   -0.373527
    36  C    0.344693
    37  H    0.127525
    38  C   -0.388493
    39  C   -0.132324
    40  H    0.118463
    41  C   -0.195447
    42  H    0.103410
    43  H    0.097455
    44  C    0.136753
    45  C   -0.049127
    46  N   -0.193434
    47  N   -0.205863
    48  H    0.083718
    49  C    0.172100
    50  C   -0.217820
    51  N   -0.331616
    52  N   -0.312954
    53  C   -0.062079
    54  C    0.155565
    55  N   -0.196174
    56  H    0.121247
    57  N   -0.199190
    58  C   -0.362365
    59  C    0.157925
    60  C   -0.044351
    61  N   -0.191061
    62  C   -0.468888
    63  N   -0.213073
    64  H    0.086267
    65  C   -0.066904
    66  C    0.158412
    67  N   -0.195307
    68  H    0.080164
    69  N   -0.204663
    70  H    0.092084
    71  H    0.200158
    72  H    0.122705
    73  H    0.204458
    74  H    0.121234
    75  H    0.085297
    76  C   -0.440972
    77  C   -0.374442
    78  H    0.119372
    79  H    0.120739
    80  C   -0.444125
    81  C   -0.362411
    82  H    0.133794
    83  H    0.153383
    84  H    0.132286
    85  C   -0.374411
    86  C   -0.446227
    87  H    0.130795
    88  H    0.129109
    89  H    0.127495
    90  H    0.131961
    91  H    0.127782
    92  H    0.127071
    93  H    0.132533
    94  H    0.151695
    95  H    0.134260
    96  H    0.132515
    97  H    0.132536
    98  H    0.148991
    99  H    0.133293
   100  H    0.135003
   101  H    0.135383
   102  H    0.127099
   103  H    0.122512
   104  H    0.127300
   105  H    0.121489
   106  H    0.126104
   107  H    0.127607
   108  H    0.143412
   109  H    0.124554
   110  C   -0.489705
   111  H    0.135048
   112  H    0.113639
   113  H    0.157231
   114  C   -0.412834
   115  H    0.124040
   116  H    0.136170
   117  H    0.132165
 Sum of Mulliken charges =   0.00000

 Dipole moment (field-independent basis, Debye):
    X=              2.1283    Y=             -0.5049    Z=             -2.4443  Tot=              3.2801
 Quadrupole moment (field-independent basis, Debye-Ang):
   XX=           -337.9100   YY=           -337.4832   ZZ=           -305.0357
   XY=             -2.5363   XZ=            -19.2110   YZ=              5.3432

 Normal termination of Gaussian 16 at Mon Oct 18 13:54:52 2021.
