 Gaussian 16, Revision C.01,
 Gaussian 16:  ES64L-G16RevC.01  3-Jul-2019

 ----------------------------------------------------------------------
 #P PBE1PBE/Def2TZVP SP SCF=(YQC,MaxCycle=900) int=(Grid=Superfinegrid)
  EmpiricalDispersion=GD3
 ----------------------------------------------------------------------

 -------------------------
 _3_alde1_6_ami4_1_opt_gas
 -------------------------
 Symbolic Z-matrix:
 Charge =  0 Multiplicity = 1

                         Standard orientation:
 ---------------------------------------------------------------------
 Center     Atomic      Atomic             Coordinates (Angstroms)
 Number     Number       Type             X           Y           Z
 ---------------------------------------------------------------------
      1          6           0        3.132171   -1.426707    0.124162
      2          6           0        3.625467   -1.639482    1.534442
      3          6           0        2.343948   -2.395943   -0.484875
      4          6           0        1.911024   -2.237381   -1.800179
      5          1           0        2.084222   -3.287431    0.068679
      6          6           0        2.251850   -1.078837   -2.495289
      7          6           0        3.043535   -0.108129   -1.896840
      8          1           0        1.903756   -0.969786   -3.510729
      9          6           0        3.486521   -0.293885   -0.586509
     10          6           0        3.392488    1.105726   -2.621140
     11          1           0        4.100416    0.461471   -0.125720
     12          6           0        1.128252   -3.280029   -2.446898
     13          1           0        2.749172    1.352069   -3.480616
     14          1           0        0.803092   -4.108558   -1.797601
     15          6           0       -2.606347   -1.789614    0.569552
     16          6           0       -2.151239   -2.574723    1.772665
     17          6           0       -3.270208   -0.579117    0.695238
     18          6           0       -3.664751    0.132839   -0.437627
     19          1           0       -3.484081   -0.179032    1.676289
     20          6           0       -3.343078   -0.355701   -1.701670
     21          6           0       -2.666777   -1.561700   -1.835572
     22          1           0       -3.640391    0.218993   -2.565419
     23          6           0       -2.318938   -2.280483   -0.692924
     24          6           0       -2.260799   -2.062007   -3.141455
     25          1           0       -1.821407   -3.229304   -0.811666
     26          6           0       -4.392123    1.381717   -0.281712
     27          1           0       -2.277615   -1.333877   -3.967044
     28          1           0       -4.524543    1.724183    0.755547
     29          6           0       -0.101212    2.402689    1.793514
     30          6           0       -0.279768    1.743093    3.135947
     31          6           0        1.183421    2.579341    1.294139
     32          6           0        1.389059    3.219202    0.074224
     33          1           0        2.029804    2.217816    1.859863
     34          6           0        0.290077    3.652984   -0.664126
     35          6           0       -0.997189    3.474758   -0.176037
     36          1           0        0.467503    4.143514   -1.608991
     37          6           0       -1.184617    2.853009    1.060024
     38          6           0       -2.146854    3.902566   -0.960471
     39          1           0       -2.187147    2.718045    1.429697
     40          6           0        2.743313    3.437009   -0.408151
     41          1           0       -1.967417    4.027937   -2.040095
     42          1           0        3.541101    3.001181    0.210468
     43          6           0        3.587540   -0.292985    3.471498
     44          6           0        3.000631   -1.689399    3.737535
     45          7           0        4.168560   -0.402493    2.134533
     46          1           0        2.766355    0.431640    3.436952
     47          7           0        2.572380   -2.123710    2.417006
     48          1           0        3.776849   -2.375704    4.093570
     49          6           0       -0.315307   -3.696182    2.594672
     50          6           0       -1.214048   -4.746732    1.920302
     51          7           0       -0.710112   -2.444154    1.962424
     52          1           0        0.751948   -3.871060    2.480662
     53          7           0       -2.433063   -4.012541    1.594785
     54          1           0       -1.408552   -5.612959    2.552598
     55          6           0       -0.412450   -0.176329    4.357124
     56          6           0       -1.774186    0.543639    4.496280
     57          7           0        0.197968    0.371223    3.155626
     58          1           0       -0.506110   -1.255682    4.276732
     59          7           0       -1.682367    1.655453    3.554668
     60          1           0       -1.951218    0.864325    5.528893
     61          6           0        0.052487   -4.278273   -4.251425
     62          6           0       -1.347419   -3.699842   -4.536648
     63          7           0        0.865336   -3.251723   -3.680512
     64          1           0        0.507683   -4.590864   -5.194611
     65          7           0       -1.883598   -3.254657   -3.293337
     66          1           0       -1.980903   -4.503212   -4.923750
     67          6           0        4.594819    3.072630   -2.937718
     68          6           0        4.344236    4.191494   -1.903188
     69          7           0        4.370029    1.826477   -2.282876
     70          1           0        5.640134    3.119138   -3.253660
     71          7           0        2.989517    4.099459   -1.455464
     72          1           0        4.486012    5.161785   -2.383933
     73          6           0       -5.458708    3.300477   -1.012895
     74          6           0       -4.402532    4.397989   -1.263485
     75          7           0       -4.852461    2.029647   -1.263033
     76          1           0       -6.289830    3.435735   -1.708426
     77          7           0       -3.275268    4.107677   -0.438114
     78          1           0       -4.822881    5.360437   -0.959038
     79          1           0       -0.269378   -2.384336    1.046341
     80          1           0       -2.645400   -2.186094    2.679370
     81          1           0       -3.219184   -4.302521    2.160260
     82          1           0       -2.019352    2.528375    3.940027
     83          1           0       -0.177224   -0.123985    2.348293
     84          1           0        0.329779    2.299670    3.879711
     85          1           0        1.710708   -1.628513    2.196736
     86          1           0        5.179610   -0.442112    2.170875
     87          1           0        4.408018   -2.421378    1.502210
     88          1           0       -0.554514   -3.630001    3.661673
     89          1           0        4.321572    0.022055    4.213042
     90          1           0       -2.600500   -0.108489    4.193421
     91          1           0       -1.276310   -2.895038   -5.285658
     92          1           0        5.066245    4.066593   -1.082397
     93          1           0       -4.146754    4.430594   -2.334815
     94          1           0        2.167871   -1.685364    4.435582
     95          1           0        0.230449    0.070093    5.209048
     96          1           0       -0.058763   -5.146492   -3.582707
     97          1           0        3.934934    3.224204   -3.807222
     98          1           0       -5.815449    3.394680    0.024105
     99          1           0       -0.754485   -5.093448    0.986619
 ---------------------------------------------------------------------

 SCF Done:  E(RPBE1PBE) =  -2170.27519315     a.u. after    7 cycles
 SCF Done:  E(RPBE1PBE) =  -2170.27521503     A.U. after    9 cycles

 The electronic state is 1-A.
 Alpha  occ. eigenvalues --  -14.38507 -14.37130 -14.37111 -14.37085 -14.37063
 Alpha  occ. eigenvalues --  -14.37038 -14.37028 -14.36977 -14.36960 -14.36666
 Alpha  occ. eigenvalues --  -14.36581 -14.36530 -10.28402 -10.27874 -10.27736
 Alpha  occ. eigenvalues --  -10.26008 -10.26007 -10.25848 -10.25829 -10.25591
 Alpha  occ. eigenvalues --  -10.25457 -10.24625 -10.24577 -10.24570 -10.24550
 Alpha  occ. eigenvalues --  -10.24462 -10.24446 -10.24395 -10.24382 -10.24194
 Alpha  occ. eigenvalues --  -10.24128 -10.24017 -10.23444 -10.23402 -10.23243
 Alpha  occ. eigenvalues --  -10.23238 -10.23226 -10.23205 -10.23145 -10.23104
 Alpha  occ. eigenvalues --  -10.23055 -10.23007 -10.23000 -10.22995 -10.22687
 Alpha  occ. eigenvalues --  -10.22620 -10.22507 -10.22361 -10.22355 -10.22060
 Alpha  occ. eigenvalues --  -10.22013  -0.99794  -0.99317  -0.98937  -0.96809
 Alpha  occ. eigenvalues --   -0.96698  -0.96661  -0.94386  -0.94044  -0.93825
 Alpha  occ. eigenvalues --   -0.89238  -0.88870  -0.88703  -0.88389  -0.87786
 Alpha  occ. eigenvalues --   -0.87515  -0.81435  -0.81300  -0.81105  -0.80367
 Alpha  occ. eigenvalues --   -0.80215  -0.79268  -0.76997  -0.75581  -0.75547
 Alpha  occ. eigenvalues --   -0.74450  -0.74200  -0.74000  -0.68951  -0.68773
 Alpha  occ. eigenvalues --   -0.68684  -0.66211  -0.66057  -0.65728  -0.64641
 Alpha  occ. eigenvalues --   -0.64403  -0.63730  -0.63447  -0.62889  -0.62434
 Alpha  occ. eigenvalues --   -0.61453  -0.60885  -0.60699  -0.58794  -0.58329
 Alpha  occ. eigenvalues --   -0.57874  -0.55737  -0.55456  -0.55376  -0.54030
 Alpha  occ. eigenvalues --   -0.53752  -0.53467  -0.53364  -0.52851  -0.52404
 Alpha  occ. eigenvalues --   -0.51598  -0.51141  -0.50879  -0.50644  -0.50458
 Alpha  occ. eigenvalues --   -0.50381  -0.49655  -0.49556  -0.48792  -0.47957
 Alpha  occ. eigenvalues --   -0.47784  -0.47246  -0.46978  -0.46216  -0.45938
 Alpha  occ. eigenvalues --   -0.45734  -0.45613  -0.45497  -0.45330  -0.44734
 Alpha  occ. eigenvalues --   -0.44568  -0.44344  -0.44062  -0.43798  -0.43523
 Alpha  occ. eigenvalues --   -0.43384  -0.43176  -0.41997  -0.41238  -0.40975
 Alpha  occ. eigenvalues --   -0.40657  -0.40341  -0.40071  -0.39963  -0.39932
 Alpha  occ. eigenvalues --   -0.39797  -0.39713  -0.39543  -0.39272  -0.38931
 Alpha  occ. eigenvalues --   -0.38849  -0.38697  -0.38438  -0.38366  -0.38086
 Alpha  occ. eigenvalues --   -0.37027  -0.36560  -0.36117  -0.35842  -0.35598
 Alpha  occ. eigenvalues --   -0.35460  -0.35234  -0.35092  -0.34847  -0.34211
 Alpha  occ. eigenvalues --   -0.34145  -0.33967  -0.31499  -0.31273  -0.30912
 Alpha  occ. eigenvalues --   -0.27568  -0.26747  -0.26611  -0.26561  -0.26495
 Alpha  occ. eigenvalues --   -0.26380  -0.26200  -0.26072  -0.25917  -0.25574
 Alpha  occ. eigenvalues --   -0.25428  -0.25353  -0.25006  -0.24800  -0.24616
 Alpha  occ. eigenvalues --   -0.24010  -0.23713  -0.23563
 Alpha virt. eigenvalues --   -0.05355  -0.04921  -0.04738  -0.03599  -0.03475
 Alpha virt. eigenvalues --   -0.03225   0.02046   0.02154   0.02301   0.02875
 Alpha virt. eigenvalues --    0.03704   0.04094   0.04731   0.05442   0.05582

 Mulliken charges:
               1
     1  C    0.234552
     2  C   -0.040757
     3  C   -0.390667
     4  C    0.382356
     5  H    0.143844
     6  C   -0.367071
     7  C    0.415025
     8  H    0.115823
     9  C   -0.345491
    10  C   -0.165729
    11  H    0.131054
    12  C   -0.177019
    13  H    0.067992
    14  H    0.066227
    15  C    0.380828
    16  C   -0.142344
    17  C   -0.349443
    18  C    0.362109
    19  H    0.107311
    20  C   -0.385518
    21  C    0.375346
    22  H    0.116370
    23  C   -0.337731
    24  C   -0.154638
    25  H    0.129967
    26  C   -0.180302
    27  H    0.069800
    28  H    0.071619
    29  C    0.260291
    30  C   -0.050849
    31  C   -0.329284
    32  C    0.340674
    33  H    0.125754
    34  C   -0.377864
    35  C    0.402850
    36  H    0.117256
    37  C   -0.314231
    38  C   -0.160858
    39  H    0.127385
    40  C   -0.178441
    41  H    0.065963
    42  H    0.080460
    43  C   -0.151776
    44  C   -0.079849
    45  N   -0.307592
    46  H    0.097899
    47  N   -0.302517
    48  H    0.083754
    49  C   -0.144095
    50  C   -0.122629
    51  N   -0.343841
    52  H    0.164945
    53  N   -0.263179
    54  H    0.116144
    55  C   -0.141291
    56  C   -0.088799
    57  N   -0.306492
    58  H    0.116423
    59  N   -0.319907
    60  H    0.101024
    61  C   -0.055663
    62  C   -0.075578
    63  N   -0.177144
    64  H    0.114848
    65  N   -0.189812
    66  H    0.113822
    67  C   -0.069948
    68  C   -0.063003
    69  N   -0.179455
    70  H    0.113114
    71  N   -0.179665
    72  H    0.114820
    73  C   -0.058004
    74  C   -0.072496
    75  N   -0.174870
    76  H    0.113944
    77  N   -0.186239
    78  H    0.111712
    79  H    0.215474
    80  H    0.080790
    81  H    0.197831
    82  H    0.202485
    83  H    0.217065
    84  H    0.077420
    85  H    0.193406
    86  H    0.203278
    87  H    0.085562
    88  H    0.077289
    89  H    0.102847
    90  H    0.074879
    91  H    0.069490
    92  H    0.076025
    93  H    0.068807
    94  H    0.115551
    95  H    0.096964
    96  H    0.068975
    97  H    0.068895
    98  H    0.072745
    99  H    0.082998
 Sum of Mulliken charges =   0.00000

 Dipole moment (field-independent basis, Debye):
    X=              0.1228    Y=             -1.4105    Z=              3.8542  Tot=              4.1061
 Quadrupole moment (field-independent basis, Debye-Ang):
   XX=           -297.2098   YY=           -295.9641   ZZ=           -274.2071
   XY=             -2.1581   XZ=             -0.5113   YZ=             -7.7783

 Normal termination of Gaussian 16 at Mon Oct 18 14:45:59 2021.
