 Gaussian 16, Revision C.01,
 Gaussian 16:  ES64L-G16RevC.01  3-Jul-2019

 ----------------------------------------------------------------------
 #P PBE1PBE/Def2TZVP SP SCF=(YQC,MaxCycle=900) int=(Grid=Superfinegrid)
  EmpiricalDispersion=GD3 SCRF=(PCM,Solvent=Dichloromethane)
 ----------------------------------------------------------------------

 -------------------------
 _3_alde1_4_ami2_1_opt_dcm
 -------------------------
 Symbolic Z-matrix:
 Charge =  0 Multiplicity = 1

                         Standard orientation:
 ---------------------------------------------------------------------
 Center     Atomic      Atomic             Coordinates (Angstroms)
 Number     Number       Type             X           Y           Z
 ---------------------------------------------------------------------
      1          6           0        1.283584    1.946405    1.736278
      2          6           0        0.790153    1.367774    2.984207
      3          6           0        0.498902    2.830213    1.007513
      4          6           0        0.948321    3.345344   -0.210153
      5          1           0       -0.467680    3.143945    1.370133
      6          6           0        2.167523    2.919847   -0.724529
      7          6           0        2.956995    2.016823   -0.013588
      8          1           0        2.519352    3.267056   -1.684230
      9          6           0        2.525370    1.567189    1.228957
     10          6           0        4.180531    1.470972   -0.581011
     11          1           0        3.125555    0.886885    1.811494
     12          6           0        0.117187    4.277256   -0.959713
     13          1           0        4.811442    0.899995    0.116164
     14          1           0       -0.288594    1.480265    3.147512
     15          1           0        0.565400    4.706168   -1.868766
     16          6           0       -3.396101   -0.083847    1.791214
     17          6           0       -3.464707   -0.352947    3.233300
     18          6           0       -3.383565   -1.127769    0.871689
     19          6           0       -3.295785   -0.859096   -0.493138
     20          1           0       -3.434875   -2.156049    1.195369
     21          6           0       -3.227493    0.462145   -0.921614
     22          6           0       -3.259724    1.519723   -0.013119
     23          1           0       -3.152532    0.702481   -1.971442
     24          6           0       -3.337126    1.237662    1.344464
     25          6           0       -3.154227    2.898305   -0.480308
     26          1           0       -3.352704    2.031457    2.077800
     27          6           0       -3.255057   -1.936154   -1.478428
     28          1           0       -3.127992    3.658907    0.305325
     29          1           0       -3.514757   -1.430276    3.485985
     30          1           0       -2.957525   -1.616025   -2.483272
     31          6           0        2.044168   -2.244435    1.408862
     32          6           0        2.411136   -1.798010    2.743668
     33          6           0        2.817770   -1.869641    0.317735
     34          6           0        2.408958   -2.160495   -0.983205
     35          1           0        3.734777   -1.317366    0.448272
     36          6           0        1.239209   -2.884822   -1.182491
     37          6           0        0.475217   -3.309495   -0.094101
     38          1           0        0.900042   -3.134351   -2.176529
     39          6           0        0.872167   -2.966965    1.193590
     40          6           0       -0.744218   -4.080328   -0.276857
     41          1           0        0.280394   -3.249049    2.051062
     42          6           0        3.164196   -1.632230   -2.115836
     43          1           0       -1.287223   -4.320958    0.650250
     44          1           0        2.653980   -1.710340   -3.083816
     45          6           0        1.957192   -1.247951    4.943593
     46          6           0        1.169066    0.095634    4.973995
     47          7           0        1.628190   -1.914370    3.726869
     48          7           0        1.573079    0.772561    3.770132
     49          8           0       -3.466524    0.488296    4.096073
     50          6           0       -1.936608    5.359124   -1.335391
     51          6           0       -2.844435    4.462329   -2.241392
     52          7           0       -1.051055    4.548233   -0.569852
     53          7           0       -3.066907    3.142885   -1.713946
     54          6           0        5.587425    0.851973   -2.306917
     55          6           0        5.062039   -0.453961   -2.973452
     56          7           0        4.472043    1.587592   -1.803779
     57          7           0        4.292273   -1.099731   -1.944615
     58          6           0       -3.485559   -4.230086   -2.078077
     59          6           0       -2.395552   -5.165043   -1.485318
     60          7           0       -3.552921   -3.119106   -1.167347
     61          7           0       -1.155380   -4.462656   -1.406974
     62          1           0        3.389709   -1.303160    2.830277
     63          1           0       -1.414392    6.073875   -1.988026
     64          1           0       -2.560460    5.912266   -0.627324
     65          1           0       -2.264658   -6.016992   -2.156543
     66          1           0       -2.738398   -5.516482   -0.499601
     67          1           0        1.644443   -1.868690    5.785216
     68          1           0        3.031255   -1.020422    5.020514
     69          6           0       -3.136246   -3.904341   -3.532772
     70          1           0       -3.845836   -3.191374   -3.948728
     71          1           0       -3.178902   -4.815563   -4.123344
     72          1           0       -2.129459   -3.499305   -3.596768
     73          6           0       -4.842699   -4.938705   -2.004287
     74          1           0       -4.801903   -5.892226   -2.524332
     75          1           0       -5.607330   -4.317187   -2.464742
     76          1           0       -5.116736   -5.108698   -0.966679
     77          6           0       -2.158132    4.245892   -3.595535
     78          1           0       -1.182250    3.789170   -3.447525
     79          1           0       -2.038394    5.187810   -4.124943
     80          1           0       -2.760030    3.571820   -4.198823
     81          6           0       -4.197228    5.152781   -2.449682
     82          1           0       -4.051559    6.139828   -2.881752
     83          1           0       -4.720219    5.254019   -1.500960
     84          1           0       -4.812453    4.558867   -3.121241
     85          6           0       -0.325794   -0.202511    5.105979
     86          1           0       -0.913568    0.711130    5.154408
     87          1           0       -0.504662   -0.767202    6.016926
     88          1           0       -0.657899   -0.796261    4.257056
     89          6           0        1.654887    0.936529    6.159522
     90          1           0        2.704173    1.191026    6.033518
     91          1           0        1.529925    0.384629    7.087446
     92          1           0        1.079644    1.857967    6.215756
     93          6           0        6.254033   -1.362743   -3.295917
     94          1           0        6.759601   -1.655897   -2.379464
     95          1           0        6.957998   -0.844415   -3.941727
     96          1           0        5.906379   -2.261961   -3.800105
     97          1           0        6.291742    0.569053   -1.509829
     98          1           0        6.098927    1.457478   -3.057698
     99          6           0        4.302092   -0.101086   -4.255163
    100          1           0        3.449693    0.530553   -4.015787
    101          1           0        3.958190   -0.998903   -4.764808
    102          1           0        4.960119    0.440731   -4.929101
 ---------------------------------------------------------------------

 SCF Done:  E(RPBE1PBE) =  -2180.12613549     a.u. after    7 cycles
 SCF Done:  E(RPBE1PBE) =  -2180.12614280     A.U. after    8 cycles

 The electronic state is 1-A.
 Alpha  occ. eigenvalues --  -19.21195 -14.37948 -14.37893 -14.37818 -14.37770
 Alpha  occ. eigenvalues --  -14.37720 -14.37622 -14.37566 -14.37335 -10.31638
 Alpha  occ. eigenvalues --  -10.26867 -10.26845 -10.26758 -10.26736 -10.26696
 Alpha  occ. eigenvalues --  -10.26671 -10.26668 -10.26657 -10.26594 -10.26536
 Alpha  occ. eigenvalues --  -10.26522 -10.26505 -10.25004 -10.24940 -10.24879
 Alpha  occ. eigenvalues --  -10.24849 -10.24768 -10.24763 -10.24598 -10.24567
 Alpha  occ. eigenvalues --  -10.24431 -10.24410 -10.24401 -10.24352 -10.24342
 Alpha  occ. eigenvalues --  -10.24328 -10.24322 -10.24265 -10.23984 -10.23921
 Alpha  occ. eigenvalues --  -10.23894 -10.23850 -10.23829 -10.23799 -10.21179
 Alpha  occ. eigenvalues --  -10.21085 -10.20976 -10.20869 -10.20615 -10.20603
 Alpha  occ. eigenvalues --  -10.20500 -10.20276  -1.08941  -0.97956  -0.97846
 Alpha  occ. eigenvalues --   -0.97798  -0.97686  -0.95310  -0.95213  -0.94869
 Alpha  occ. eigenvalues --   -0.94781  -0.90926  -0.90291  -0.89701  -0.84059
 Alpha  occ. eigenvalues --   -0.83884  -0.83505  -0.82523  -0.80748  -0.80728
 Alpha  occ. eigenvalues --   -0.80089  -0.79165  -0.78786  -0.78400  -0.72948
 Alpha  occ. eigenvalues --   -0.72366  -0.72006  -0.71895  -0.71503  -0.71430
 Alpha  occ. eigenvalues --   -0.71307  -0.71232  -0.68825  -0.68581  -0.68335
 Alpha  occ. eigenvalues --   -0.68040  -0.67343  -0.65928  -0.65681  -0.64542
 Alpha  occ. eigenvalues --   -0.63271  -0.61116  -0.60703  -0.59874  -0.59290
 Alpha  occ. eigenvalues --   -0.56730  -0.56094  -0.55898  -0.55143  -0.54679
 Alpha  occ. eigenvalues --   -0.54587  -0.54319  -0.54037  -0.53693  -0.52409
 Alpha  occ. eigenvalues --   -0.51830  -0.51601  -0.50774  -0.50537  -0.50018
 Alpha  occ. eigenvalues --   -0.49610  -0.49324  -0.48866  -0.48648  -0.48462
 Alpha  occ. eigenvalues --   -0.48090  -0.48036  -0.47773  -0.47443  -0.47207
 Alpha  occ. eigenvalues --   -0.47077  -0.46362  -0.45974  -0.45775  -0.45502
 Alpha  occ. eigenvalues --   -0.45110  -0.44935  -0.44801  -0.44484  -0.44061
 Alpha  occ. eigenvalues --   -0.43503  -0.42819  -0.42442  -0.41787  -0.41721
 Alpha  occ. eigenvalues --   -0.41654  -0.41295  -0.41119  -0.41050  -0.40989
 Alpha  occ. eigenvalues --   -0.40774  -0.39980  -0.39957  -0.39848  -0.39736
 Alpha  occ. eigenvalues --   -0.39662  -0.39493  -0.39427  -0.38984  -0.38638
 Alpha  occ. eigenvalues --   -0.38472  -0.38139  -0.37997  -0.37818  -0.37497
 Alpha  occ. eigenvalues --   -0.37157  -0.36831  -0.36763  -0.36529  -0.36361
 Alpha  occ. eigenvalues --   -0.35843  -0.35751  -0.35501  -0.34744  -0.34523
 Alpha  occ. eigenvalues --   -0.34326  -0.34028  -0.33736  -0.32426  -0.30767
 Alpha  occ. eigenvalues --   -0.30224  -0.28543  -0.27845  -0.27381  -0.27319
 Alpha  occ. eigenvalues --   -0.27195  -0.26933  -0.26850  -0.26705  -0.26596
 Alpha  occ. eigenvalues --   -0.26452  -0.26126  -0.25815  -0.25729  -0.25609
 Alpha  occ. eigenvalues --   -0.24841
 Alpha virt. eigenvalues --   -0.07666  -0.06560  -0.06422  -0.05982  -0.05880
 Alpha virt. eigenvalues --   -0.05405  -0.02777  -0.02452  -0.01501   0.04132
 Alpha virt. eigenvalues --    0.04491   0.04742   0.04961   0.05106   0.05201

 Mulliken charges:
               1
     1  C    0.328828
     2  C   -0.148768
     3  C   -0.373538
     4  C    0.378112
     5  H    0.129104
     6  C   -0.378649
     7  C    0.376510
     8  H    0.123705
     9  C   -0.306371
    10  C   -0.178951
    11  H    0.126851
    12  C   -0.176965
    13  H    0.100670
    14  H    0.102356
    15  H    0.107476
    16  C    0.295759
    17  C    0.054428
    18  C   -0.345874
    19  C    0.328852
    20  H    0.129130
    21  C   -0.349170
    22  C    0.378572
    23  H    0.130972
    24  C   -0.346297
    25  C   -0.143544
    26  H    0.138134
    27  C   -0.127490
    28  H    0.098694
    29  H    0.104308
    30  H    0.105884
    31  C    0.361838
    32  C   -0.183467
    33  C   -0.298969
    34  C    0.321654
    35  H    0.132458
    36  C   -0.384479
    37  C    0.358573
    38  H    0.135155
    39  C   -0.348344
    40  C   -0.160393
    41  H    0.126290
    42  C   -0.151402
    43  H    0.084726
    44  H    0.099626
    45  C   -0.052534
    46  C    0.152391
    47  N   -0.218369
    48  N   -0.192801
    49  O   -0.328378
    50  C   -0.140584
    51  C    0.177294
    52  N   -0.209769
    53  N   -0.200564
    54  C   -0.054461
    55  C    0.131425
    56  N   -0.218432
    57  N   -0.193237
    58  C    0.153627
    59  C   -0.072548
    60  N   -0.202040
    61  N   -0.201401
    62  H    0.101440
    63  H    0.110184
    64  H    0.133759
    65  H    0.125887
    66  H    0.088647
    67  H    0.123941
    68  H    0.085873
    69  C   -0.440883
    70  H    0.138587
    71  H    0.136986
    72  H    0.146358
    73  C   -0.367385
    74  H    0.126551
    75  H    0.129808
    76  H    0.128640
    77  C   -0.395298
    78  H    0.130558
    79  H    0.124988
    80  H    0.125954
    81  C   -0.400002
    82  H    0.132836
    83  H    0.133839
    84  H    0.131171
    85  C   -0.471613
    86  H    0.141846
    87  H    0.135452
    88  H    0.141923
    89  C   -0.374277
    90  H    0.130481
    91  H    0.129286
    92  H    0.131073
    93  C   -0.376813
    94  H    0.130925
    95  H    0.129964
    96  H    0.131351
    97  H    0.087362
    98  H    0.124260
    99  C   -0.444763
   100  H    0.145227
   101  H    0.135652
   102  H    0.134615
 Sum of Mulliken charges =   0.00000

 Dipole moment (field-independent basis, Debye):
    X=              0.2071    Y=              0.5055    Z=             -3.9731  Tot=              4.0104
 Quadrupole moment (field-independent basis, Debye-Ang):
   XX=           -301.8448   YY=           -291.7326   ZZ=           -300.0890
   XY=              1.0300   XZ=              7.1405   YZ=             -6.1643

 Normal termination of Gaussian 16 at Mon Oct 18 05:38:47 2021.
