 Gaussian 16, Revision C.01,
 Gaussian 16:  ES64L-G16RevC.01  3-Jul-2019

 ----------------------------------------------------------------------
 #P PBE1PBE/Def2TZVP SP SCF=(YQC,MaxCycle=900) int=(Grid=Superfinegrid)
  EmpiricalDispersion=GD3 SCRF=(PCM,Solvent=Dichloromethane)
 ----------------------------------------------------------------------

 -------------------------
 _3_alde1_5_ami3_1_opt_dcm
 -------------------------
 Symbolic Z-matrix:
 Charge =  0 Multiplicity = 1

                         Standard orientation:
 ---------------------------------------------------------------------
 Center     Atomic      Atomic             Coordinates (Angstroms)
 Number     Number       Type             X           Y           Z
 ---------------------------------------------------------------------
      1          6           0       -0.900568    0.020281   -2.792257
      2          6           0       -0.176461   -1.129426   -3.310537
      3          6           0       -0.297659    1.255068   -2.555796
      4          6           0       -1.044037    2.318226   -2.054122
      5          1           0        0.751861    1.371721   -2.778758
      6          6           0       -2.384635    2.121655   -1.722241
      7          6           0       -2.997456    0.895098   -1.946008
      8          1           0       -2.932516    2.953062   -1.305636
      9          6           0       -2.255239   -0.137957   -2.512940
     10          6           0       -4.373948    0.661484   -1.528568
     11          1           0       -2.752421   -1.076286   -2.701496
     12          6           0       -0.436610    3.629194   -1.874711
     13          1           0       -4.753427    1.349679   -0.756476
     14          1           0       -0.826837   -1.963262   -3.617141
     15          1           0        0.624480    3.705295   -2.152671
     16          6           0        2.840820    1.169554    0.453350
     17          6           0        3.740434    0.792637   -0.694216
     18          6           0        2.680609    0.326452    1.542970
     19          6           0        1.853295    0.684513    2.606298
     20          1           0        3.193626   -0.623871    1.552782
     21          6           0        1.153118    1.887510    2.553453
     22          6           0        1.309209    2.739718    1.468068
     23          1           0        0.496060    2.136599    3.372435
     24          6           0        2.171946    2.380277    0.432302
     25          6           0        0.521514    3.957228    1.342126
     26          1           0        2.290212    3.060593   -0.395488
     27          6           0        1.708937   -0.217841    3.736576
     28          1           0       -0.380736    4.016229    1.971163
     29          1           0        2.227863   -1.184711    3.637434
     30          6           0       -0.513862   -2.840130    0.117777
     31          6           0        0.713986   -2.948626   -0.657267
     32          6           0       -1.749939   -2.986425   -0.508435
     33          6           0       -2.930230   -2.696727    0.167364
     34          1           0       -1.763701   -3.287712   -1.544373
     35          6           0       -2.872667   -2.300829    1.502753
     36          6           0       -1.650784   -2.218388    2.160204
     37          1           0       -3.795842   -2.062067    2.008251
     38          6           0       -0.473637   -2.473220    1.458076
     39          6           0       -1.587097   -1.781732    3.549546
     40          1           0        0.467647   -2.356454    1.971972
     41          6           0       -4.181754   -2.689901   -0.571454
     42          1           0       -2.434458   -1.168561    3.895507
     43          1           0       -4.111580   -3.043863   -1.611555
     44          6           0        1.932317   -3.359672   -2.591669
     45          6           0        1.604255   -2.487727   -3.831328
     46          7           0        0.739485   -3.459001   -1.811688
     47          1           0        2.743586   -2.876256   -2.021244
     48          6           0        2.396386   -4.734257   -3.074912
     49          7           0        1.081117   -1.223905   -3.394830
     50          1           0        0.847514   -3.041551   -4.414865
     51          6           0        2.865837   -2.313091   -4.671129
     52          1           0        1.584887   -5.205432   -3.632011
     53          6           0        3.636043   -4.597813   -3.953875
     54          1           0        3.628710   -1.811073   -4.073168
     55          6           0        3.370774   -3.674232   -5.140369
     56          1           0        3.939663   -5.583051   -4.313658
     57          1           0        4.456849   -4.193300   -3.357770
     58          1           0        4.285493   -3.548745   -5.723594
     59          1           0        2.620040   -4.128652   -5.791090
     60          6           0        5.223841   -1.016110   -0.701597
     61          6           0        5.949870    0.287910   -1.074378
     62          7           0        3.816452   -0.676732   -0.864133
     63          1           0        5.386285   -1.205754    0.371846
     64          6           0        5.797282   -2.177503   -1.488211
     65          7           0        5.100320    1.314449   -0.490779
     66          1           0        5.891837    0.422720   -2.164538
     67          6           0        7.404753    0.219645   -0.659402
     68          1           0        5.673529   -1.998237   -2.559683
     69          6           0        7.286655   -2.277387   -1.141780
     70          1           0        7.477091    0.072331    0.421077
     71          6           0        8.035138   -0.965688   -1.398453
     72          1           0        7.746692   -3.074508   -1.729209
     73          1           0        7.384254   -2.544081   -0.086615
     74          1           0        9.075521   -1.080676   -1.088663
     75          1           0        8.029052   -0.754532   -2.470389
     76          6           0       -0.425398    5.864817   -1.232431
     77          6           0       -0.047072    5.951620    0.267951
     78          7           0       -1.093792    4.618356   -1.445923
     79          1           0        0.516806    5.923046   -1.804932
     80          6           0       -1.342446    7.028194   -1.600815
     81          7           0        0.834036    4.858816    0.518712
     82          1           0       -0.972825    5.884942    0.868496
     83          6           0        0.651286    7.284752    0.536115
     84          1           0       -2.263670    6.941831   -1.022233
     85          6           0       -0.659148    8.360515   -1.313307
     86          1           0        1.575432    7.316303   -0.043409
     87          6           0       -0.254059    8.450767    0.154996
     88          1           0       -1.332823    9.182039   -1.565142
     89          1           0        0.231002    8.452614   -1.940073
     90          1           0        0.264277    9.393470    0.341688
     91          1           0       -1.150545    8.431494    0.779376
     92          6           0       -6.351953   -0.563974   -1.415543
     93          6           0       -6.359273   -2.055010   -0.995421
     94          7           0       -5.067907   -0.288552   -1.981068
     95          1           0       -6.537473    0.053285   -0.517849
     96          6           0       -7.473303   -0.330888   -2.428550
     97          7           0       -5.260857   -2.237365   -0.097493
     98          1           0       -6.229581   -2.653184   -1.915350
     99          6           0       -7.694957   -2.388786   -0.340013
    100          1           0       -7.286880   -0.945991   -3.310568
    101          6           0       -8.820764   -0.684941   -1.806797
    102          1           0       -7.813610   -1.772962    0.552981
    103          6           0       -8.835632   -2.132011   -1.320269
    104          1           0       -9.614345   -0.532359   -2.541063
    105          1           0       -9.012901   -0.018412   -0.962559
    106          1           0       -9.791360   -2.351087   -0.839947
    107          1           0       -8.730464   -2.801683   -2.177173
    108          6           0        0.875335   -0.925401    5.778652
    109          6           0       -0.536839   -1.530793    5.615864
    110          7           0        1.038110    0.071408    4.765736
    111          1           0        1.599973   -1.750207    5.651669
    112          6           0        1.012625   -0.319289    7.172821
    113          7           0       -0.613788   -2.071105    4.294507
    114          1           0       -1.285507   -0.733461    5.772544
    115          6           0       -0.736405   -2.623855    6.667490
    116          1           0        0.281234    0.483406    7.279444
    117          6           0        0.788191   -1.388757    8.236954
    118          1           0       -0.000657   -3.412303    6.499537
    119          6           0       -0.581188   -2.041534    8.068684
    120          1           0        0.866940   -0.942642    9.230461
    121          1           0        1.564949   -2.152160    8.150042
    122          1           0       -0.709836   -2.832504    8.810312
    123          1           0       -1.360562   -1.294526    8.236561
    124          1           0        1.605997   -2.498637   -0.196829
    125          1           0        5.289417    1.391019    0.506135
    126          1           0        3.348194    1.250081   -1.614031
    127          1           0        3.479519   -0.924438   -1.788380
    128          1           0        2.615503   -5.360605   -2.207522
    129          1           0        2.640103   -1.675544   -5.528153
    130          1           0        5.290203   -3.110479   -1.232563
    131          1           0        7.924716    1.144414   -0.913049
    132          1           0       -1.602590    6.954028   -2.658603
    133          1           0        0.916048    7.338530    1.594392
    134          1           0       -7.461713    0.716135   -2.739443
    135          1           0       -7.690221   -3.435142   -0.028732
    136          1           0        2.007784    0.117574    7.276616
    137          1           0       -1.730619   -3.059226    6.544176
 ---------------------------------------------------------------------

 SCF Done:  E(RPBE1PBE) =  -2759.54863308     a.u. after    7 cycles
 SCF Done:  E(RPBE1PBE) =  -2759.54864479     A.U. after    9 cycles

 The electronic state is 1-A.
 Alpha  occ. eigenvalues --  -14.37935 -14.37862 -14.37851 -14.37718 -14.37603
 Alpha  occ. eigenvalues --  -14.37592 -14.37540 -14.37430 -14.37302 -14.36778
 Alpha  occ. eigenvalues --  -10.27825 -10.26787 -10.26681 -10.26640 -10.26528
 Alpha  occ. eigenvalues --  -10.26501 -10.26477 -10.26471 -10.26302 -10.25222
 Alpha  occ. eigenvalues --  -10.25206 -10.25153 -10.25108 -10.25103 -10.24974
 Alpha  occ. eigenvalues --  -10.24937 -10.24827 -10.24513 -10.24446 -10.24436
 Alpha  occ. eigenvalues --  -10.24428 -10.24352 -10.24313 -10.24247 -10.24221
 Alpha  occ. eigenvalues --  -10.24147 -10.23994 -10.23941 -10.23909 -10.23893
 Alpha  occ. eigenvalues --  -10.23881 -10.23875 -10.23862 -10.23607 -10.23320
 Alpha  occ. eigenvalues --  -10.23236 -10.22954 -10.21861 -10.21687 -10.21672
 Alpha  occ. eigenvalues --  -10.21653 -10.21637 -10.21633 -10.21612 -10.21587
 Alpha  occ. eigenvalues --  -10.21483 -10.21456 -10.21427 -10.21417 -10.21386
 Alpha  occ. eigenvalues --  -10.21354 -10.21330 -10.21311 -10.21299 -10.21279
 Alpha  occ. eigenvalues --  -10.21256 -10.21229  -0.99264  -0.98008  -0.97854
 Alpha  occ. eigenvalues --   -0.97794  -0.97724  -0.95306  -0.95096  -0.94874
 Alpha  occ. eigenvalues --   -0.94829  -0.90595  -0.89844  -0.89723  -0.88112
 Alpha  occ. eigenvalues --   -0.85940  -0.85763  -0.85668  -0.85335  -0.85000
 Alpha  occ. eigenvalues --   -0.81049  -0.81020  -0.80904  -0.80861  -0.80551
 Alpha  occ. eigenvalues --   -0.80269  -0.76915  -0.76728  -0.76478  -0.76355
 Alpha  occ. eigenvalues --   -0.76200  -0.76122  -0.75572  -0.75328  -0.75295
 Alpha  occ. eigenvalues --   -0.74294  -0.68743  -0.68457  -0.68429  -0.68048
 Alpha  occ. eigenvalues --   -0.67381  -0.67057  -0.66670  -0.66246  -0.65619
 Alpha  occ. eigenvalues --   -0.62975  -0.62866  -0.62747  -0.62618  -0.62417
 Alpha  occ. eigenvalues --   -0.62352  -0.62178  -0.61646  -0.61108  -0.60533
 Alpha  occ. eigenvalues --   -0.59256  -0.58532  -0.58288  -0.58217  -0.58132
 Alpha  occ. eigenvalues --   -0.57276  -0.56335  -0.56250  -0.56070  -0.55941
 Alpha  occ. eigenvalues --   -0.55816  -0.53979  -0.53352  -0.53316  -0.52816
 Alpha  occ. eigenvalues --   -0.52598  -0.52523  -0.51424  -0.51217  -0.50923
 Alpha  occ. eigenvalues --   -0.50597  -0.50155  -0.49681  -0.49649  -0.49294
 Alpha  occ. eigenvalues --   -0.49063  -0.48282  -0.47985  -0.47724  -0.47577
 Alpha  occ. eigenvalues --   -0.47418  -0.47387  -0.47312  -0.47222  -0.47107
 Alpha  occ. eigenvalues --   -0.46315  -0.46138  -0.45866  -0.45451  -0.45125
 Alpha  occ. eigenvalues --   -0.44887  -0.44699  -0.44535  -0.44422  -0.44105
 Alpha  occ. eigenvalues --   -0.44005  -0.43890  -0.43713  -0.43556  -0.43524
 Alpha  occ. eigenvalues --   -0.43137  -0.42255  -0.42210  -0.42122  -0.42069
 Alpha  occ. eigenvalues --   -0.41514  -0.41441  -0.41407  -0.41004  -0.40530
 Alpha  occ. eigenvalues --   -0.40235  -0.40072  -0.39925  -0.39864  -0.39724
 Alpha  occ. eigenvalues --   -0.38679  -0.38468  -0.38302  -0.37999  -0.37852
 Alpha  occ. eigenvalues --   -0.37326  -0.37162  -0.36737  -0.36660  -0.36499
 Alpha  occ. eigenvalues --   -0.36313  -0.36158  -0.36116  -0.36075  -0.36006
 Alpha  occ. eigenvalues --   -0.35903  -0.35799  -0.35704  -0.35576  -0.35449
 Alpha  occ. eigenvalues --   -0.35439  -0.34973  -0.34191  -0.34158  -0.34006
 Alpha  occ. eigenvalues --   -0.33951  -0.33711  -0.33600  -0.33557  -0.33492
 Alpha  occ. eigenvalues --   -0.33133  -0.32461  -0.32316  -0.32136  -0.32028
 Alpha  occ. eigenvalues --   -0.31864  -0.31724  -0.30549  -0.30040  -0.29274
 Alpha  occ. eigenvalues --   -0.27899  -0.27611  -0.27522  -0.27464  -0.27302
 Alpha  occ. eigenvalues --   -0.27091  -0.27050  -0.26915  -0.26374  -0.25998
 Alpha  occ. eigenvalues --   -0.25862  -0.25610  -0.25508  -0.25386  -0.24914
 Alpha  occ. eigenvalues --   -0.24011
 Alpha virt. eigenvalues --   -0.06537  -0.06390  -0.05770  -0.05389  -0.05351
 Alpha virt. eigenvalues --   -0.04264  -0.02514  -0.01354   0.01929   0.03561
 Alpha virt. eigenvalues --    0.03906   0.04323   0.04497   0.04805   0.04994

 Mulliken charges:
               1
     1  C    0.355245
     2  C   -0.190186
     3  C   -0.378278
     4  C    0.375605
     5  H    0.133747
     6  C   -0.360662
     7  C    0.314881
     8  H    0.123935
     9  C   -0.277559
    10  C   -0.171967
    11  H    0.128960
    12  C   -0.177823
    13  H    0.088657
    14  H    0.103877
    15  H    0.100440
    16  C    0.284859
    17  C   -0.035447
    18  C   -0.306855
    19  C    0.374275
    20  H    0.145021
    21  C   -0.393735
    22  C    0.382286
    23  H    0.116846
    24  C   -0.451039
    25  C   -0.168084
    26  H    0.124643
    27  C   -0.192322
    28  H    0.089175
    29  H    0.090417
    30  C    0.318943
    31  C   -0.149407
    32  C   -0.325498
    33  C    0.372289
    34  H    0.136731
    35  C   -0.394416
    36  C    0.364967
    37  H    0.121522
    38  C   -0.337360
    39  C   -0.170458
    40  H    0.125314
    41  C   -0.167573
    42  H    0.090438
    43  H    0.098456
    44  C    0.019271
    45  C    0.063392
    46  N   -0.207894
    47  H    0.046881
    48  C   -0.196898
    49  N   -0.221648
    50  H    0.071150
    51  C   -0.185441
    52  H    0.104931
    53  C   -0.182050
    54  H    0.107466
    55  C   -0.187581
    56  H    0.111547
    57  H    0.097904
    58  H    0.112801
    59  H    0.096115
    60  C   -0.057108
    61  C   -0.053360
    62  N   -0.273547
    63  H    0.061803
    64  C   -0.218352
    65  N   -0.291330
    66  H    0.062449
    67  C   -0.148834
    68  H    0.102701
    69  C   -0.176042
    70  H    0.098823
    71  C   -0.202498
    72  H    0.116574
    73  H    0.101357
    74  H    0.115805
    75  H    0.101146
    76  C    0.028510
    77  C    0.022594
    78  N   -0.200179
    79  H    0.062710
    80  C   -0.166310
    81  N   -0.197808
    82  H    0.055890
    83  C   -0.192937
    84  H    0.099650
    85  C   -0.190007
    86  H    0.104494
    87  C   -0.181906
    88  H    0.112872
    89  H    0.094092
    90  H    0.113367
    91  H    0.093716
    92  C    0.019946
    93  C    0.050149
    94  N   -0.198147
    95  H    0.057611
    96  C   -0.194656
    97  N   -0.204034
    98  H    0.060968
    99  C   -0.174098
   100  H    0.104818
   101  C   -0.181277
   102  H    0.100773
   103  C   -0.195305
   104  H    0.113803
   105  H    0.094907
   106  H    0.113388
   107  H    0.095238
   108  C    0.065372
   109  C    0.014526
   110  N   -0.199211
   111  H    0.054836
   112  C   -0.174109
   113  N   -0.197490
   114  H    0.058168
   115  C   -0.196602
   116  H    0.100031
   117  C   -0.191766
   118  H    0.104381
   119  C   -0.179803
   120  H    0.113148
   121  H    0.094100
   122  H    0.113477
   123  H    0.094452
   124  H    0.107028
   125  H    0.206542
   126  H    0.095547
   127  H    0.178215
   128  H    0.111047
   129  H    0.109116
   130  H    0.118281
   131  H    0.109645
   132  H    0.108984
   133  H    0.111916
   134  H    0.113376
   135  H    0.109226
   136  H    0.109020
   137  H    0.113324
 Sum of Mulliken charges =   0.00000

 Dipole moment (field-independent basis, Debye):
    X=              1.3022    Y=             -1.2145    Z=             -0.2918  Tot=              1.8044
 Quadrupole moment (field-independent basis, Debye-Ang):
   XX=           -358.6761   YY=           -393.2533   ZZ=           -380.6044
   XY=            -19.3136   XZ=             -8.0343   YZ=              6.7503

 Normal termination of Gaussian 16 at Mon Oct 18 23:18:40 2021.
