 Gaussian 16, Revision C.01,
 Gaussian 16:  ES64L-G16RevC.01  3-Jul-2019

 ----------------------------------------------------------------------
 #P MP2/aug-cc-pVDZ SP SCF=(YQC,MaxCycle=900) int=(Grid=Superfinegrid)
 SCRF=(PCM,Solvent=Chloroform)
 ----------------------------------------------------------------------

 -----------------------------
 _3_alde1_5_ami4_1_opt_cfm_mp2
 -----------------------------
 Symbolic Z-matrix:
 Charge =  0 Multiplicity = 1

                         Standard orientation:
 ---------------------------------------------------------------------
 Center     Atomic      Atomic             Coordinates (Angstroms)
 Number     Number       Type             X           Y           Z
 ---------------------------------------------------------------------
      1          6           0       -3.628169    0.731694    0.920461
      2          6           0       -4.725921   -0.205862    0.741725
      3          6           0       -3.464524    1.828222    0.074437
      4          6           0       -2.372433    2.674959    0.223261
      5          1           0       -4.206531    2.003528   -0.689418
      6          6           0       -1.406112    2.386315    1.185809
      7          6           0       -1.537809    1.276481    2.011883
      8          1           0       -0.545865    3.032935    1.258690
      9          6           0       -2.671719    0.474360    1.896263
     10          6           0       -0.455950    0.895617    2.907566
     11          1           0       -2.767891   -0.372786    2.557233
     12          6           0       -2.179996    3.812769   -0.668722
     13          1           0        0.502416    1.407481    2.730081
     14          1           0       -4.812195   -0.980260    1.518384
     15          1           0       -2.681365    3.746678   -1.646756
     16          6           0        2.946338    0.853174    0.426078
     17          6           0        3.490341    0.158061    1.646917
     18          6           0        2.951591    0.198253   -0.794403
     19          6           0        2.443572    0.814754   -1.937577
     20          1           0        3.327773   -0.809291   -0.862952
     21          6           0        1.940648    2.106951   -1.849319
     22          6           0        1.964971    2.790687   -0.636838
     23          1           0        1.535068    2.610435   -2.713416
     24          6           0        2.464189    2.151316    0.497601
     25          6           0        1.438646    4.141915   -0.531796
     26          1           0        2.480031    2.676669    1.443123
     27          6           0        2.396802    0.093304   -3.201474
     28          1           0        1.467732    4.584977    0.476384
     29          1           0        1.695591    0.491651   -3.951958
     30          6           0       -2.083128   -2.667242   -1.001532
     31          6           0       -3.424032   -2.499710   -1.546166
     32          6           0       -1.880275   -2.636960    0.377096
     33          6           0       -0.595545   -2.662179    0.911087
     34          1           0       -2.745761   -2.561011    1.016347
     35          6           0        0.496969   -2.781436    0.052571
     36          6           0        0.304935   -2.868178   -1.322896
     37          1           0        1.492635   -2.798663    0.467169
     38          6           0       -0.985180   -2.784477   -1.846204
     39          6           0        1.457540   -3.018387   -2.198099
     40          1           0       -1.106742   -2.822451   -2.918094
     41          6           0       -0.438404   -2.516385    2.349137
     42          1           0        2.428015   -3.086756   -1.687373
     43          1           0       -1.367535   -2.607625    2.928929
     44          6           0       -5.741986   -2.300139   -1.370336
     45          6           0       -6.406136   -1.266191   -0.433102
     46          7           0       -4.457852   -2.620411   -0.834835
     47          1           0       -5.682913   -1.895273   -2.392893
     48          7           0       -5.495215   -0.176891   -0.258912
     49          1           0       -6.644072   -1.764225    0.518892
     50          6           0        5.326380   -0.833366    2.580294
     51          6           0        4.336393   -1.966783    2.235696
     52          7           0        4.938429    0.280334    1.728406
     53          1           0        6.368761   -1.104756    2.424646
     54          7           0        3.209942   -1.280668    1.610588
     55          1           0        4.047104   -2.540185    3.120491
     56          6           0       -1.178644    5.835259   -1.270369
     57          6           0        0.350776    6.039163   -1.289522
     58          7           0       -1.464912    4.794320   -0.336245
     59          1           0       -1.543398    5.604503   -2.283499
     60          7           0        0.966961    4.769735   -1.520127
     61          1           0        0.656487    6.480629   -0.327940
     62          6           0        0.542045   -0.458994    4.522715
     63          6           0        0.648540   -1.986839    4.320516
     64          7           0       -0.589938    0.001633    3.786496
     65          1           0        1.478683    0.029418    4.207709
     66          7           0        0.664269   -2.263769    2.914145
     67          1           0       -0.207150   -2.460981    4.822062
     68          6           0        2.940669   -1.672171   -4.622153
     69          6           0        2.553846   -3.114878   -4.233122
     70          7           0        3.106440   -0.925688   -3.417965
     71          1           0        2.169925   -1.245858   -5.284512
     72          7           0        1.353603   -3.070358   -3.455824
     73          1           0        3.393681   -3.555914   -3.676137
     74          1           0       -3.471376   -2.227814   -2.612024
     75          1           0        2.319209   -1.511821    2.044885
     76          1           0        3.079219    0.638182    2.556806
     77          1           0        5.324579    0.149182    0.796788
     78          1           0       -6.355936   -3.205433   -1.374608
     79          1           0       -7.320269   -0.893687   -0.899449
     80          1           0        5.194396   -0.519022    3.620712
     81          1           0        4.778804   -2.658683    1.507832
     82          1           0       -1.647377    6.759940   -0.920596
     83          1           0        0.613237    6.712491   -2.108464
     84          1           0        0.374660   -0.263745    5.585676
     85          1           0        1.581847   -2.344336    4.761344
     86          1           0        3.898434   -1.702348   -5.149195
     87          1           0        2.360628   -3.691912   -5.139864
 ---------------------------------------------------------------------

 SCF Done:  E(RHF) =  -1969.02694029     a.u. after    7 cycles
 SCF Done:  E(RHF) =  -1969.02699934     A.U. after   19 cycles
 E2 =    -0.6820472794D+01 EUMP2 =    -0.19758474721298D+04

 The electronic state is 1-A.
 Alpha  occ. eigenvalues --  -15.56564 -15.56380 -15.56374 -15.56362 -15.56050
 Alpha  occ. eigenvalues --  -15.56016 -15.55856 -15.55823 -15.55350 -15.52874
 Alpha  occ. eigenvalues --  -11.29212 -11.29072 -11.28831 -11.28720 -11.28718
 Alpha  occ. eigenvalues --  -11.28624 -11.28480 -11.28436 -11.28407 -11.26260
 Alpha  occ. eigenvalues --  -11.26057 -11.25905 -11.25814 -11.25673 -11.25645
 Alpha  occ. eigenvalues --  -11.25535 -11.25534 -11.25462 -11.25443 -11.25430
 Alpha  occ. eigenvalues --  -11.25429 -11.25416 -11.25324 -11.25176 -11.25170
 Alpha  occ. eigenvalues --  -11.25160 -11.25118 -11.25111 -11.25023 -11.24958
 Alpha  occ. eigenvalues --  -11.24848 -11.24651 -11.24599 -11.24480 -11.24420
 Alpha  occ. eigenvalues --  -11.24224 -11.23892  -1.27368  -1.26769  -1.26393
 Alpha  occ. eigenvalues --   -1.26248  -1.26129  -1.23913  -1.23404  -1.23308
 Alpha  occ. eigenvalues --   -1.23045  -1.17665  -1.16905  -1.16651  -1.13529
 Alpha  occ. eigenvalues --   -1.07772  -1.07335  -1.07155  -1.05908  -1.05621
 Alpha  occ. eigenvalues --   -1.05222  -1.01730  -1.00162  -0.99667  -0.99633
 Alpha  occ. eigenvalues --   -0.97708  -0.91805  -0.91458  -0.91396  -0.91260
 Alpha  occ. eigenvalues --   -0.87981  -0.87541  -0.86849  -0.85710  -0.83740
 Alpha  occ. eigenvalues --   -0.83171  -0.82696  -0.82006  -0.80645  -0.80056
 Alpha  occ. eigenvalues --   -0.77485  -0.75551  -0.75422  -0.74711  -0.74507
 Alpha  occ. eigenvalues --   -0.74266  -0.71410  -0.71068  -0.70679  -0.69462
 Alpha  occ. eigenvalues --   -0.69217  -0.68241  -0.67704  -0.67265  -0.67203
 Alpha  occ. eigenvalues --   -0.66710  -0.66563  -0.65782  -0.65316  -0.65083
 Alpha  occ. eigenvalues --   -0.64782  -0.63781  -0.62504  -0.62190  -0.62056
 Alpha  occ. eigenvalues --   -0.61695  -0.61564  -0.61498  -0.60712  -0.60247
 Alpha  occ. eigenvalues --   -0.59900  -0.59471  -0.58764  -0.58722  -0.58390
 Alpha  occ. eigenvalues --   -0.57954  -0.55459  -0.55228  -0.54986  -0.54846
 Alpha  occ. eigenvalues --   -0.54734  -0.54117  -0.53961  -0.53697  -0.53510
 Alpha  occ. eigenvalues --   -0.53082  -0.52947  -0.52733  -0.52396  -0.51574
 Alpha  occ. eigenvalues --   -0.50713  -0.50422  -0.50086  -0.49813  -0.49656
 Alpha  occ. eigenvalues --   -0.48927  -0.48254  -0.46079  -0.45680  -0.45480
 Alpha  occ. eigenvalues --   -0.45274  -0.45099  -0.41822  -0.41595  -0.41406
 Alpha  occ. eigenvalues --   -0.40942  -0.40795  -0.40746  -0.40665  -0.40473
 Alpha  occ. eigenvalues --   -0.40087  -0.39972  -0.39840  -0.38888  -0.36014
 Alpha  occ. eigenvalues --   -0.33122  -0.32949  -0.32686  -0.32574  -0.32190
 Alpha  occ. eigenvalues --   -0.31682
 Alpha virt. eigenvalues --    0.03306   0.03576   0.03867   0.03957   0.04397
 Alpha virt. eigenvalues --    0.04435   0.04519   0.04831   0.04926   0.05372
 Alpha virt. eigenvalues --    0.05529   0.05728   0.05779   0.05872   0.05945

 Mulliken charges:
               1
     1  C    0.696749
     2  C    0.814859
     3  C    0.582636
     4  C    0.810261
     5  H   -0.886088
     6  C    0.624690
     7  C    1.252931
     8  H   -0.833111
     9  C    0.250612
    10  C    0.986344
    11  H   -1.066237
    12  C    0.579798
    13  H   -0.807115
    14  H   -0.642507
    15  H   -0.628160
    16  C    1.603718
    17  C    1.074144
    18  C    0.350397
    19  C    0.891076
    20  H   -1.291828
    21  C    0.341106
    22  C    0.736116
    23  H   -0.951524
    24  C   -0.029138
    25  C    1.062815
    26  H   -0.974794
    27  C    0.753105
    28  H   -0.641984
    29  H   -0.672752
    30  C    1.041575
    31  C    0.687837
    32  C   -0.006911
    33  C    1.404088
    34  H   -1.018501
    35  C    0.657965
    36  C    0.899752
    37  H   -0.804263
    38  C    0.189896
    39  C    1.032817
    40  H   -0.887122
    41  C    0.119524
    42  H   -0.752132
    43  H   -0.701569
    44  C    0.711530
    45  C    0.579410
    46  N   -0.691144
    47  H   -0.125520
    48  N   -0.846473
    49  H   -0.098041
    50  C    0.829184
    51  C    0.864369
    52  N   -0.752423
    53  H   -0.239775
    54  N   -0.089534
    55  H   -0.237258
    56  C    0.733237
    57  C    0.573814
    58  N   -0.718603
    59  H   -0.128952
    60  N   -0.855224
    61  H   -0.101098
    62  C    0.980302
    63  C    0.709535
    64  N   -0.800847
    65  H   -0.194059
    66  N   -0.520855
    67  H   -0.182763
    68  C    0.673632
    69  C    0.582168
    70  N   -0.777953
    71  H   -0.122967
    72  N   -0.870013
    73  H   -0.109975
    74  H   -0.693370
    75  H   -0.532104
    76  H   -0.512216
    77  H    0.080322
    78  H   -0.245531
    79  H   -0.320915
    80  H   -0.278835
    81  H   -0.349661
    82  H   -0.242242
    83  H   -0.317100
    84  H   -0.304971
    85  H   -0.309523
    86  H   -0.258939
    87  H   -0.337693
 Sum of Mulliken charges =   0.00000

 Dipole moment (field-independent basis, Debye):
    X=             -0.8723    Y=             -0.8084    Z=              1.2145  Tot=              1.6998
 Quadrupole moment (field-independent basis, Debye-Ang):
   XX=           -277.6965   YY=           -278.5478   ZZ=           -260.1716
   XY=             -4.5574   XZ=             10.7940   YZ=             -7.4437

 Normal termination of Gaussian 16 at Tue Nov  9 08:46:38 2021.
