 Gaussian 16, Revision C.01,
 Gaussian 16:  ES64L-G16RevC.01  3-Jul-2019

 ----------------------------------------------------------------------
 #P MP2/aug-cc-pVDZ SP SCF=(YQC,MaxCycle=900) int=(Grid=Superfinegrid)
 SCRF=(PCM,Solvent=Dichloromethane)
 ----------------------------------------------------------------------

 -----------------------------
 _3_alde1_4_ami4_1_opt_dcm_mp2
 -----------------------------
 Symbolic Z-matrix:
 Charge =  0 Multiplicity = 1

                         Standard orientation:
 ---------------------------------------------------------------------
 Center     Atomic      Atomic             Coordinates (Angstroms)
 Number     Number       Type             X           Y           Z
 ---------------------------------------------------------------------
      1          6           0       -2.656466    1.849698   -0.908834
      2          6           0       -3.567600    1.260516   -1.881684
      3          6           0       -1.642601    2.709427   -1.314370
      4          6           0       -0.730839    3.215564   -0.387433
      5          1           0       -1.545850    3.012400   -2.345795
      6          6           0       -0.808995    2.810519    0.941141
      7          6           0       -1.816586    1.944205    1.360674
      8          1           0       -0.095249    3.158292    1.672402
      9          6           0       -2.752135    1.494494    0.436053
     10          6           0       -1.883075    1.463964    2.732820
     11          1           0       -3.553781    0.837169    0.733341
     12          6           0        0.318765    4.134331   -0.798676
     13          1           0       -2.809024    0.933399    2.997891
     14          1           0       -3.245926    1.322550   -2.932970
     15          1           0        0.960483    4.509070    0.012927
     16          6           0        2.901516    0.637050    1.457922
     17          6           0        2.653931    1.013652    2.855898
     18          6           0        3.184970   -0.691988    1.143016
     19          6           0        3.380004   -1.082575   -0.176846
     20          1           0        3.252146   -1.410861    1.947741
     21          6           0        3.279929   -0.127138   -1.187805
     22          6           0        3.026251    1.206762   -0.885711
     23          1           0        3.418905   -0.449660   -2.208549
     24          6           0        2.840997    1.585134    0.443052
     25          6           0        2.908027    2.193201   -1.953102
     26          1           0        2.640651    2.621631    0.663610
     27          6           0        3.641971   -2.480521   -0.485669
     28          1           0        2.712988    1.788042   -2.957800
     29          1           0        2.443758    2.088314    3.005186
     30          1           0        3.686865   -3.154913    0.382168
     31          6           0       -2.583468   -2.300801   -0.117145
     32          6           0       -3.941021   -1.938156   -0.493826
     33          6           0       -2.108622   -1.945885    1.140364
     34          6           0       -0.778194   -2.170516    1.491689
     35          1           0       -2.748382   -1.456477    1.857903
     36          6           0        0.058113   -2.819450    0.590875
     37          6           0       -0.408465   -3.199489   -0.667336
     38          1           0        1.088335   -3.021537    0.838604
     39          6           0       -1.721127   -2.914298   -1.025100
     40          6           0        0.501063   -3.808820   -1.629083
     41          1           0       -2.099127   -3.163681   -2.004732
     42          6           0       -0.245978   -1.630583    2.735892
     43          1           0        0.201425   -3.725473   -2.685590
     44          1           0        0.848785   -1.648566    2.832877
     45          6           0       -5.644595   -1.451205   -1.975822
     46          6           0       -5.426462   -0.012303   -2.494909
     47          7           0       -4.363352   -2.015448   -1.681256
     48          7           0       -4.633959    0.685321   -1.534411
     49          8           0        2.659252    0.245494    3.785669
     50          6           0        1.625374    5.295168   -2.313937
     51          6           0        2.773634    4.371129   -2.772602
     52          7           0        0.491490    4.481142   -2.000293
     53          7           0        3.014323    3.428261   -1.729463
     54          6           0       -1.055815    0.959908    4.827498
     55          6           0       -0.417589   -0.444650    4.737758
     56          7           0       -0.935488    1.606805    3.555228
     57          7           0       -0.990055   -1.118038    3.615439
     58          6           0        3.897790   -4.310907   -1.870879
     59          6           0        2.499091   -4.844353   -2.249428
     60          7           0        3.792979   -2.899457   -1.666669
     61          7           0        1.570268   -4.372045   -1.272932
     62          1           0       -4.566371   -1.545508    0.321509
     63          1           0       -0.678102   -0.995731    5.646136
     64          1           0        0.675777   -0.358821    4.665298
     65          1           0       -2.107911    0.843522    5.127852
     66          1           0       -0.516545    1.548439    5.571843
     67          1           0        1.974306    5.874970   -1.446261
     68          1           0        1.358398    5.968019   -3.131338
     69          1           0        3.673055    4.977874   -2.907983
     70          1           0        2.506805    3.889074   -3.726314
     71          1           0        2.524807   -5.937401   -2.210813
     72          1           0        2.235082   -4.525625   -3.269999
     73          1           0        4.236752   -4.835365   -0.964935
     74          1           0        4.590789   -4.498655   -2.693409
     75          1           0       -6.401175    0.478749   -2.568596
     76          1           0       -4.956197   -0.039129   -3.490558
     77          1           0       -6.123034   -2.046119   -2.756310
     78          1           0       -6.291651   -1.404238   -1.086922
 ---------------------------------------------------------------------

 SCF Done:  E(RHF) =  -1855.76624022     a.u. after    7 cycles
 SCF Done:  E(RHF) =  -1855.76631731     A.U. after   15 cycles
 E2 =    -0.6340053228D+01 EUMP2 =    -0.18621063705385D+04

 The electronic state is 1-A.
 Alpha  occ. eigenvalues --  -20.57459 -15.56782 -15.56518 -15.56465 -15.56440
 Alpha  occ. eigenvalues --  -15.56212 -15.56113 -15.56099 -15.55950 -11.34970
 Alpha  occ. eigenvalues --  -11.29210 -11.28997 -11.28900 -11.28879 -11.28793
 Alpha  occ. eigenvalues --  -11.28694 -11.28512 -11.28509 -11.26967 -11.26764
 Alpha  occ. eigenvalues --  -11.26634 -11.26029 -11.26008 -11.25985 -11.25929
 Alpha  occ. eigenvalues --  -11.25925 -11.25912 -11.25756 -11.25755 -11.25662
 Alpha  occ. eigenvalues --  -11.25568 -11.25521 -11.25517 -11.25489 -11.25468
 Alpha  occ. eigenvalues --  -11.25421 -11.25310 -11.25279 -11.25265 -11.25251
 Alpha  occ. eigenvalues --  -11.25193 -11.25186 -11.25157 -11.24990  -1.41209
 Alpha  occ. eigenvalues --   -1.26783  -1.26615  -1.26491  -1.26100  -1.23881
 Alpha  occ. eigenvalues --   -1.23857  -1.23399  -1.23079  -1.18503  -1.17582
 Alpha  occ. eigenvalues --   -1.16960  -1.07968  -1.07732  -1.07657  -1.06709
 Alpha  occ. eigenvalues --   -1.05860  -1.05605  -1.01695  -1.00230  -1.00149
 Alpha  occ. eigenvalues --   -0.99452  -0.92032  -0.91919  -0.91687  -0.91296
 Alpha  occ. eigenvalues --   -0.90570  -0.87802  -0.87608  -0.87020  -0.84048
 Alpha  occ. eigenvalues --   -0.83265  -0.82994  -0.81403  -0.79961  -0.76816
 Alpha  occ. eigenvalues --   -0.75728  -0.75389  -0.75299  -0.74669  -0.74213
 Alpha  occ. eigenvalues --   -0.72249  -0.71249  -0.71058  -0.69979  -0.69261
 Alpha  occ. eigenvalues --   -0.68282  -0.67630  -0.67393  -0.66739  -0.66449
 Alpha  occ. eigenvalues --   -0.65934  -0.65884  -0.65397  -0.64887  -0.64438
 Alpha  occ. eigenvalues --   -0.63535  -0.62527  -0.62263  -0.62188  -0.61845
 Alpha  occ. eigenvalues --   -0.61658  -0.61349  -0.60653  -0.60328  -0.59497
 Alpha  occ. eigenvalues --   -0.59233  -0.58904  -0.58756  -0.57093  -0.55582
 Alpha  occ. eigenvalues --   -0.55183  -0.55156  -0.54612  -0.54365  -0.54136
 Alpha  occ. eigenvalues --   -0.54055  -0.53722  -0.53190  -0.53035  -0.52536
 Alpha  occ. eigenvalues --   -0.51733  -0.51129  -0.50721  -0.50272  -0.49957
 Alpha  occ. eigenvalues --   -0.49651  -0.46117  -0.45890  -0.45698  -0.45592
 Alpha  occ. eigenvalues --   -0.45050  -0.43852  -0.42664  -0.41512  -0.41317
 Alpha  occ. eigenvalues --   -0.41150  -0.41112  -0.40748  -0.40627  -0.40534
 Alpha  occ. eigenvalues --   -0.40340  -0.39925  -0.39660  -0.34846  -0.33501
 Alpha  occ. eigenvalues --   -0.33155  -0.32707  -0.32436  -0.32135
 Alpha virt. eigenvalues --    0.03511   0.03840   0.03936   0.03977   0.04531
 Alpha virt. eigenvalues --    0.04571   0.04630   0.04843   0.04903   0.04977
 Alpha virt. eigenvalues --    0.05583   0.05796   0.05844   0.05869   0.06021

 Mulliken charges:
               1
     1  C    1.016203
     2  C    0.649525
     3  C    0.417914
     4  C    0.855775
     5  H   -0.887095
     6  C    0.158703
     7  C    1.320704
     8  H   -0.998721
     9  C    0.210128
    10  C    0.726762
    11  H   -0.994836
    12  C    1.077406
    13  H   -0.664567
    14  H   -0.683183
    15  H   -0.675536
    16  C    0.609606
    17  C    1.275840
    18  C    0.237505
    19  C    0.708070
    20  H   -0.936203
    21  C    0.629918
    22  C    0.232071
    23  H   -0.943378
    24  C    1.066007
    25  C    1.067424
    26  H   -0.983697
    27  C    1.028824
    28  H   -0.670291
    29  H   -0.492773
    30  H   -0.651871
    31  C    0.770257
    32  C    0.754993
    33  C    0.202083
    34  C    1.149029
    35  H   -1.028345
    36  C    0.813179
    37  C    0.717711
    38  H   -0.840150
    39  C    0.587005
    40  C    0.621054
    41  H   -0.894558
    42  C    0.737132
    43  H   -0.638956
    44  H   -0.816623
    45  C    0.574065
    46  C    0.710280
    47  N   -0.837111
    48  N   -0.708809
    49  O   -0.975370
    50  C    0.561957
    51  C    0.698604
    52  N   -0.870849
    53  N   -0.821064
    54  C    0.476810
    55  C    1.061625
    56  N   -0.739549
    57  N   -0.826203
    58  C    0.553752
    59  C    0.738275
    60  N   -0.837408
    61  N   -0.702351
    62  H   -0.631457
    63  H   -0.254987
    64  H   -0.214777
    65  H   -0.112818
    66  H   -0.337234
    67  H   -0.108235
    68  H   -0.322744
    69  H   -0.244048
    70  H   -0.117734
    71  H   -0.238073
    72  H   -0.125473
    73  H   -0.091158
    74  H   -0.316803
    75  H   -0.238403
    76  H   -0.126776
    77  H   -0.317970
    78  H   -0.098011
 Sum of Mulliken charges =   0.00000

 Dipole moment (field-independent basis, Debye):
    X=              0.4307    Y=              0.4995    Z=             -3.8522  Tot=              3.9083
 Quadrupole moment (field-independent basis, Debye-Ang):
   XX=           -254.2556   YY=           -255.1848   ZZ=           -255.1452
   XY=             -0.0316   XZ=             -5.8127   YZ=              3.4661

 Normal termination of Gaussian 16 at Tue Nov  9 15:38:26 2021.
