 Gaussian 16, Revision C.01,
 Gaussian 16:  ES64L-G16RevC.01  3-Jul-2019

 ----------------------------------------------------------------------
 #P MP2/aug-cc-pVDZ SP SCF=(YQC,MaxCycle=900) int=(Grid=Superfinegrid)
 SCRF=(PCM,Solvent=Chloroform)
 ----------------------------------------------------------------------

 -----------------------------
 _3_alde1_6_ami4_1_opt_cfm_mp2
 -----------------------------
 Symbolic Z-matrix:
 Charge =  0 Multiplicity = 1

                         Standard orientation:
 ---------------------------------------------------------------------
 Center     Atomic      Atomic             Coordinates (Angstroms)
 Number     Number       Type             X           Y           Z
 ---------------------------------------------------------------------
      1          6           0        3.132171   -1.426707    0.124162
      2          6           0        3.625467   -1.639482    1.534442
      3          6           0        2.343948   -2.395943   -0.484875
      4          6           0        1.911024   -2.237381   -1.800179
      5          1           0        2.084222   -3.287431    0.068679
      6          6           0        2.251850   -1.078837   -2.495289
      7          6           0        3.043535   -0.108129   -1.896840
      8          1           0        1.903756   -0.969786   -3.510729
      9          6           0        3.486521   -0.293885   -0.586509
     10          6           0        3.392488    1.105726   -2.621140
     11          1           0        4.100416    0.461471   -0.125720
     12          6           0        1.128252   -3.280029   -2.446898
     13          1           0        2.749172    1.352069   -3.480616
     14          1           0        0.803092   -4.108558   -1.797601
     15          6           0       -2.606347   -1.789614    0.569552
     16          6           0       -2.151239   -2.574723    1.772665
     17          6           0       -3.270208   -0.579117    0.695238
     18          6           0       -3.664751    0.132839   -0.437627
     19          1           0       -3.484081   -0.179032    1.676289
     20          6           0       -3.343078   -0.355701   -1.701670
     21          6           0       -2.666777   -1.561700   -1.835572
     22          1           0       -3.640391    0.218993   -2.565419
     23          6           0       -2.318938   -2.280483   -0.692924
     24          6           0       -2.260799   -2.062007   -3.141455
     25          1           0       -1.821407   -3.229304   -0.811666
     26          6           0       -4.392123    1.381717   -0.281712
     27          1           0       -2.277615   -1.333877   -3.967044
     28          1           0       -4.524543    1.724183    0.755547
     29          6           0       -0.101212    2.402689    1.793514
     30          6           0       -0.279768    1.743093    3.135947
     31          6           0        1.183421    2.579341    1.294139
     32          6           0        1.389059    3.219202    0.074224
     33          1           0        2.029804    2.217816    1.859863
     34          6           0        0.290077    3.652984   -0.664126
     35          6           0       -0.997189    3.474758   -0.176037
     36          1           0        0.467503    4.143514   -1.608991
     37          6           0       -1.184617    2.853009    1.060024
     38          6           0       -2.146854    3.902566   -0.960471
     39          1           0       -2.187147    2.718045    1.429697
     40          6           0        2.743313    3.437009   -0.408151
     41          1           0       -1.967417    4.027937   -2.040095
     42          1           0        3.541101    3.001181    0.210468
     43          6           0        3.587540   -0.292985    3.471498
     44          6           0        3.000631   -1.689399    3.737535
     45          7           0        4.168560   -0.402493    2.134533
     46          1           0        2.766355    0.431640    3.436952
     47          7           0        2.572380   -2.123710    2.417006
     48          1           0        3.776849   -2.375704    4.093570
     49          6           0       -0.315307   -3.696182    2.594672
     50          6           0       -1.214048   -4.746732    1.920302
     51          7           0       -0.710112   -2.444154    1.962424
     52          1           0        0.751948   -3.871060    2.480662
     53          7           0       -2.433063   -4.012541    1.594785
     54          1           0       -1.408552   -5.612959    2.552598
     55          6           0       -0.412450   -0.176329    4.357124
     56          6           0       -1.774186    0.543639    4.496280
     57          7           0        0.197968    0.371223    3.155626
     58          1           0       -0.506110   -1.255682    4.276732
     59          7           0       -1.682367    1.655453    3.554668
     60          1           0       -1.951218    0.864325    5.528893
     61          6           0        0.052487   -4.278273   -4.251425
     62          6           0       -1.347419   -3.699842   -4.536648
     63          7           0        0.865336   -3.251723   -3.680512
     64          1           0        0.507683   -4.590864   -5.194611
     65          7           0       -1.883598   -3.254657   -3.293337
     66          1           0       -1.980903   -4.503212   -4.923750
     67          6           0        4.594819    3.072630   -2.937718
     68          6           0        4.344236    4.191494   -1.903188
     69          7           0        4.370029    1.826477   -2.282876
     70          1           0        5.640134    3.119138   -3.253660
     71          7           0        2.989517    4.099459   -1.455464
     72          1           0        4.486012    5.161785   -2.383933
     73          6           0       -5.458708    3.300477   -1.012895
     74          6           0       -4.402532    4.397989   -1.263485
     75          7           0       -4.852461    2.029647   -1.263033
     76          1           0       -6.289830    3.435735   -1.708426
     77          7           0       -3.275268    4.107677   -0.438114
     78          1           0       -4.822881    5.360437   -0.959038
     79          1           0       -0.269378   -2.384336    1.046341
     80          1           0       -2.645400   -2.186094    2.679370
     81          1           0       -3.219184   -4.302521    2.160260
     82          1           0       -2.019352    2.528375    3.940027
     83          1           0       -0.177224   -0.123985    2.348293
     84          1           0        0.329779    2.299670    3.879711
     85          1           0        1.710708   -1.628513    2.196736
     86          1           0        5.179610   -0.442112    2.170875
     87          1           0        4.408018   -2.421378    1.502210
     88          1           0       -0.554514   -3.630001    3.661673
     89          1           0        4.321572    0.022055    4.213042
     90          1           0       -2.600500   -0.108489    4.193421
     91          1           0       -1.276310   -2.895038   -5.285658
     92          1           0        5.066245    4.066593   -1.082397
     93          1           0       -4.146754    4.430594   -2.334815
     94          1           0        2.167871   -1.685364    4.435582
     95          1           0        0.230449    0.070093    5.209048
     96          1           0       -0.058763   -5.146492   -3.582707
     97          1           0        3.934934    3.224204   -3.807222
     98          1           0       -5.815449    3.394680    0.024105
     99          1           0       -0.754485   -5.093448    0.986619
 ---------------------------------------------------------------------

 SCF Done:  E(RHF) =  -2158.34477505     a.u. after    6 cycles
 SCF Done:  E(RHF) =  -2158.34491954     A.U. after   16 cycles
 E2 =    -0.7514067552D+01 EUMP2 =    -0.21658589870911D+04

 The electronic state is 1-A.
 Alpha  occ. eigenvalues --  -15.55885 -15.55868 -15.55866 -15.55857 -15.55855
 Alpha  occ. eigenvalues --  -15.55550 -15.55522 -15.54929 -15.54740 -15.54653
 Alpha  occ. eigenvalues --  -15.54568 -15.54413 -11.29288 -11.28856 -11.28843
 Alpha  occ. eigenvalues --  -11.28397 -11.28314 -11.28311 -11.28271 -11.28164
 Alpha  occ. eigenvalues --  -11.28148 -11.25542 -11.25522 -11.25492 -11.25400
 Alpha  occ. eigenvalues --  -11.25313 -11.25297 -11.25125 -11.24984 -11.24945
 Alpha  occ. eigenvalues --  -11.24750 -11.24669 -11.24650 -11.24603 -11.24525
 Alpha  occ. eigenvalues --  -11.24470 -11.24449 -11.24418 -11.24405 -11.24349
 Alpha  occ. eigenvalues --  -11.24311 -11.24267 -11.24199 -11.24160 -11.24156
 Alpha  occ. eigenvalues --  -11.24150 -11.24150 -11.24132 -11.23840 -11.23687
 Alpha  occ. eigenvalues --  -11.23566  -1.28025  -1.27584  -1.27386  -1.26044
 Alpha  occ. eigenvalues --   -1.25927  -1.25882  -1.23253  -1.23035  -1.22757
 Alpha  occ. eigenvalues --   -1.16854  -1.16387  -1.16305  -1.14635  -1.13975
 Alpha  occ. eigenvalues --   -1.13923  -1.06890  -1.06823  -1.06411  -1.05571
 Alpha  occ. eigenvalues --   -1.05464  -1.04677  -1.00997  -0.99542  -0.99484
 Alpha  occ. eigenvalues --   -0.97986  -0.97644  -0.97521  -0.91039  -0.90947
 Alpha  occ. eigenvalues --   -0.90915  -0.87388  -0.87295  -0.87002  -0.85430
 Alpha  occ. eigenvalues --   -0.85171  -0.83866  -0.82944  -0.82830  -0.81853
 Alpha  occ. eigenvalues --   -0.81398  -0.80657  -0.80465  -0.77619  -0.77200
 Alpha  occ. eigenvalues --   -0.76777  -0.74407  -0.74201  -0.74134  -0.70926
 Alpha  occ. eigenvalues --   -0.70837  -0.70574  -0.69936  -0.69336  -0.69033
 Alpha  occ. eigenvalues --   -0.67917  -0.67456  -0.67158  -0.67043  -0.66958
 Alpha  occ. eigenvalues --   -0.66815  -0.66192  -0.66167  -0.65151  -0.64017
 Alpha  occ. eigenvalues --   -0.63801  -0.63119  -0.62209  -0.61717  -0.61470
 Alpha  occ. eigenvalues --   -0.61165  -0.60691  -0.60433  -0.60170  -0.59987
 Alpha  occ. eigenvalues --   -0.59692  -0.58873  -0.58761  -0.58523  -0.58272
 Alpha  occ. eigenvalues --   -0.58180  -0.57895  -0.55428  -0.55043  -0.54722
 Alpha  occ. eigenvalues --   -0.54467  -0.54256  -0.54118  -0.53795  -0.53547
 Alpha  occ. eigenvalues --   -0.53415  -0.53285  -0.52983  -0.52708  -0.52664
 Alpha  occ. eigenvalues --   -0.52306  -0.51887  -0.51766  -0.51546  -0.51210
 Alpha  occ. eigenvalues --   -0.50002  -0.49648  -0.49500  -0.49282  -0.49204
 Alpha  occ. eigenvalues --   -0.48711  -0.48463  -0.48371  -0.48042  -0.45366
 Alpha  occ. eigenvalues --   -0.44934  -0.44890  -0.41730  -0.41599  -0.41108
 Alpha  occ. eigenvalues --   -0.40631  -0.40494  -0.40418  -0.40266  -0.39991
 Alpha  occ. eigenvalues --   -0.39934  -0.39831  -0.39404  -0.38090  -0.37309
 Alpha  occ. eigenvalues --   -0.36936  -0.36714  -0.32911  -0.32707  -0.32553
 Alpha  occ. eigenvalues --   -0.32015  -0.31809  -0.31437
 Alpha virt. eigenvalues --    0.03086   0.03644   0.03704   0.03718   0.04323
 Alpha virt. eigenvalues --    0.04354   0.04418   0.04627   0.04710   0.05343
 Alpha virt. eigenvalues --    0.05485   0.05513   0.05647   0.05743   0.05845

 Mulliken charges:
               1
     1  C    0.653923
     2  C    0.777546
     3  C    0.342407
     4  C    1.025179
     5  H   -1.019647
     6  C   -0.401937
     7  C    1.218312
     8  H   -0.950839
     9  C    0.613106
    10  C    1.007527
    11  H   -1.081207
    12  C    1.187629
    13  H   -0.671676
    14  H   -0.671498
    15  C    0.569401
    16  C    0.562324
    17  C    1.333798
    18  C    0.749368
    19  H   -0.909811
    20  C    0.372802
    21  C    0.818647
    22  H   -0.920067
    23  C    0.434012
    24  C    0.744097
    25  H   -1.077232
    26  C    1.001233
    27  H   -0.671815
    28  H   -0.726027
    29  C   -0.036059
    30  C    1.130926
    31  C    0.942762
    32  C    1.055189
    33  H   -0.861260
    34  C   -0.038064
    35  C    0.627350
    36  H   -0.899611
    37  C    0.904364
    38  C    0.736618
    39  H   -1.012148
    40  C    1.105215
    41  H   -0.661600
    42  H   -0.740440
    43  C    1.208185
    44  C    0.700108
    45  N   -0.563044
    46  H   -0.486724
    47  N   -0.545185
    48  H   -0.412392
    49  C    1.230579
    50  C    0.665372
    51  N   -0.100579
    52  H   -0.364513
    53  N   -0.609169
    54  H   -0.258872
    55  C    1.083657
    56  C    0.785433
    57  N   -0.731099
    58  H   -0.497590
    59  N   -0.544553
    60  H   -0.263968
    61  C    0.626606
    62  C    0.709437
    63  N   -0.805931
    64  H   -0.311728
    65  N   -0.701331
    66  H   -0.261513
    67  C    0.674176
    68  C    0.552551
    69  N   -0.881423
    70  H   -0.281584
    71  N   -0.908715
    72  H   -0.345427
    73  C    0.554869
    74  C    0.659320
    75  N   -0.870822
    76  H   -0.331307
    77  N   -0.800618
    78  H   -0.270850
    79  H   -0.804825
    80  H   -0.521942
    81  H   -0.061992
    82  H   -0.041218
    83  H   -0.151404
    84  H   -0.145011
    85  H    0.411978
    86  H    0.013064
    87  H   -0.093472
    88  H   -0.382696
    89  H   -0.251584
    90  H   -0.281062
    91  H   -0.133609
    92  H   -0.111932
    93  H   -0.112678
    94  H   -0.262461
    95  H   -0.338924
    96  H   -0.120713
    97  H   -0.099318
    98  H   -0.104006
    99  H   -0.270351
 Sum of Mulliken charges =   0.00000

 Dipole moment (field-independent basis, Debye):
    X=              0.1918    Y=             -2.0198    Z=              5.4940  Tot=              5.8566
 Quadrupole moment (field-independent basis, Debye-Ang):
   XX=           -305.7515   YY=           -302.6747   ZZ=           -271.9777
   XY=             -3.7500   XZ=              0.0728   YZ=            -11.0504

 Normal termination of Gaussian 16 at Thu Oct 28 15:17:30 2021.
