 Gaussian 16, Revision C.01,
 Gaussian 16:  ES64L-G16RevC.01  3-Jul-2019

 ----------------------------------------------------------------------
 #P PBE1PBE/Def2TZVP SP SCF=(YQC,MaxCycle=900) int=(Grid=Superfinegrid)
  EmpiricalDispersion=GD3 SCRF=(PCM,Solvent=Dichloromethane)
 ----------------------------------------------------------------------

 -------------------------
 _3_alde1_6_ami4_2_opt_dcm
 -------------------------
 Symbolic Z-matrix:
 Charge =  0 Multiplicity = 1

                         Standard orientation:
 ---------------------------------------------------------------------
 Center     Atomic      Atomic             Coordinates (Angstroms)
 Number     Number       Type             X           Y           Z
 ---------------------------------------------------------------------
      1          6           0        2.564023    1.871743    0.587156
      2          6           0        3.514128    1.918011   -0.513960
      3          6           0        2.516682    0.790789    1.469992
      4          6           0        1.630516    0.789866    2.541628
      5          1           0        3.197263   -0.033763    1.322123
      6          6           0        0.756492    1.863924    2.705097
      7          6           0        0.789621    2.947242    1.835635
      8          1           0        0.070889    1.839983    3.538065
      9          6           0        1.705940    2.949558    0.785720
     10          6           0       -0.140470    4.051570    2.024347
     11          1           0        1.733131    3.805526    0.129072
     12          6           0        1.627852   -0.300220    3.509774
     13          1           0       -0.997644    3.836654    2.681431
     14          1           0        3.527433    2.858534   -1.083815
     15          1           0        2.244302   -1.175681    3.258041
     16          6           0       -0.472386   -3.633459    0.155161
     17          6           0        0.769157   -4.051663   -0.483381
     18          6           0       -1.654050   -3.541675   -0.576482
     19          6           0       -2.817382   -3.052216    0.013475
     20          1           0       -1.664785   -3.843639   -1.615469
     21          6           0       -2.790285   -2.637950    1.344678
     22          6           0       -1.618899   -2.733223    2.087783
     23          1           0       -3.698107   -2.244931    1.776189
     24          6           0       -0.469055   -3.239441    1.488729
     25          6           0       -1.546421   -2.249401    3.460773
     26          1           0        0.441833   -3.307235    2.060073
     27          6           0       -4.032449   -2.932126   -0.777363
     28          1           0       -2.370184   -1.600695    3.796443
     29          1           0        0.700765   -4.370141   -1.533294
     30          1           0       -3.929676   -3.181566   -1.845380
     31          6           0       -1.283164    1.018425   -2.492037
     32          6           0       -0.322354    0.209657   -3.235877
     33          6           0       -0.935220    2.293459   -2.049900
     34          6           0       -1.838046    3.068598   -1.331612
     35          1           0        0.052898    2.660636   -2.281200
     36          6           0       -3.093345    2.545360   -1.021491
     37          6           0       -3.456459    1.278309   -1.462701
     38          1           0       -3.776514    3.153418   -0.448193
     39          6           0       -2.551202    0.525129   -2.210450
     40          6           0       -4.755479    0.718175   -1.112955
     41          1           0       -2.855594   -0.455031   -2.545035
     42          6           0       -1.445975    4.401970   -0.905771
     43          1           0       -5.263945    1.190330   -0.257766
     44          1           0       -0.733244   -0.717258   -3.656203
     45          1           0       -0.446755    4.720544   -1.237660
     46          6           0        6.660532    0.877049   -1.287221
     47          6           0        5.240497    1.099480   -1.856716
     48          7           0        6.877110   -0.424742   -0.699231
     49          7           0        4.285544    0.960047   -0.802453
     50          6           0        3.950627   -2.968568   -0.444968
     51          6           0        3.098048   -4.243346   -0.533111
     52          7           0        3.270482   -1.878075   -1.128228
     53          7           0        1.865483   -3.986451    0.137715
     54          6           0        1.601897   -1.563183   -4.538823
     55          6           0        1.893838   -0.132622   -4.049216
     56          7           0        1.443737   -2.547446   -3.483287
     57          7           0        0.873893    0.588731   -3.354597
     58          6           0        0.977506   -1.297098    5.516119
     59          6           0       -0.404464   -1.977265    5.487642
     60          7           0        0.979165   -0.212178    4.588191
     61          7           0       -0.566555   -2.548231    4.193386
     62          6           0       -0.990050    6.175003    1.623777
     63          6           0       -1.644849    6.395526    0.241598
     64          7           0        0.020626    5.178172    1.480790
     65          7           0       -2.187033    5.150352   -0.208324
     66          6           0       -6.247399   -2.359677   -1.151413
     67          6           0       -6.476940   -0.843252   -1.304406
     68          7           0       -5.131324   -2.559846   -0.282293
     69          7           0       -5.253286   -0.252518   -1.743149
     70          1           0        0.651596   -2.299092   -2.897429
     71          1           0        2.263023   -2.519679   -2.875282
     72          1           0        6.708589   -1.152971   -1.385923
     73          1           0        6.224341   -0.566239    0.064091
     74          1           0        3.782610   -1.004511   -1.011383
     75          1           0        2.362816   -1.734735   -0.691409
     76          1           0       -6.832367   -0.418170   -0.352437
     77          1           0       -7.236337   -0.685019   -2.076053
     78          1           0       -6.081793   -2.795171   -2.149711
     79          1           0       -7.131942   -2.808490   -0.693026
     80          1           0        3.615859   -5.047953   -0.003201
     81          1           0        2.957179   -4.527907   -1.587674
     82          1           0        4.908892   -3.142791   -0.942580
     83          1           0        4.143515   -2.759101    0.618871
     84          1           0       -1.189302   -1.246798    5.740974
     85          1           0       -0.405440   -2.785233    6.225129
     86          1           0        1.742495   -2.053930    5.284026
     87          1           0        1.149499   -0.885428    6.514103
     88          1           0        6.853949    1.629059   -0.517345
     89          1           0        7.383603    1.015178   -2.095461
     90          1           0        5.040649    0.319038   -2.599790
     91          1           0        5.186479    2.083100   -2.350402
     92          1           0        2.442594   -1.882635   -5.161410
     93          1           0        0.704555   -1.571614   -5.165381
     94          1           0        2.183517    0.495431   -4.899830
     95          1           0        2.748094   -0.160144   -3.361507
     96          1           0       -0.877916    6.787216   -0.442805
     97          1           0       -2.459280    7.115283    0.343655
     98          1           0       -1.766228    5.889013    2.351440
     99          1           0       -0.516279    7.109133    1.935318
 ---------------------------------------------------------------------

 SCF Done:  E(RPBE1PBE) =  -2170.26768671     a.u. after    6 cycles
 SCF Done:  E(RPBE1PBE) =  -2170.26772396     A.U. after    9 cycles

 The electronic state is 1-A.
 Alpha  occ. eigenvalues --  -14.38743 -14.38262 -14.38154 -14.38118 -14.38095
 Alpha  occ. eigenvalues --  -14.38037 -14.38036 -14.37957 -14.37840 -14.36187
 Alpha  occ. eigenvalues --  -14.35567 -14.34862 -10.27451 -10.27060 -10.26900
 Alpha  occ. eigenvalues --  -10.26868 -10.26853 -10.26820 -10.26765 -10.26755
 Alpha  occ. eigenvalues --  -10.26670 -10.25161 -10.25061 -10.25045 -10.24935
 Alpha  occ. eigenvalues --  -10.24917 -10.24870 -10.24856 -10.24742 -10.24738
 Alpha  occ. eigenvalues --  -10.24735 -10.24578 -10.24529 -10.24524 -10.24499
 Alpha  occ. eigenvalues --  -10.24458 -10.24452 -10.24441 -10.24434 -10.24432
 Alpha  occ. eigenvalues --  -10.24394 -10.24391 -10.24329 -10.24185 -10.24105
 Alpha  occ. eigenvalues --  -10.24044 -10.24006 -10.23997 -10.23842 -10.23767
 Alpha  occ. eigenvalues --  -10.23483  -0.97946  -0.97695  -0.97625  -0.97130
 Alpha  occ. eigenvalues --   -0.96822  -0.96245  -0.95434  -0.95294  -0.95055
 Alpha  occ. eigenvalues --   -0.91295  -0.90848  -0.90326  -0.90161  -0.89793
 Alpha  occ. eigenvalues --   -0.89338  -0.82517  -0.82397  -0.81889  -0.81251
 Alpha  occ. eigenvalues --   -0.81008  -0.80627  -0.77645  -0.76489  -0.76405
 Alpha  occ. eigenvalues --   -0.75063  -0.75029  -0.74649  -0.70129  -0.69921
 Alpha  occ. eigenvalues --   -0.69794  -0.67826  -0.67713  -0.67467  -0.66418
 Alpha  occ. eigenvalues --   -0.65978  -0.64980  -0.63283  -0.63063  -0.62782
 Alpha  occ. eigenvalues --   -0.61708  -0.60946  -0.59801  -0.57969  -0.56814
 Alpha  occ. eigenvalues --   -0.56573  -0.56290  -0.55968  -0.55417  -0.54328
 Alpha  occ. eigenvalues --   -0.54252  -0.53616  -0.53017  -0.52627  -0.52255
 Alpha  occ. eigenvalues --   -0.51857  -0.51640  -0.51197  -0.50758  -0.50612
 Alpha  occ. eigenvalues --   -0.50345  -0.50082  -0.49655  -0.49189  -0.49148
 Alpha  occ. eigenvalues --   -0.48787  -0.48137  -0.47922  -0.47425  -0.47158
 Alpha  occ. eigenvalues --   -0.46776  -0.46679  -0.46496  -0.46327  -0.46139
 Alpha  occ. eigenvalues --   -0.45855  -0.45623  -0.45283  -0.44988  -0.44355
 Alpha  occ. eigenvalues --   -0.44075  -0.44046  -0.42852  -0.42564  -0.42169
 Alpha  occ. eigenvalues --   -0.42013  -0.41602  -0.41304  -0.40870  -0.40658
 Alpha  occ. eigenvalues --   -0.40566  -0.40192  -0.40097  -0.39742  -0.39631
 Alpha  occ. eigenvalues --   -0.39435  -0.39195  -0.38347  -0.37738  -0.37309
 Alpha  occ. eigenvalues --   -0.37030  -0.36938  -0.36773  -0.36570  -0.36190
 Alpha  occ. eigenvalues --   -0.36026  -0.35705  -0.35503  -0.35389  -0.35278
 Alpha  occ. eigenvalues --   -0.35107  -0.34946  -0.31511  -0.31052  -0.30631
 Alpha  occ. eigenvalues --   -0.28685  -0.28358  -0.27868  -0.27627  -0.27610
 Alpha  occ. eigenvalues --   -0.27461  -0.27375  -0.27326  -0.27200  -0.26764
 Alpha  occ. eigenvalues --   -0.26520  -0.26300  -0.26073  -0.25887  -0.25802
 Alpha  occ. eigenvalues --   -0.25342  -0.25210  -0.23375
 Alpha virt. eigenvalues --   -0.06928  -0.06585  -0.06505  -0.05970  -0.05775
 Alpha virt. eigenvalues --   -0.05485  -0.02625  -0.02298  -0.01755   0.03356
 Alpha virt. eigenvalues --    0.03730   0.04507   0.04635   0.04960   0.05109

 Mulliken charges:
               1
     1  C    0.364544
     2  C   -0.146067
     3  C   -0.367231
     4  C    0.360705
     5  H    0.150974
     6  C   -0.348088
     7  C    0.364645
     8  H    0.124736
     9  C   -0.373912
    10  C   -0.158605
    11  H    0.132317
    12  C   -0.165727
    13  H    0.088421
    14  H    0.100838
    15  H    0.096958
    16  C    0.376461
    17  C   -0.199547
    18  C   -0.346022
    19  C    0.351740
    20  H    0.137808
    21  C   -0.387679
    22  C    0.396145
    23  H    0.122444
    24  C   -0.353747
    25  C   -0.156235
    26  H    0.121134
    27  C   -0.159457
    28  H    0.092636
    29  H    0.110473
    30  H    0.085269
    31  C    0.349714
    32  C   -0.172276
    33  C   -0.326408
    34  C    0.370013
    35  H    0.123385
    36  C   -0.375011
    37  C    0.343690
    38  H    0.123746
    39  C   -0.354797
    40  C   -0.156335
    41  H    0.127327
    42  C   -0.170294
    43  H    0.090051
    44  H    0.105539
    45  H    0.093000
    46  C   -0.099740
    47  C   -0.090089
    48  N   -0.535645
    49  N   -0.257389
    50  C   -0.102334
    51  C   -0.073988
    52  N   -0.546777
    53  N   -0.218988
    54  C   -0.130400
    55  C   -0.135062
    56  N   -0.525384
    57  N   -0.190524
    58  C   -0.067253
    59  C   -0.085068
    60  N   -0.200969
    61  N   -0.201095
    62  C   -0.083776
    63  C   -0.079448
    64  N   -0.195733
    65  N   -0.198171
    66  C   -0.069079
    67  C   -0.083086
    68  N   -0.193599
    69  N   -0.203884
    70  H    0.212415
    71  H    0.233733
    72  H    0.227351
    73  H    0.236559
    74  H    0.194648
    75  H    0.245144
    76  H    0.084412
    77  H    0.127337
    78  H    0.083314
    79  H    0.125666
    80  H    0.127284
    81  H    0.091988
    82  H    0.105959
    83  H    0.092377
    84  H    0.082352
    85  H    0.128503
    86  H    0.082473
    87  H    0.127245
    88  H    0.115507
    89  H    0.121096
    90  H    0.125073
    91  H    0.095046
    92  H    0.119869
    93  H    0.118181
    94  H    0.120219
    95  H    0.121867
    96  H    0.094137
    97  H    0.126983
    98  H    0.085487
    99  H    0.127980
 Sum of Mulliken charges =   0.00000

 Dipole moment (field-independent basis, Debye):
    X=             -1.1610    Y=              1.8982    Z=             -0.4513  Tot=              2.2704
 Quadrupole moment (field-independent basis, Debye-Ang):
   XX=           -296.3966   YY=           -300.3462   ZZ=           -291.6961
   XY=              3.8442   XZ=            -11.4663   YZ=              2.6138

 Normal termination of Gaussian 16 at Mon Oct 18 10:44:37 2021.
