 Gaussian 16, Revision C.01,
 Gaussian 16:  ES64L-G16RevC.01  3-Jul-2019

 ---------------------------------------------------------------------
 #P MP2/aug-cc-pVDZ SP SCF=(YQC,MaxCycle=900) int=(Grid=Superfinegrid)
 ---------------------------------------------------------------------

 -----------------------------
 _3_alde1_4_ami4_1_opt_gas_mp2
 -----------------------------
 Symbolic Z-matrix:
 Charge =  0 Multiplicity = 1

                         Standard orientation:
 ---------------------------------------------------------------------
 Center     Atomic      Atomic             Coordinates (Angstroms)
 Number     Number       Type             X           Y           Z
 ---------------------------------------------------------------------
      1          6           0       -2.656466    1.849698   -0.908834
      2          6           0       -3.567600    1.260516   -1.881684
      3          6           0       -1.642601    2.709427   -1.314370
      4          6           0       -0.730839    3.215564   -0.387433
      5          1           0       -1.545850    3.012400   -2.345795
      6          6           0       -0.808995    2.810519    0.941141
      7          6           0       -1.816586    1.944205    1.360674
      8          1           0       -0.095249    3.158292    1.672402
      9          6           0       -2.752135    1.494494    0.436053
     10          6           0       -1.883075    1.463964    2.732820
     11          1           0       -3.553781    0.837169    0.733341
     12          6           0        0.318765    4.134331   -0.798676
     13          1           0       -2.809024    0.933399    2.997891
     14          1           0       -3.245926    1.322550   -2.932970
     15          1           0        0.960483    4.509070    0.012927
     16          6           0        2.901516    0.637050    1.457922
     17          6           0        2.653931    1.013652    2.855898
     18          6           0        3.184970   -0.691988    1.143016
     19          6           0        3.380004   -1.082575   -0.176846
     20          1           0        3.252146   -1.410861    1.947741
     21          6           0        3.279929   -0.127138   -1.187805
     22          6           0        3.026251    1.206762   -0.885711
     23          1           0        3.418905   -0.449660   -2.208549
     24          6           0        2.840997    1.585134    0.443052
     25          6           0        2.908027    2.193201   -1.953102
     26          1           0        2.640651    2.621631    0.663610
     27          6           0        3.641971   -2.480521   -0.485669
     28          1           0        2.712988    1.788042   -2.957800
     29          1           0        2.443758    2.088314    3.005186
     30          1           0        3.686865   -3.154913    0.382168
     31          6           0       -2.583468   -2.300801   -0.117145
     32          6           0       -3.941021   -1.938156   -0.493826
     33          6           0       -2.108622   -1.945885    1.140364
     34          6           0       -0.778194   -2.170516    1.491689
     35          1           0       -2.748382   -1.456477    1.857903
     36          6           0        0.058113   -2.819450    0.590875
     37          6           0       -0.408465   -3.199489   -0.667336
     38          1           0        1.088335   -3.021537    0.838604
     39          6           0       -1.721127   -2.914298   -1.025100
     40          6           0        0.501063   -3.808820   -1.629083
     41          1           0       -2.099127   -3.163681   -2.004732
     42          6           0       -0.245978   -1.630583    2.735892
     43          1           0        0.201425   -3.725473   -2.685590
     44          1           0        0.848785   -1.648566    2.832877
     45          6           0       -5.644595   -1.451205   -1.975822
     46          6           0       -5.426462   -0.012303   -2.494909
     47          7           0       -4.363352   -2.015448   -1.681256
     48          7           0       -4.633959    0.685321   -1.534411
     49          8           0        2.659252    0.245494    3.785669
     50          6           0        1.625374    5.295168   -2.313937
     51          6           0        2.773634    4.371129   -2.772602
     52          7           0        0.491490    4.481142   -2.000293
     53          7           0        3.014323    3.428261   -1.729463
     54          6           0       -1.055815    0.959908    4.827498
     55          6           0       -0.417589   -0.444650    4.737758
     56          7           0       -0.935488    1.606805    3.555228
     57          7           0       -0.990055   -1.118038    3.615439
     58          6           0        3.897790   -4.310907   -1.870879
     59          6           0        2.499091   -4.844353   -2.249428
     60          7           0        3.792979   -2.899457   -1.666669
     61          7           0        1.570268   -4.372045   -1.272932
     62          1           0       -4.566371   -1.545508    0.321509
     63          1           0       -0.678102   -0.995731    5.646136
     64          1           0        0.675777   -0.358821    4.665298
     65          1           0       -2.107911    0.843522    5.127852
     66          1           0       -0.516545    1.548439    5.571843
     67          1           0        1.974306    5.874970   -1.446261
     68          1           0        1.358398    5.968019   -3.131338
     69          1           0        3.673055    4.977874   -2.907983
     70          1           0        2.506805    3.889074   -3.726314
     71          1           0        2.524807   -5.937401   -2.210813
     72          1           0        2.235082   -4.525625   -3.269999
     73          1           0        4.236752   -4.835365   -0.964935
     74          1           0        4.590789   -4.498655   -2.693409
     75          1           0       -6.401175    0.478749   -2.568596
     76          1           0       -4.956197   -0.039129   -3.490558
     77          1           0       -6.123034   -2.046119   -2.756310
     78          1           0       -6.291651   -1.404238   -1.086922
 ---------------------------------------------------------------------

 SCF Done:  E(RHF) =  -1855.74694603     a.u. after    6 cycles
 SCF Done:  E(RHF) =  -1855.74711981     A.U. after   21 cycles
 E2 =    -0.6345117532D+01 EUMP2 =    -0.18620922373438D+04

 The electronic state is 1-A.
 Alpha  occ. eigenvalues --  -20.57032 -15.57020 -15.56511 -15.56455 -15.56354
 Alpha  occ. eigenvalues --  -15.56122 -15.55780 -15.55594 -15.55566 -11.34633
 Alpha  occ. eigenvalues --  -11.29505 -11.29103 -11.28916 -11.28863 -11.28784
 Alpha  occ. eigenvalues --  -11.28428 -11.28172 -11.27997 -11.27050 -11.26822
 Alpha  occ. eigenvalues --  -11.26696 -11.26506 -11.26371 -11.26160 -11.26131
 Alpha  occ. eigenvalues --  -11.26125 -11.26108 -11.26047 -11.25973 -11.25764
 Alpha  occ. eigenvalues --  -11.25365 -11.25283 -11.25235 -11.25163 -11.25111
 Alpha  occ. eigenvalues --  -11.25061 -11.25047 -11.25031 -11.25023 -11.24933
 Alpha  occ. eigenvalues --  -11.24918 -11.24805 -11.24747 -11.24538  -1.40658
 Alpha  occ. eigenvalues --   -1.26888  -1.26662  -1.26314  -1.25651  -1.23888
 Alpha  occ. eigenvalues --   -1.23750  -1.23251  -1.22654  -1.18539  -1.17296
 Alpha  occ. eigenvalues --   -1.16625  -1.08055  -1.07699  -1.07390  -1.06583
 Alpha  occ. eigenvalues --   -1.05697  -1.05275  -1.01720  -1.00363  -1.00097
 Alpha  occ. eigenvalues --   -0.99156  -0.92117  -0.91963  -0.91485  -0.90963
 Alpha  occ. eigenvalues --   -0.90548  -0.87631  -0.87536  -0.86932  -0.83986
 Alpha  occ. eigenvalues --   -0.83300  -0.82768  -0.81449  -0.79842  -0.76878
 Alpha  occ. eigenvalues --   -0.75906  -0.75355  -0.75216  -0.74520  -0.74041
 Alpha  occ. eigenvalues --   -0.72295  -0.71076  -0.70820  -0.70004  -0.69118
 Alpha  occ. eigenvalues --   -0.68248  -0.67731  -0.67301  -0.66726  -0.66350
 Alpha  occ. eigenvalues --   -0.65875  -0.65684  -0.65417  -0.64739  -0.64232
 Alpha  occ. eigenvalues --   -0.63557  -0.62577  -0.62188  -0.62111  -0.61769
 Alpha  occ. eigenvalues --   -0.61412  -0.61133  -0.60595  -0.60348  -0.59268
 Alpha  occ. eigenvalues --   -0.59230  -0.58810  -0.58489  -0.56797  -0.55713
 Alpha  occ. eigenvalues --   -0.55288  -0.55050  -0.54369  -0.54201  -0.54151
 Alpha  occ. eigenvalues --   -0.53823  -0.53640  -0.53064  -0.52872  -0.52584
 Alpha  occ. eigenvalues --   -0.51683  -0.51211  -0.50560  -0.50266  -0.49842
 Alpha  occ. eigenvalues --   -0.49425  -0.46155  -0.45704  -0.45558  -0.45321
 Alpha  occ. eigenvalues --   -0.44779  -0.43483  -0.42687  -0.41504  -0.41250
 Alpha  occ. eigenvalues --   -0.41085  -0.40936  -0.40603  -0.40447  -0.40292
 Alpha  occ. eigenvalues --   -0.39855  -0.39662  -0.39311  -0.34834  -0.33521
 Alpha  occ. eigenvalues --   -0.32834  -0.32373  -0.31988  -0.31794
 Alpha virt. eigenvalues --    0.03060   0.03588   0.03684   0.03766   0.04277
 Alpha virt. eigenvalues --    0.04348   0.04494   0.04711   0.04846   0.04946
 Alpha virt. eigenvalues --    0.05484   0.05629   0.05710   0.05809   0.05880

 Mulliken charges:
               1
     1  C    0.981469
     2  C    0.632532
     3  C    0.421083
     4  C    0.839727
     5  H   -0.884611
     6  C    0.172806
     7  C    1.308288
     8  H   -1.003735
     9  C    0.219697
    10  C    0.717104
    11  H   -0.993248
    12  C    1.048148
    13  H   -0.670287
    14  H   -0.695997
    15  H   -0.686034
    16  C    0.575211
    17  C    1.270863
    18  C    0.255517
    19  C    0.675027
    20  H   -0.943486
    21  C    0.645709
    22  C    0.187052
    23  H   -0.941965
    24  C    1.092654
    25  C    1.042654
    26  H   -0.985469
    27  C    1.008555
    28  H   -0.683728
    29  H   -0.505990
    30  H   -0.659525
    31  C    0.760794
    32  C    0.728241
    33  C    0.214454
    34  C    1.135228
    35  H   -1.027782
    36  C    0.826967
    37  C    0.674526
    38  H   -0.836395
    39  C    0.598615
    40  C    0.606044
    41  H   -0.892651
    42  C    0.723311
    43  H   -0.652576
    44  H   -0.829155
    45  C    0.577685
    46  C    0.721289
    47  N   -0.793758
    48  N   -0.668612
    49  O   -0.930393
    50  C    0.567219
    51  C    0.711117
    52  N   -0.824611
    53  N   -0.777071
    54  C    0.480390
    55  C    1.070672
    56  N   -0.713590
    57  N   -0.790762
    58  C    0.557168
    59  C    0.752346
    60  N   -0.795330
    61  N   -0.663232
    62  H   -0.639589
    63  H   -0.259963
    64  H   -0.214670
    65  H   -0.114260
    66  H   -0.336209
    67  H   -0.108406
    68  H   -0.327323
    69  H   -0.250074
    70  H   -0.118645
    71  H   -0.245018
    72  H   -0.127849
    73  H   -0.092002
    74  H   -0.321566
    75  H   -0.244842
    76  H   -0.128427
    77  H   -0.322848
    78  H   -0.098480
 Sum of Mulliken charges =   0.00000

 Dipole moment (field-independent basis, Debye):
    X=              0.3353    Y=              0.3561    Z=             -3.1147  Tot=              3.1529
 Quadrupole moment (field-independent basis, Debye-Ang):
   XX=           -256.0940   YY=           -256.4759   ZZ=           -256.0182
   XY=             -0.0529   XZ=             -4.9412   YZ=              2.7517

 Normal termination of Gaussian 16 at Sat Nov  6 12:24:16 2021.
