 Gaussian 16, Revision C.01,
 Gaussian 16:  ES64L-G16RevC.01  3-Jul-2019

 ----------------------------------------------------------------------
 #P PBE1PBE/Def2TZVP SP SCF=(YQC,MaxCycle=900) int=(Grid=Superfinegrid)
  EmpiricalDispersion=GD3 SCRF=(PCM,Solvent=Chloroform)
 ----------------------------------------------------------------------

 -------------------------
 _3_alde1_5_ami4_1_opt_cfm
 -------------------------
 Symbolic Z-matrix:
 Charge =  0 Multiplicity = 1

                         Standard orientation:
 ---------------------------------------------------------------------
 Center     Atomic      Atomic             Coordinates (Angstroms)
 Number     Number       Type             X           Y           Z
 ---------------------------------------------------------------------
      1          6           0       -3.628169    0.731694    0.920461
      2          6           0       -4.725921   -0.205862    0.741725
      3          6           0       -3.464524    1.828222    0.074437
      4          6           0       -2.372433    2.674959    0.223261
      5          1           0       -4.206531    2.003528   -0.689418
      6          6           0       -1.406112    2.386315    1.185809
      7          6           0       -1.537809    1.276481    2.011883
      8          1           0       -0.545865    3.032935    1.258690
      9          6           0       -2.671719    0.474360    1.896263
     10          6           0       -0.455950    0.895617    2.907566
     11          1           0       -2.767891   -0.372786    2.557233
     12          6           0       -2.179996    3.812769   -0.668722
     13          1           0        0.502416    1.407481    2.730081
     14          1           0       -4.812195   -0.980260    1.518384
     15          1           0       -2.681365    3.746678   -1.646756
     16          6           0        2.946338    0.853174    0.426078
     17          6           0        3.490341    0.158061    1.646917
     18          6           0        2.951591    0.198253   -0.794403
     19          6           0        2.443572    0.814754   -1.937577
     20          1           0        3.327773   -0.809291   -0.862952
     21          6           0        1.940648    2.106951   -1.849319
     22          6           0        1.964971    2.790687   -0.636838
     23          1           0        1.535068    2.610435   -2.713416
     24          6           0        2.464189    2.151316    0.497601
     25          6           0        1.438646    4.141915   -0.531796
     26          1           0        2.480031    2.676669    1.443123
     27          6           0        2.396802    0.093304   -3.201474
     28          1           0        1.467732    4.584977    0.476384
     29          1           0        1.695591    0.491651   -3.951958
     30          6           0       -2.083128   -2.667242   -1.001532
     31          6           0       -3.424032   -2.499710   -1.546166
     32          6           0       -1.880275   -2.636960    0.377096
     33          6           0       -0.595545   -2.662179    0.911087
     34          1           0       -2.745761   -2.561011    1.016347
     35          6           0        0.496969   -2.781436    0.052571
     36          6           0        0.304935   -2.868178   -1.322896
     37          1           0        1.492635   -2.798663    0.467169
     38          6           0       -0.985180   -2.784477   -1.846204
     39          6           0        1.457540   -3.018387   -2.198099
     40          1           0       -1.106742   -2.822451   -2.918094
     41          6           0       -0.438404   -2.516385    2.349137
     42          1           0        2.428015   -3.086756   -1.687373
     43          1           0       -1.367535   -2.607625    2.928929
     44          6           0       -5.741986   -2.300139   -1.370336
     45          6           0       -6.406136   -1.266191   -0.433102
     46          7           0       -4.457852   -2.620411   -0.834835
     47          1           0       -5.682913   -1.895273   -2.392893
     48          7           0       -5.495215   -0.176891   -0.258912
     49          1           0       -6.644072   -1.764225    0.518892
     50          6           0        5.326380   -0.833366    2.580294
     51          6           0        4.336393   -1.966783    2.235696
     52          7           0        4.938429    0.280334    1.728406
     53          1           0        6.368761   -1.104756    2.424646
     54          7           0        3.209942   -1.280668    1.610588
     55          1           0        4.047104   -2.540185    3.120491
     56          6           0       -1.178644    5.835259   -1.270369
     57          6           0        0.350776    6.039163   -1.289522
     58          7           0       -1.464912    4.794320   -0.336245
     59          1           0       -1.543398    5.604503   -2.283499
     60          7           0        0.966961    4.769735   -1.520127
     61          1           0        0.656487    6.480629   -0.327940
     62          6           0        0.542045   -0.458994    4.522715
     63          6           0        0.648540   -1.986839    4.320516
     64          7           0       -0.589938    0.001633    3.786496
     65          1           0        1.478683    0.029418    4.207709
     66          7           0        0.664269   -2.263769    2.914145
     67          1           0       -0.207150   -2.460981    4.822062
     68          6           0        2.940669   -1.672171   -4.622153
     69          6           0        2.553846   -3.114878   -4.233122
     70          7           0        3.106440   -0.925688   -3.417965
     71          1           0        2.169925   -1.245858   -5.284512
     72          7           0        1.353603   -3.070358   -3.455824
     73          1           0        3.393681   -3.555914   -3.676137
     74          1           0       -3.471376   -2.227814   -2.612024
     75          1           0        2.319209   -1.511821    2.044885
     76          1           0        3.079219    0.638182    2.556806
     77          1           0        5.324579    0.149182    0.796788
     78          1           0       -6.355936   -3.205433   -1.374608
     79          1           0       -7.320269   -0.893687   -0.899449
     80          1           0        5.194396   -0.519022    3.620712
     81          1           0        4.778804   -2.658683    1.507832
     82          1           0       -1.647377    6.759940   -0.920596
     83          1           0        0.613237    6.712491   -2.108464
     84          1           0        0.374660   -0.263745    5.585676
     85          1           0        1.581847   -2.344336    4.761344
     86          1           0        3.898434   -1.702348   -5.149195
     87          1           0        2.360628   -3.691912   -5.139864
 ---------------------------------------------------------------------

 SCF Done:  E(RPBE1PBE) =  -1979.88505903     a.u. after    7 cycles
 SCF Done:  E(RPBE1PBE) =  -1979.88506183     A.U. after    9 cycles

 The electronic state is 1-A.
 Alpha  occ. eigenvalues --  -14.38454 -14.38340 -14.38147 -14.38095 -14.37770
 Alpha  occ. eigenvalues --  -14.37765 -14.37609 -14.37553 -14.37233 -14.35096
 Alpha  occ. eigenvalues --  -10.27525 -10.27213 -10.27155 -10.26938 -10.26842
 Alpha  occ. eigenvalues --  -10.26612 -10.26563 -10.26422 -10.26409 -10.25536
 Alpha  occ. eigenvalues --  -10.25314 -10.25165 -10.25039 -10.24931 -10.24846
 Alpha  occ. eigenvalues --  -10.24703 -10.24671 -10.24570 -10.24525 -10.24515
 Alpha  occ. eigenvalues --  -10.24495 -10.24480 -10.24344 -10.24114 -10.24073
 Alpha  occ. eigenvalues --  -10.24065 -10.24050 -10.24046 -10.24017 -10.23926
 Alpha  occ. eigenvalues --  -10.23906 -10.23858 -10.23639 -10.23574 -10.23484
 Alpha  occ. eigenvalues --  -10.23247 -10.22811  -0.98720  -0.98129  -0.97730
 Alpha  occ. eigenvalues --   -0.97560  -0.97463  -0.95557  -0.95050  -0.95008
 Alpha  occ. eigenvalues --   -0.94749  -0.90460  -0.89825  -0.89550  -0.86894
 Alpha  occ. eigenvalues --   -0.82636  -0.82213  -0.82054  -0.80913  -0.80650
 Alpha  occ. eigenvalues --   -0.80280  -0.77985  -0.76489  -0.76034  -0.75989
 Alpha  occ. eigenvalues --   -0.74261  -0.70065  -0.69838  -0.69720  -0.69519
 Alpha  occ. eigenvalues --   -0.66908  -0.66532  -0.66042  -0.65097  -0.63753
 Alpha  occ. eigenvalues --   -0.63133  -0.62679  -0.62269  -0.61088  -0.60750
 Alpha  occ. eigenvalues --   -0.58745  -0.56937  -0.56859  -0.56164  -0.56056
 Alpha  occ. eigenvalues --   -0.55797  -0.54312  -0.54089  -0.53738  -0.52788
 Alpha  occ. eigenvalues --   -0.52618  -0.52043  -0.51507  -0.50953  -0.50819
 Alpha  occ. eigenvalues --   -0.50569  -0.50367  -0.49840  -0.49486  -0.49322
 Alpha  occ. eigenvalues --   -0.48977  -0.48127  -0.47213  -0.47017  -0.46811
 Alpha  occ. eigenvalues --   -0.46578  -0.46486  -0.46383  -0.45782  -0.45268
 Alpha  occ. eigenvalues --   -0.45066  -0.44914  -0.44273  -0.44001  -0.43760
 Alpha  occ. eigenvalues --   -0.43528  -0.42100  -0.41888  -0.41702  -0.41063
 Alpha  occ. eigenvalues --   -0.40869  -0.40693  -0.40178  -0.40129  -0.39837
 Alpha  occ. eigenvalues --   -0.39527  -0.39251  -0.39053  -0.38945  -0.38372
 Alpha  occ. eigenvalues --   -0.37161  -0.37106  -0.36693  -0.36570  -0.36379
 Alpha  occ. eigenvalues --   -0.35800  -0.35591  -0.35370  -0.35210  -0.35131
 Alpha  occ. eigenvalues --   -0.34926  -0.34759  -0.31988  -0.31222  -0.30736
 Alpha  occ. eigenvalues --   -0.28342  -0.27705  -0.27626  -0.27535  -0.27417
 Alpha  occ. eigenvalues --   -0.27189  -0.27163  -0.27002  -0.26391  -0.26299
 Alpha  occ. eigenvalues --   -0.26111  -0.25961  -0.25901  -0.25683  -0.25222
 Alpha  occ. eigenvalues --   -0.22775
 Alpha virt. eigenvalues --   -0.06729  -0.06498  -0.05863  -0.05547  -0.05498
 Alpha virt. eigenvalues --   -0.04295  -0.02748  -0.01587   0.01779   0.03901
 Alpha virt. eigenvalues --    0.04561   0.04715   0.05008   0.05177   0.05509

 Mulliken charges:
               1
     1  C    0.383103
     2  C   -0.171567
     3  C   -0.388635
     4  C    0.351216
     5  H    0.124067
     6  C   -0.311545
     7  C    0.299982
     8  H    0.123581
     9  C   -0.307386
    10  C   -0.117668
    11  H    0.134871
    12  C   -0.149645
    13  H    0.068641
    14  H    0.092329
    15  H    0.089051
    16  C    0.366826
    17  C   -0.089108
    18  C   -0.339215
    19  C    0.372516
    20  H    0.132645
    21  C   -0.378980
    22  C    0.375203
    23  H    0.117546
    24  C   -0.438431
    25  C   -0.174260
    26  H    0.136031
    27  C   -0.171289
    28  H    0.083238
    29  H    0.082739
    30  C    0.325935
    31  C   -0.149681
    32  C   -0.296942
    33  C    0.358583
    34  H    0.132418
    35  C   -0.327104
    36  C    0.349804
    37  H    0.150944
    38  C   -0.375707
    39  C   -0.175622
    40  H    0.123071
    41  C   -0.146360
    42  H    0.095039
    43  H    0.108575
    44  C   -0.092192
    45  C   -0.070432
    46  N   -0.200839
    47  H    0.083942
    48  N   -0.198766
    49  H    0.089142
    50  C   -0.115360
    51  C   -0.132548
    52  N   -0.308428
    53  H    0.135302
    54  N   -0.305761
    55  H    0.103405
    56  C   -0.086188
    57  C   -0.066397
    58  N   -0.204940
    59  H    0.083834
    60  N   -0.190315
    61  H    0.083394
    62  C   -0.111295
    63  C   -0.046461
    64  N   -0.197258
    65  H    0.083369
    66  N   -0.263745
    67  H    0.100593
    68  C   -0.084241
    69  C   -0.070402
    70  N   -0.197558
    71  H    0.080022
    72  N   -0.196598
    73  H    0.088040
    74  H    0.086207
    75  H    0.208656
    76  H    0.065131
    77  H    0.211872
    78  H    0.125839
    79  H    0.123561
    80  H    0.082700
    81  H    0.084259
    82  H    0.125201
    83  H    0.123328
    84  H    0.130327
    85  H    0.124708
    86  H    0.124501
    87  H    0.123577
 Sum of Mulliken charges =   0.00000

 Dipole moment (field-independent basis, Debye):
    X=             -0.8538    Y=             -0.7871    Z=              1.0410  Tot=              1.5595
 Quadrupole moment (field-independent basis, Debye-Ang):
   XX=           -268.5157   YY=           -270.2471   ZZ=           -253.6395
   XY=             -4.4422   XZ=              9.3564   YZ=             -6.6213

 Normal termination of Gaussian 16 at Mon Oct 18 12:52:56 2021.
