 Gaussian 16, Revision C.01,
 Gaussian 16:  ES64L-G16RevC.01  3-Jul-2019

 ----------------------------------------------------------------------
 #P PBE1PBE/Def2TZVP SP SCF=(YQC,MaxCycle=900) int=(Grid=Superfinegrid)
  EmpiricalDispersion=GD3 SCRF=(PCM,Solvent=Chloroform)
 ----------------------------------------------------------------------

 -------------------------
 _3_alde1_6_ami3_2_opt_cfm
 -------------------------
 Symbolic Z-matrix:
 Charge =  0 Multiplicity = 1

                         Standard orientation:
 ---------------------------------------------------------------------
 Center     Atomic      Atomic             Coordinates (Angstroms)
 Number     Number       Type             X           Y           Z
 ---------------------------------------------------------------------
      1          6           0       -0.240898    0.269198   -3.691591
      2          6           0       -1.643573    0.633155   -3.844219
      3          6           0        0.132169   -1.074523   -3.651178
      4          6           0        1.461320   -1.438605   -3.472986
      5          1           0       -0.639425   -1.821159   -3.761615
      6          6           0        2.426695   -0.443039   -3.323001
      7          6           0        2.071628    0.900050   -3.369277
      8          1           0        3.453170   -0.743663   -3.178672
      9          6           0        0.734075    1.250282   -3.554898
     10          6           0        3.089476    1.928305   -3.205472
     11          1           0        0.478639    2.298473   -3.584511
     12          6           0        1.828047   -2.846256   -3.433991
     13          1           0        4.062647    1.577618   -2.827265
     14          1           0       -1.876823    1.704782   -3.744715
     15          1           0        0.985884   -3.555315   -3.453771
     16          6           0       -0.291212   -3.340303    1.603351
     17          6           0       -1.692760   -3.649752    1.351793
     18          6           0        0.073876   -2.634097    2.749876
     19          6           0        1.402193   -2.302985    2.988512
     20          1           0       -0.703141   -2.352892    3.444404
     21          6           0        2.374894   -2.675697    2.060922
     22          6           0        2.027870   -3.386899    0.918098
     23          1           0        3.400706   -2.404799    2.258727
     24          6           0        0.690899   -3.717167    0.695024
     25          6           0        3.053411   -3.765313   -0.043744
     26          1           0        0.441702   -4.266687   -0.199811
     27          6           0        1.760644   -1.566660    4.191383
     28          1           0        4.027942   -3.267574    0.080208
     29          1           0       -1.918950   -4.095271    0.370423
     30          1           0        0.914110   -1.224571    4.806665
     31          6           0       -0.282091    3.084349    2.080573
     32          6           0       -1.688698    3.040091    2.458501
     33          6           0        0.104474    3.717888    0.899171
     34          6           0        1.437560    3.741452    0.507875
     35          1           0       -0.660148    4.187907    0.299499
     36          6           0        2.393451    3.112487    1.305465
     37          6           0        2.024901    2.483693    2.489122
     38          1           0        3.423206    3.134598    0.983254
     39          6           0        0.683548    2.474003    2.872367
     40          6           0        3.032902    1.826380    3.308847
     41          1           0        0.417710    1.977894    3.793328
     42          6           0        1.817908    4.409190   -0.727901
     43          1           0        4.011890    1.674811    2.827561
     44          1           0       -1.932268    2.423682    3.337942
     45          1           0        0.982284    4.779940   -1.341636
     46          6           0       -4.661147   -0.661496   -3.045246
     47          6           0       -3.910542    0.123693   -4.137776
     48          7           0       -4.192521   -0.217257   -1.739683
     49          7           0       -2.530298   -0.237864   -4.057211
     50          6           0       -4.448029   -0.260009   -5.519663
     51          6           0       -4.717513   -2.312327    2.068659
     52          6           0       -3.964275   -3.647983    1.921265
     53          7           0       -4.240753   -1.388378    1.048312
     54          6           0       -6.218345   -2.531430    1.884376
     55          7           0       -2.585969   -3.399864    2.206085
     56          6           0       -4.687131    2.980642    0.909795
     57          6           0       -3.951361    3.552600    2.136831
     58          7           0       -4.218111    1.622737    0.669327
     59          6           0       -6.193257    2.950721    1.165654
     60          7           0       -2.567129    3.658419    1.798139
     61          6           0        3.317028   -4.629071   -3.308977
     62          6           0        3.868901   -4.919866   -1.896627
     63          7           0        3.027883   -3.231289   -3.388478
     64          7           0        2.840062   -4.609973   -0.954571
     65          6           0        3.892585    4.115022   -3.268285
     66          6           0        3.323595    5.191322   -2.318857
     67          7           0        2.871507    3.138447   -3.481895
     68          7           0        3.021424    4.562051   -1.071328
     69          6           0        3.240694   -0.577116    5.688779
     70          6           0        3.813063    0.785671    5.242773
     71          7           0        2.958531   -1.341435    4.514198
     72          7           0        2.800729    1.459115    4.492028
     73          6           0        4.175756    1.615404    6.476650
     74          1           0       -3.203592    1.622363    0.618431
     75          1           0       -4.549806    1.281417   -0.231836
     76          1           0       -4.540019   -0.830507   -1.003458
     77          1           0       -3.179046   -0.278474   -1.708595
     78          1           0       -3.227949   -1.328254    1.097965
     79          1           0       -4.592514   -0.447788    1.219804
     80          6           0        4.364620   -5.001071   -4.358327
     81          6           0        4.363370    6.291370   -2.104863
     82          1           0       -4.476670    3.656914    0.062350
     83          6           0       -6.722322    4.339930    1.502109
     84          1           0       -6.388427    2.265480    1.992655
     85          1           0       -6.694691    2.555401    0.280053
     86          6           0       -5.994746    4.902132    2.719036
     87          1           0       -7.795395    4.290650    1.697949
     88          1           0       -6.566722    5.004174    0.648912
     89          6           0       -4.492258    4.946446    2.468217
     90          1           0       -6.199385    4.270915    3.586853
     91          1           0       -6.357962    5.907488    2.941869
     92          1           0       -3.970103    5.330985    3.347061
     93          1           0       -4.270465    5.609215    1.629863
     94          1           0       -4.115736    2.872790    2.992706
     95          1           0       -4.064613    1.204016   -3.962347
     96          6           0       -5.947129   -0.001595   -5.611114
     97          1           0       -4.237815   -1.317536   -5.688669
     98          1           0       -3.914912    0.314033   -6.280671
     99          6           0       -6.690138   -0.781466   -4.531169
    100          1           0       -6.308557   -0.292486   -6.599593
    101          1           0       -6.139752    1.066247   -5.483845
    102          6           0       -6.163763   -0.405146   -3.151049
    103          1           0       -6.546713   -1.851956   -4.694878
    104          1           0       -7.760315   -0.573261   -4.589289
    105          1           0       -6.676266   -0.980130   -2.377322
    106          1           0       -6.347219    0.653147   -2.956278
    107          1           0       -4.462926   -1.733374   -3.223095
    108          1           0       -4.527795   -1.944943    3.092714
    109          6           0       -4.507615   -4.667371    2.926882
    110          1           0       -4.111210   -4.022756    0.891959
    111          6           0       -6.005031   -4.875437    2.734597
    112          1           0       -4.305480   -4.298296    3.933990
    113          1           0       -3.972195   -5.611111    2.801488
    114          6           0       -6.751130   -3.553290    2.882129
    115          1           0       -6.371129   -5.596431    3.468367
    116          1           0       -6.189456   -5.286080    1.739178
    117          1           0       -6.733243   -1.576227    2.004951
    118          1           0       -6.393451   -2.877867    0.864143
    119          1           0       -7.819889   -3.707234    2.720277
    120          1           0       -6.616403   -3.173443    3.897561
    121          1           0        4.719230    0.601740    4.637208
    122          6           0        5.191319    0.878914    7.342347
    123          1           0        3.264165    1.809574    7.044558
    124          1           0        4.578787    2.576377    6.149681
    125          6           0        4.645386   -0.480099    7.768969
    126          1           0        5.426694    1.480398    8.222620
    127          1           0        6.114812    0.736751    6.776072
    128          6           0        4.269557   -1.311943    6.548185
    129          1           0        3.761529   -0.335011    8.394599
    130          1           0        5.391736   -1.013218    8.361287
    131          1           0        3.852036   -2.272860    6.855566
    132          1           0        5.152564   -1.509737    5.938236
    133          1           0        2.326144   -0.379731    6.276940
    134          1           0        2.418495    5.611811   -2.793696
    135          6           0        4.758233    6.925644   -3.433496
    136          1           0        5.237126    5.852838   -1.620005
    137          1           0        3.948564    7.044194   -1.431456
    138          6           0        5.300220    5.868563   -4.390566
    139          1           0        5.512099    7.696664   -3.262981
    140          1           0        3.883771    7.404290   -3.880576
    141          6           0        4.273808    4.761649   -4.602114
    142          1           0        6.215451    5.439576   -3.975754
    143          1           0        5.548987    6.325629   -5.350489
    144          1           0        4.673993    3.992083   -5.265887
    145          1           0        3.370760    5.165658   -5.062858
    146          1           0        4.790076    3.674119   -2.797565
    147          1           0        2.407959   -5.242424   -3.445755
    148          6           0        4.746286   -6.472124   -4.241162
    149          1           0        5.242047   -4.369212   -4.211242
    150          1           0        3.961698   -4.789713   -5.350966
    151          6           0        5.271584   -6.778497   -2.842136
    152          1           0        5.505896   -6.715251   -4.986834
    153          1           0        3.868804   -7.091238   -4.441889
    154          6           0        4.237247   -6.401403   -1.787898
    155          1           0        6.189483   -6.212236   -2.667845
    156          1           0        5.511049   -7.840372   -2.756791
    157          1           0        4.625587   -6.595870   -0.785785
    158          1           0        3.330633   -6.994927   -1.917584
    159          1           0        4.769652   -4.298979   -1.739778
 ---------------------------------------------------------------------

 SCF Done:  E(RPBE1PBE) =  -3105.86924114     a.u. after    6 cycles
 SCF Done:  E(RPBE1PBE) =  -3105.86929192     A.U. after    8 cycles

 The electronic state is 1-A.
 Alpha  occ. eigenvalues --  -14.37874 -14.37863 -14.37861 -14.37803 -14.37797
 Alpha  occ. eigenvalues --  -14.37795 -14.37699 -14.37697 -14.37696 -14.35026
 Alpha  occ. eigenvalues --  -14.34938 -14.34931 -10.26731 -10.26718 -10.26717
 Alpha  occ. eigenvalues --  -10.26634 -10.26629 -10.26627 -10.26537 -10.26534
 Alpha  occ. eigenvalues --  -10.26532 -10.25130 -10.25125 -10.25125 -10.25008
 Alpha  occ. eigenvalues --  -10.25005 -10.25003 -10.24612 -10.24596 -10.24596
 Alpha  occ. eigenvalues --  -10.24381 -10.24375 -10.24374 -10.24373 -10.24370
 Alpha  occ. eigenvalues --  -10.24369 -10.24326 -10.24323 -10.24320 -10.24236
 Alpha  occ. eigenvalues --  -10.24212 -10.24209 -10.23906 -10.23901 -10.23899
 Alpha  occ. eigenvalues --  -10.23852 -10.23850 -10.23848 -10.23801 -10.23796
 Alpha  occ. eigenvalues --  -10.23790 -10.21572 -10.21570 -10.21567 -10.21418
 Alpha  occ. eigenvalues --  -10.21416 -10.21415 -10.21404 -10.21402 -10.21399
 Alpha  occ. eigenvalues --  -10.21356 -10.21353 -10.21353 -10.21297 -10.21278
 Alpha  occ. eigenvalues --  -10.21272 -10.21170 -10.21159 -10.21153 -10.21038
 Alpha  occ. eigenvalues --  -10.21024 -10.21018 -10.20834 -10.20811 -10.20803
 Alpha  occ. eigenvalues --   -0.97795  -0.97699  -0.97693  -0.96883  -0.96869
 Alpha  occ. eigenvalues --   -0.96862  -0.95304  -0.95303  -0.95055  -0.91328
 Alpha  occ. eigenvalues --   -0.90740  -0.90714  -0.90115  -0.89537  -0.89521
 Alpha  occ. eigenvalues --   -0.85745  -0.85742  -0.85345  -0.84259  -0.84057
 Alpha  occ. eigenvalues --   -0.84040  -0.80961  -0.80958  -0.80891  -0.80850
 Alpha  occ. eigenvalues --   -0.80845  -0.80840  -0.76811  -0.76807  -0.76702
 Alpha  occ. eigenvalues --   -0.76235  -0.75939  -0.75933  -0.75690  -0.75474
 Alpha  occ. eigenvalues --   -0.75472  -0.74254  -0.73854  -0.73835  -0.68629
 Alpha  occ. eigenvalues --   -0.68458  -0.68458  -0.67625  -0.67427  -0.67422
 Alpha  occ. eigenvalues --   -0.66585  -0.66581  -0.65817  -0.62927  -0.62904
 Alpha  occ. eigenvalues --   -0.62903  -0.62665  -0.62652  -0.62429  -0.62100
 Alpha  occ. eigenvalues --   -0.61442  -0.61433  -0.60988  -0.60507  -0.60502
 Alpha  occ. eigenvalues --   -0.58259  -0.58255  -0.58111  -0.57535  -0.57463
 Alpha  occ. eigenvalues --   -0.57451  -0.56189  -0.56187  -0.56183  -0.55984
 Alpha  occ. eigenvalues --   -0.55979  -0.55889  -0.54008  -0.53392  -0.53387
 Alpha  occ. eigenvalues --   -0.52706  -0.52701  -0.52598  -0.50982  -0.50980
 Alpha  occ. eigenvalues --   -0.50807  -0.50263  -0.50255  -0.49921  -0.49836
 Alpha  occ. eigenvalues --   -0.49390  -0.49305  -0.49290  -0.48868  -0.48847
 Alpha  occ. eigenvalues --   -0.48703  -0.48491  -0.48469  -0.47489  -0.47485
 Alpha  occ. eigenvalues --   -0.47327  -0.47179  -0.46740  -0.46739  -0.46289
 Alpha  occ. eigenvalues --   -0.46012  -0.45933  -0.45920  -0.45729  -0.45718
 Alpha  occ. eigenvalues --   -0.45493  -0.44964  -0.44961  -0.44425  -0.44423
 Alpha  occ. eigenvalues --   -0.44404  -0.44083  -0.44079  -0.43934  -0.43629
 Alpha  occ. eigenvalues --   -0.43626  -0.43486  -0.42397  -0.42394  -0.42313
 Alpha  occ. eigenvalues --   -0.41811  -0.41809  -0.41476  -0.41392  -0.41093
 Alpha  occ. eigenvalues --   -0.41079  -0.40019  -0.39898  -0.39896  -0.39701
 Alpha  occ. eigenvalues --   -0.39687  -0.39674  -0.39440  -0.39145  -0.39128
 Alpha  occ. eigenvalues --   -0.38403  -0.38398  -0.38341  -0.37912  -0.37906
 Alpha  occ. eigenvalues --   -0.37762  -0.37081  -0.36788  -0.36782  -0.36776
 Alpha  occ. eigenvalues --   -0.36303  -0.36296  -0.36134  -0.36095  -0.36090
 Alpha  occ. eigenvalues --   -0.35984  -0.35841  -0.35833  -0.35766  -0.35664
 Alpha  occ. eigenvalues --   -0.35659  -0.35641  -0.35544  -0.35541  -0.34024
 Alpha  occ. eigenvalues --   -0.34019  -0.34014  -0.33669  -0.33667  -0.33532
 Alpha  occ. eigenvalues --   -0.33467  -0.33459  -0.33281  -0.32302  -0.32166
 Alpha  occ. eigenvalues --   -0.32157  -0.32146  -0.31856  -0.31854  -0.31200
 Alpha  occ. eigenvalues --   -0.31184  -0.31177  -0.29701  -0.29692  -0.29195
 Alpha  occ. eigenvalues --   -0.27661  -0.27534  -0.27529  -0.27276  -0.27271
 Alpha  occ. eigenvalues --   -0.27204  -0.27073  -0.27069  -0.27020  -0.26157
 Alpha  occ. eigenvalues --   -0.26139  -0.25964  -0.25726  -0.25649  -0.25644
 Alpha  occ. eigenvalues --   -0.25419  -0.25408  -0.23711
 Alpha virt. eigenvalues --   -0.06282  -0.06115  -0.06112  -0.05780  -0.05662
 Alpha virt. eigenvalues --   -0.05661  -0.02092  -0.02086  -0.01496   0.03102
 Alpha virt. eigenvalues --    0.03846   0.03894   0.04102   0.04494   0.04858

 Mulliken charges:
               1
     1  C    0.370767
     2  C   -0.179041
     3  C   -0.344586
     4  C    0.359568
     5  H    0.122537
     6  C   -0.364321
     7  C    0.363753
     8  H    0.120120
     9  C   -0.362726
    10  C   -0.159343
    11  H    0.122182
    12  C   -0.163215
    13  H    0.086986
    14  H    0.091224
    15  H    0.088993
    16  C    0.370470
    17  C   -0.178217
    18  C   -0.344409
    19  C    0.359149
    20  H    0.122859
    21  C   -0.363919
    22  C    0.363951
    23  H    0.120264
    24  C   -0.362818
    25  C   -0.159729
    26  H    0.122213
    27  C   -0.163273
    28  H    0.087231
    29  H    0.090875
    30  H    0.088892
    31  C    0.369816
    32  C   -0.180281
    33  C   -0.344419
    34  C    0.359679
    35  H    0.122762
    36  C   -0.364431
    37  C    0.364090
    38  H    0.120100
    39  C   -0.362611
    40  C   -0.159846
    41  H    0.122023
    42  C   -0.163411
    43  H    0.087150
    44  H    0.091467
    45  H    0.088951
    46  C    0.082863
    47  C    0.044185
    48  N   -0.581852
    49  N   -0.213972
    50  C   -0.199223
    51  C    0.084389
    52  C    0.042800
    53  N   -0.582112
    54  C   -0.231192
    55  N   -0.214489
    56  C    0.080708
    57  C    0.044737
    58  N   -0.579536
    59  C   -0.230819
    60  N   -0.212982
    61  C    0.050251
    62  C    0.034594
    63  N   -0.195725
    64  N   -0.194545
    65  C    0.034285
    66  C    0.050937
    67  N   -0.194310
    68  N   -0.195586
    69  C    0.050985
    70  C    0.034173
    71  N   -0.195441
    72  N   -0.193958
    73  C   -0.195700
    74  H    0.223180
    75  H    0.243092
    76  H    0.243291
    77  H    0.223844
    78  H    0.224609
    79  H    0.242714
    80  C   -0.184467
    81  C   -0.184660
    82  H    0.069616
    83  C   -0.176160
    84  H    0.097027
    85  H    0.110151
    86  C   -0.178642
    87  H    0.109591
    88  H    0.090624
    89  C   -0.198921
    90  H    0.091058
    91  H    0.111220
    92  H    0.109810
    93  H    0.100683
    94  H    0.044338
    95  H    0.044665
    96  C   -0.178605
    97  H    0.100742
    98  H    0.109849
    99  C   -0.175592
   100  H    0.111248
   101  H    0.091004
   102  C   -0.232166
   103  H    0.090579
   104  H    0.109651
   105  H    0.110156
   106  H    0.097595
   107  H    0.069701
   108  H    0.070373
   109  C   -0.199464
   110  H    0.044700
   111  C   -0.178344
   112  H    0.100962
   113  H    0.109940
   114  C   -0.176805
   115  H    0.111321
   116  H    0.091106
   117  H    0.109925
   118  H    0.097725
   119  H    0.109760
   120  H    0.090826
   121  H    0.052520
   122  C   -0.177097
   123  H    0.103489
   124  H    0.112617
   125  C   -0.183521
   126  H    0.112902
   127  H    0.092331
   128  C   -0.184732
   129  H    0.092753
   130  H    0.112746
   131  H    0.111186
   132  H    0.101192
   133  H    0.052796
   134  H    0.053038
   135  C   -0.183572
   136  H    0.101151
   137  H    0.111213
   138  C   -0.177166
   139  H    0.112759
   140  H    0.092752
   141  C   -0.195715
   142  H    0.092355
   143  H    0.112902
   144  H    0.112526
   145  H    0.103605
   146  H    0.052579
   147  H    0.053237
   148  C   -0.183701
   149  H    0.101153
   150  H    0.111212
   151  C   -0.177321
   152  H    0.112778
   153  H    0.092797
   154  C   -0.195550
   155  H    0.092371
   156  H    0.112951
   157  H    0.112593
   158  H    0.103553
   159  H    0.052527
 Sum of Mulliken charges =   0.00000

 Dipole moment (field-independent basis, Debye):
    X=              0.7066    Y=             -0.0567    Z=              0.0274  Tot=              0.7094
 Quadrupole moment (field-independent basis, Debye-Ang):
   XX=           -417.6198   YY=           -438.1037   ZZ=           -438.2155
   XY=              0.2032   XZ=              0.0911   YZ=             -0.0930

 Normal termination of Gaussian 16 at Mon Oct 18 06:33:07 2021.
