 Gaussian 16, Revision C.01,
 Gaussian 16:  ES64L-G16RevC.01  3-Jul-2019

 ----------------------------------------------------------------------
 #P PBE1PBE/Def2TZVP SP SCF=(YQC,MaxCycle=900) int=(Grid=Superfinegrid)
  EmpiricalDispersion=GD3
 ----------------------------------------------------------------------

 -------------------------
 _3_alde1_5_ami1_1_opt_gas
 -------------------------
 Symbolic Z-matrix:
 Charge =  0 Multiplicity = 1

                         Standard orientation:
 ---------------------------------------------------------------------
 Center     Atomic      Atomic             Coordinates (Angstroms)
 Number     Number       Type             X           Y           Z
 ---------------------------------------------------------------------
      1          6           0       -1.202505   -2.021158    2.071857
      2          6           0       -0.877007   -1.403254    3.347430
      3          6           0       -0.253648   -2.684745    1.295562
      4          6           0       -0.606324   -3.229952    0.064508
      5          1           0        0.756093   -2.771744    1.666802
      6          6           0       -1.902556   -3.052784   -0.419674
      7          6           0       -2.857858   -2.390764    0.341498
      8          1           0       -2.143752   -3.453067   -1.392646
      9          6           0       -2.506375   -1.909224    1.600365
     10          6           0       -4.193792   -2.141011   -0.184465
     11          1           0       -3.266961   -1.418388    2.186535
     12          6           0        0.377479   -3.965311   -0.716526
     13          1           0       -4.303106   -2.250992   -1.274809
     14          1           0       -1.748971   -1.058604    3.923558
     15          1           0        1.374591   -4.053992   -0.261399
     16          6           0        2.594661    0.141657    0.055879
     17          6           0        3.058982   -0.159885    1.464193
     18          6           0        2.396516    1.444256   -0.373200
     19          6           0        1.926482    1.707466   -1.659576
     20          1           0        2.620220    2.258922    0.300091
     21          6           0        1.638783    0.646000   -2.513534
     22          6           0        1.856262   -0.662144   -2.099495
     23          1           0        1.262374    0.865272   -3.500935
     24          6           0        2.336410   -0.903659   -0.813461
     25          6           0        1.552545   -1.786609   -2.973607
     26          1           0        2.508545   -1.919503   -0.501933
     27          6           0        1.714525    3.084636   -2.072856
     28          1           0        0.843161   -1.584706   -3.792306
     29          1           0        1.969355    3.847734   -1.320565
     30          6           0       -1.214167    2.071543    1.619436
     31          6           0       -0.123142    1.812944    2.549998
     32          6           0       -2.484014    1.555148    1.871167
     33          6           0       -3.488019    1.632529    0.912779
     34          1           0       -2.654975    1.058695    2.813529
     35          6           0       -3.226317    2.273616   -0.296968
     36          6           0       -1.987583    2.858348   -0.532838
     37          1           0       -4.008734    2.310247   -1.039641
     38          6           0       -0.980817    2.742916    0.424579
     39          6           0       -1.724129    3.529867   -1.799960
     40          1           0       -0.014252    3.169299    0.208875
     41          6           0       -4.758141    0.965118    1.153549
     42          1           0       -2.374618    3.233257   -2.638319
     43          1           0       -4.897435    0.569059    2.170884
     44          6           0        0.771260    0.991052    4.547592
     45          6           0        0.461330   -0.468190    4.983136
     46          7           0       -0.329222    1.381609    3.716803
     47          1           0        1.712500    0.995483    3.972861
     48          6           0        0.923202    1.976927    5.723848
     49          7           0        0.298934   -1.222886    3.769406
     50          1           0       -0.489395   -0.431625    5.541366
     51          6           0        1.527170   -1.129590    5.872319
     52          1           0        1.720717    1.603722    6.374920
     53          6           0       -0.363422    2.113809    6.532564
     54          6           0        1.352786    3.341099    5.183398
     55          1           0        1.643807   -0.525392    6.777798
     56          6           0        2.874316   -1.245751    5.167464
     57          6           0        1.032205   -2.516483    6.283922
     58          1           0        0.571012    3.760812    4.554100
     59          1           0        2.261682    3.255067    4.590635
     60          1           0        1.541709    4.028888    6.004617
     61          1           0       -0.594242    1.194189    7.063787
     62          1           0       -1.189903    2.352479    5.868644
     63          1           0       -0.258759    2.910950    7.265477
     64          1           0        0.078061   -2.446855    6.802153
     65          1           0        1.749119   -2.995118    6.947265
     66          1           0        0.900092   -3.140154    5.402646
     67          1           0        3.561846   -1.841776    5.764695
     68          1           0        3.319916   -0.265615    5.017376
     69          1           0        2.731823   -1.729086    4.204544
     70          6           0        5.112544    0.874418    1.525334
     71          6           0        5.321563   -0.646613    1.214291
     72          7           0        3.747947    0.992891    2.031787
     73          1           0        5.137649    1.418954    0.573125
     74          6           0        6.164337    1.491602    2.456744
     75          7           0        4.016175   -1.264238    1.447620
     76          1           0        6.068520   -1.083660    1.885803
     77          6           0        5.783659   -0.901680   -0.230477
     78          1           0        7.144212    1.237791    2.038275
     79          6           0        6.108395    0.954594    3.888576
     80          6           0        6.018599    3.012844    2.468150
     81          1           0        5.056812   -0.441611   -0.907008
     82          6           0        5.814730   -2.402915   -0.506935
     83          6           0        7.161826   -0.297176   -0.485635
     84          1           0        6.747009    3.460978    3.140325
     85          1           0        5.020445    3.290300    2.798778
     86          1           0        6.172855    3.419793    1.471587
     87          1           0        5.259297    1.367901    4.430944
     88          1           0        7.009191    1.245788    4.424204
     89          1           0        6.042525   -0.131379    3.907861
     90          1           0        7.892818   -0.713031    0.205990
     91          1           0        7.151644    0.783548   -0.369748
     92          1           0        7.484384   -0.525234   -1.498948
     93          1           0        6.543908   -2.893128    0.135689
     94          1           0        6.087491   -2.589601   -1.542838
     95          1           0        4.837052   -2.834517   -0.318049
     96          6           0        1.149302   -5.107406   -2.586562
     97          6           0        1.673686   -4.040127   -3.586796
     98          7           0        0.102968   -4.474263   -1.837694
     99          1           0        1.994317   -5.367504   -1.927458
    100          6           0        0.606903   -6.388382   -3.241937
    101          7           0        2.062512   -2.922046   -2.782906
    102          1           0        0.849400   -3.769590   -4.269616
    103          6           0        2.873337   -4.517477   -4.430144
    104          1           0        1.416006   -6.850612   -3.816463
    105          6           0       -0.571834   -6.103208   -4.168062
    106          6           0        0.184955   -7.362335   -2.141405
    107          1           0        2.563900   -5.410760   -4.981967
    108          6           0        4.086220   -4.849756   -3.565467
    109          6           0        3.236011   -3.434349   -5.446448
    110          1           0       -0.619826   -6.928548   -1.552363
    111          1           0        1.019660   -7.579396   -1.477687
    112          1           0       -0.162910   -8.297749   -2.573891
    113          1           0       -0.253485   -5.562218   -5.055406
    114          1           0       -1.311774   -5.508686   -3.640095
    115          1           0       -1.030983   -7.036457   -4.486951
    116          1           0        4.038147   -3.779565   -6.094865
    117          1           0        3.567924   -2.533713   -4.934341
    118          1           0        2.378150   -3.182961   -6.067343
    119          1           0        4.955129   -5.027111   -4.195866
    120          1           0        3.913624   -5.742681   -2.970593
    121          1           0        4.297088   -4.018885   -2.898028
    122          6           0       -6.416641   -1.439824   -0.006703
    123          6           0       -6.761687   -0.022737    0.532302
    124          7           0       -5.146015   -1.783317    0.558677
    125          1           0       -6.353227   -1.385383   -1.106653
    126          6           0       -7.461875   -2.511679    0.367816
    127          7           0       -5.620977    0.799515    0.248793
    128          1           0       -6.907557   -0.119773    1.621480
    129          6           0       -8.019434    0.607048   -0.089013
    130          1           0       -8.439099   -2.162532    0.019368
    131          6           0       -7.523561   -2.758718    1.872691
    132          6           0       -7.135585   -3.814387   -0.362473
    133          1           0       -8.871532   -0.050053    0.113632
    134          6           0       -7.879305    0.801957   -1.596175
    135          6           0       -8.279821    1.951567    0.590687
    136          1           0       -7.098976   -3.656787   -1.438649
    137          1           0       -7.895476   -4.563704   -0.152428
    138          1           0       -6.171959   -4.200092   -0.035991
    139          1           0       -7.911208   -1.890937    2.399417
    140          1           0       -6.529011   -2.981828    2.249732
    141          1           0       -8.178041   -3.601745    2.083653
    142          1           0       -8.391294    1.825666    1.665864
    143          1           0       -9.188711    2.405038    0.201912
    144          1           0       -7.446431    2.625965    0.407329
    145          1           0       -6.943902    1.310830   -1.810444
    146          1           0       -8.703621    1.403584   -1.972762
    147          1           0       -7.889892   -0.150271   -2.120059
    148          6           0        0.972261    4.776717   -3.474529
    149          6           0       -0.544095    4.974473   -3.202856
    150          7           0        1.257577    3.396611   -3.206599
    151          1           0        1.514468    5.427740   -2.767668
    152          6           0        1.408162    5.123047   -4.908499
    153          7           0       -0.808493    4.384435   -1.924315
    154          1           0       -1.109195    4.456177   -3.996056
    155          6           0       -0.975609    6.456522   -3.189019
    156          1           0        1.122521    6.159500   -5.117024
    157          6           0        0.762785    4.204673   -5.942616
    158          6           0        2.930859    5.017530   -4.996192
    159          1           0       -0.625403    6.916167   -4.118764
    160          6           0       -0.391412    7.218417   -2.002252
    161          6           0       -2.501623    6.540810   -3.161722
    162          1           0        3.242339    3.996931   -4.785792
    163          1           0        3.406222    5.679373   -4.274749
    164          1           0        3.275202    5.290154   -5.991173
    165          1           0        1.215937    4.365137   -6.918477
    166          1           0       -0.303507    4.395857   -6.030845
    167          1           0        0.911058    3.169458   -5.649426
    168          1           0       -2.934170    6.019037   -4.013187
    169          1           0       -2.822085    7.579572   -3.198887
    170          1           0       -2.888505    6.093900   -2.248088
    171          1           0       -0.638118    6.704572   -1.076998
    172          1           0       -0.803150    8.224810   -1.968709
    173          1           0        0.689573    7.298705   -2.078276
    174          1           0        0.888598    1.961833    2.146011
    175          1           0        4.005448   -1.746237    2.339873
    176          1           0        2.176340   -0.424127    2.061010
    177          1           0        3.758327    0.906209    3.043817
 ---------------------------------------------------------------------

 SCF Done:  E(RPBE1PBE) =  -3158.30965865     a.u. after    7 cycles
 SCF Done:  E(RPBE1PBE) =  -3158.30967519     A.U. after    8 cycles

 The electronic state is 1-A.
 Alpha  occ. eigenvalues --  -14.37625 -14.37515 -14.37504 -14.37308 -14.37056
 Alpha  occ. eigenvalues --  -14.37040 -14.36905 -14.36848 -14.36561 -14.36519
 Alpha  occ. eigenvalues --  -10.27409 -10.26578 -10.26558 -10.26482 -10.26317
 Alpha  occ. eigenvalues --  -10.26135 -10.25947 -10.25938 -10.25618 -10.25452
 Alpha  occ. eigenvalues --  -10.25224 -10.25101 -10.24821 -10.24766 -10.24678
 Alpha  occ. eigenvalues --  -10.24482 -10.24454 -10.24430 -10.24263 -10.24133
 Alpha  occ. eigenvalues --  -10.24061 -10.23994 -10.23963 -10.23940 -10.23905
 Alpha  occ. eigenvalues --  -10.23748 -10.23632 -10.23565 -10.23528 -10.23521
 Alpha  occ. eigenvalues --  -10.23497 -10.23179 -10.23105 -10.23096 -10.23070
 Alpha  occ. eigenvalues --  -10.23032 -10.22844 -10.22769 -10.22561 -10.22506
 Alpha  occ. eigenvalues --  -10.22479 -10.22348 -10.22304 -10.22065 -10.22040
 Alpha  occ. eigenvalues --  -10.21966 -10.21650 -10.21302 -10.21079 -10.20662
 Alpha  occ. eigenvalues --  -10.20624 -10.20622 -10.20434 -10.20300 -10.20286
 Alpha  occ. eigenvalues --  -10.20167 -10.20052 -10.20039 -10.20037 -10.19830
 Alpha  occ. eigenvalues --  -10.19817 -10.19801 -10.19772 -10.19601 -10.19575
 Alpha  occ. eigenvalues --  -10.19483 -10.18985  -0.99441  -0.97990  -0.97734
 Alpha  occ. eigenvalues --   -0.97418  -0.97375  -0.95072  -0.94659  -0.94451
 Alpha  occ. eigenvalues --   -0.94247  -0.90183  -0.89467  -0.88944  -0.88430
 Alpha  occ. eigenvalues --   -0.84998  -0.84450  -0.84273  -0.83897  -0.83401
 Alpha  occ. eigenvalues --   -0.82556  -0.82084  -0.81644  -0.81586  -0.80861
 Alpha  occ. eigenvalues --   -0.80019  -0.79729  -0.79520  -0.79375  -0.78912
 Alpha  occ. eigenvalues --   -0.78675  -0.74937  -0.74113  -0.74006  -0.73741
 Alpha  occ. eigenvalues --   -0.73143  -0.71291  -0.71064  -0.70566  -0.70436
 Alpha  occ. eigenvalues --   -0.70221  -0.70087  -0.70019  -0.69796  -0.69750
 Alpha  occ. eigenvalues --   -0.69704  -0.69113  -0.68913  -0.68730  -0.68482
 Alpha  occ. eigenvalues --   -0.66769  -0.66592  -0.65813  -0.65717  -0.64381
 Alpha  occ. eigenvalues --   -0.64093  -0.63967  -0.63372  -0.62515  -0.62287
 Alpha  occ. eigenvalues --   -0.60243  -0.59617  -0.59424  -0.59141  -0.58768
 Alpha  occ. eigenvalues --   -0.57899  -0.57633  -0.57403  -0.56883  -0.56590
 Alpha  occ. eigenvalues --   -0.56072  -0.55624  -0.55463  -0.55079  -0.55000
 Alpha  occ. eigenvalues --   -0.54365  -0.53467  -0.53220  -0.53185  -0.52623
 Alpha  occ. eigenvalues --   -0.51923  -0.51762  -0.51565  -0.50771  -0.50441
 Alpha  occ. eigenvalues --   -0.50201  -0.50069  -0.49757  -0.49729  -0.49552
 Alpha  occ. eigenvalues --   -0.49234  -0.48910  -0.48749  -0.48447  -0.48227
 Alpha  occ. eigenvalues --   -0.48048  -0.47673  -0.47113  -0.46798  -0.46687
 Alpha  occ. eigenvalues --   -0.46374  -0.46219  -0.45962  -0.45728  -0.45469
 Alpha  occ. eigenvalues --   -0.45366  -0.45038  -0.45008  -0.44849  -0.44606
 Alpha  occ. eigenvalues --   -0.44398  -0.44253  -0.44085  -0.43546  -0.43395
 Alpha  occ. eigenvalues --   -0.43282  -0.43133  -0.43053  -0.42942  -0.42824
 Alpha  occ. eigenvalues --   -0.42654  -0.42594  -0.42527  -0.42439  -0.42107
 Alpha  occ. eigenvalues --   -0.41788  -0.41775  -0.41492  -0.41423  -0.40837
 Alpha  occ. eigenvalues --   -0.40588  -0.40341  -0.40297  -0.40182  -0.39957
 Alpha  occ. eigenvalues --   -0.39916  -0.39787  -0.39697  -0.39542  -0.39507
 Alpha  occ. eigenvalues --   -0.39398  -0.39113  -0.39057  -0.38955  -0.38790
 Alpha  occ. eigenvalues --   -0.38712  -0.38488  -0.38407  -0.38139  -0.38034
 Alpha  occ. eigenvalues --   -0.37961  -0.37841  -0.37708  -0.37469  -0.37353
 Alpha  occ. eigenvalues --   -0.36940  -0.36819  -0.36631  -0.36496  -0.36217
 Alpha  occ. eigenvalues --   -0.36094  -0.35780  -0.35620  -0.35417  -0.35267
 Alpha  occ. eigenvalues --   -0.35081  -0.35008  -0.34878  -0.34734  -0.34702
 Alpha  occ. eigenvalues --   -0.34648  -0.34593  -0.34506  -0.34406  -0.34211
 Alpha  occ. eigenvalues --   -0.34190  -0.34082  -0.33875  -0.33728  -0.33606
 Alpha  occ. eigenvalues --   -0.33596  -0.33406  -0.33153  -0.33031  -0.32790
 Alpha  occ. eigenvalues --   -0.32756  -0.32645  -0.32466  -0.32213  -0.32156
 Alpha  occ. eigenvalues --   -0.32065  -0.31846  -0.30083  -0.29907  -0.29375
 Alpha  occ. eigenvalues --   -0.27597  -0.26991  -0.26816  -0.26702  -0.26624
 Alpha  occ. eigenvalues --   -0.26353  -0.26240  -0.26151  -0.25944  -0.25658
 Alpha  occ. eigenvalues --   -0.25579  -0.25230  -0.25186  -0.25004  -0.24498
 Alpha  occ. eigenvalues --   -0.23710
 Alpha virt. eigenvalues --   -0.06175  -0.06023  -0.05315  -0.05049  -0.04712
 Alpha virt. eigenvalues --   -0.03583  -0.02154  -0.01187   0.01583   0.02684
 Alpha virt. eigenvalues --    0.03784   0.03978   0.04103   0.04259   0.04287

 Mulliken charges:
               1
     1  C    0.382128
     2  C   -0.189572
     3  C   -0.355615
     4  C    0.402282
     5  H    0.135193
     6  C   -0.363127
     7  C    0.347102
     8  H    0.137513
     9  C   -0.285043
    10  C   -0.179858
    11  H    0.125725
    12  C   -0.212041
    13  H    0.075286
    14  H    0.090938
    15  H    0.090270
    16  C    0.158710
    17  C    0.189450
    18  C   -0.433904
    19  C    0.419412
    20  H    0.159219
    21  C   -0.397463
    22  C    0.435113
    23  H    0.129406
    24  C   -0.420753
    25  C   -0.193641
    26  H    0.142203
    27  C   -0.184498
    28  H    0.072499
    29  H    0.074180
    30  C    0.330561
    31  C   -0.179216
    32  C   -0.307790
    33  C    0.389410
    34  H    0.127003
    35  C   -0.374481
    36  C    0.379580
    37  H    0.136164
    38  C   -0.304519
    39  C   -0.170760
    40  H    0.114062
    41  C   -0.184444
    42  H    0.077038
    43  H    0.080952
    44  C    0.172583
    45  C    0.135066
    46  N   -0.273371
    47  H   -0.008861
    48  C   -0.038729
    49  N   -0.277233
    50  H    0.082558
    51  C    0.016539
    52  H    0.077483
    53  C   -0.405714
    54  C   -0.383092
    55  H    0.083260
    56  C   -0.422690
    57  C   -0.389022
    58  H    0.129303
    59  H    0.119380
    60  H    0.123925
    61  H    0.119531
    62  H    0.139821
    63  H    0.119977
    64  H    0.115789
    65  H    0.121904
    66  H    0.132469
    67  H    0.127177
    68  H    0.109345
    69  H    0.119091
    70  C   -0.042349
    71  C   -0.037434
    72  N   -0.319676
    73  H    0.094197
    74  C   -0.031857
    75  N   -0.309326
    76  H    0.085782
    77  C   -0.034028
    78  H    0.092139
    79  C   -0.422947
    80  C   -0.362231
    81  H    0.092167
    82  C   -0.387447
    83  C   -0.379645
    84  H    0.121358
    85  H    0.128462
    86  H    0.117928
    87  H    0.122622
    88  H    0.133575
    89  H    0.130780
    90  H    0.111109
    91  H    0.123231
    92  H    0.126372
    93  H    0.099550
    94  H    0.117084
    95  H    0.139893
    96  C    0.091365
    97  C    0.097038
    98  N   -0.251533
    99  H    0.081617
   100  C    0.002277
   101  N   -0.258349
   102  H    0.078888
   103  C   -0.020924
   104  H    0.079406
   105  C   -0.410014
   106  C   -0.389487
   107  H    0.080561
   108  C   -0.413204
   109  C   -0.382240
   110  H    0.131684
   111  H    0.112186
   112  H    0.120339
   113  H    0.118725
   114  H    0.136498
   115  H    0.116375
   116  H    0.122225
   117  H    0.129018
   118  H    0.111790
   119  H    0.114152
   120  H    0.116969
   121  H    0.149397
   122  C    0.096653
   123  C    0.105315
   124  N   -0.256622
   125  H    0.080389
   126  C   -0.023730
   127  N   -0.254927
   128  H    0.073006
   129  C    0.001214
   130  H    0.078272
   131  C   -0.402973
   132  C   -0.384220
   133  H    0.075742
   134  C   -0.409147
   135  C   -0.388217
   136  H    0.114147
   137  H    0.123896
   138  H    0.128626
   139  H    0.117557
   140  H    0.138046
   141  H    0.117788
   142  H    0.111881
   143  H    0.121129
   144  H    0.131368
   145  H    0.137936
   146  H    0.116882
   147  H    0.116974
   148  C    0.122281
   149  C    0.103324
   150  N   -0.252663
   151  H    0.062841
   152  C    0.007686
   153  N   -0.261411
   154  H    0.072114
   155  C   -0.017977
   156  H    0.070245
   157  C   -0.406031
   158  C   -0.388337
   159  H    0.073424
   160  C   -0.398508
   161  C   -0.386307
   162  H    0.132208
   163  H    0.110838
   164  H    0.119949
   165  H    0.114924
   166  H    0.114018
   167  H    0.139445
   168  H    0.114364
   169  H    0.123035
   170  H    0.128353
   171  H    0.138610
   172  H    0.116228
   173  H    0.115081
   174  H    0.105520
   175  H    0.183104
   176  H    0.144453
   177  H    0.146974
 Sum of Mulliken charges =   0.00000

 Dipole moment (field-independent basis, Debye):
    X=              0.7744    Y=              0.0955    Z=              1.6941  Tot=              1.8651
 Quadrupole moment (field-independent basis, Debye-Ang):
   XX=           -459.6446   YY=           -477.8761   ZZ=           -459.0540
   XY=              3.6009   XZ=             14.0209   YZ=             -0.7466

 Normal termination of Gaussian 16 at Mon Oct 18 02:32:59 2021.
