 Gaussian 16, Revision C.01,
 Gaussian 16:  ES64L-G16RevC.01  3-Jul-2019

 ----------------------------------------------------------------------
 #P PBE1PBE/Def2TZVP SP SCF=(YQC,MaxCycle=900) int=(Grid=Superfinegrid)
  EmpiricalDispersion=GD3 SCRF=(PCM,Solvent=Dichloromethane)
 ----------------------------------------------------------------------

 -------------------------
 _3_alde1_4_ami3_1_opt_dcm
 -------------------------
 Symbolic Z-matrix:
 Charge =  0 Multiplicity = 1

                         Standard orientation:
 ---------------------------------------------------------------------
 Center     Atomic      Atomic             Coordinates (Angstroms)
 Number     Number       Type             X           Y           Z
 ---------------------------------------------------------------------
      1          6           0       -3.415786   -1.635382    0.544088
      2          6           0       -3.594363   -2.874555   -0.194150
      3          6           0       -3.736992   -0.394367   -0.003949
      4          6           0       -3.467426    0.775407    0.698424
      5          1           0       -4.191140   -0.364782   -0.982512
      6          6           0       -2.837472    0.706138    1.942546
      7          6           0       -2.489747   -0.522783    2.489631
      8          1           0       -2.610720    1.630155    2.452296
      9          6           0       -2.813289   -1.688161    1.794128
     10          6           0       -1.667031   -0.614982    3.688705
     11          1           0       -2.549984   -2.634549    2.240696
     12          6           0       -3.799834    2.065291    0.112583
     13          1           0       -1.379308    0.340055    4.148086
     14          1           0       -3.341057   -3.787592    0.366484
     15          1           0       -4.177020    2.037213   -0.921527
     16          6           0        1.088407    2.752603   -3.311670
     17          6           0        0.906190    2.686335   -4.769189
     18          6           0        2.264499    2.273369   -2.736720
     19          6           0        2.437432    2.305360   -1.356810
     20          1           0        3.048762    1.879097   -3.363919
     21          6           0        1.418874    2.820799   -0.557657
     22          6           0        0.257126    3.343953   -1.121706
     23          1           0        1.545841    2.841859    0.516109
     24          6           0        0.094961    3.299177   -2.504500
     25          6           0       -0.744265    3.976457   -0.273125
     26          1           0       -0.811831    3.702054   -2.928982
     27          6           0        3.673135    1.832547   -0.745327
     28          1           0       -0.559175    3.917821    0.810287
     29          1           0       -0.042882    3.140949   -5.117524
     30          1           0        3.631007    1.649781    0.339335
     31          6           0        0.488826   -2.804299   -1.260142
     32          6           0       -0.561630   -3.180412   -2.198065
     33          6           0        0.286645   -2.910816    0.113586
     34          6           0        1.234879   -2.425937    1.011587
     35          1           0       -0.644425   -3.327901    0.463733
     36          6           0        2.430278   -1.903239    0.527172
     37          6           0        2.662957   -1.826124   -0.843276
     38          1           0        3.174790   -1.536642    1.214587
     39          6           0        1.674032   -2.246306   -1.729908
     40          6           0        3.897532   -1.257296   -1.361458
     41          1           0        1.834128   -2.147226   -2.794961
     42          6           0        0.890279   -2.360062    2.428047
     43          1           0        3.916730   -1.071765   -2.446887
     44          1           0       -0.016285   -2.906123    2.709086
     45          6           0       -2.538493   -4.225158   -2.844993
     46          6           0       -3.874682   -4.186241   -2.068297
     47          7           0       -1.479644   -3.993857   -1.909530
     48          7           0       -3.942588   -2.919104   -1.406517
     49          8           0        1.679418    2.190683   -5.547352
     50          6           0       -3.968727    4.393222    0.128554
     51          6           0       -2.672930    5.234188    0.106314
     52          7           0       -3.661611    3.144363    0.749947
     53          7           0       -1.732433    4.591571   -0.757325
     54          6           0       -0.231046   -1.937949    5.048681
     55          6           0        1.118727   -1.338917    4.561069
     56          7           0       -1.250948   -1.748648    4.063575
     57          7           0        1.526438   -1.615602    3.222294
     58          6           0        5.902826    1.166981   -0.788341
     59          6           0        6.019341   -0.331835   -1.172711
     60          7           0        4.728448    1.678075   -1.417911
     61          7           0        4.881606   -0.991710   -0.618158
     62          1           0       -0.513593   -2.675090   -3.176813
     63          6           0        7.130899    1.924509   -1.289741
     64          6           0       -2.964705    6.632748   -0.439665
     65          6           0       -5.032128   -4.380237   -3.042512
     66          6           0        2.228380   -1.737980    5.538766
     67          1           0        1.022414   -0.242520    4.588628
     68          6           0        1.917764   -1.217376    6.938381
     69          1           0        3.174816   -1.332073    5.179420
     70          1           0        2.312015   -2.826888    5.552153
     71          6           0        0.560719   -1.725974    7.418405
     72          1           0        1.910436   -0.124833    6.923450
     73          1           0        2.698829   -1.536585    7.631088
     74          6           0       -0.539935   -1.352110    6.431104
     75          1           0        0.596677   -2.813045    7.521064
     76          1           0        0.332688   -1.305196    8.399889
     77          1           0       -0.621499   -0.265081    6.361072
     78          1           0       -1.502373   -1.740153    6.772492
     79          1           0       -0.114174   -3.026543    5.149869
     80          1           0       -2.301324    5.295787    1.144584
     81          6           0       -4.035982    7.332462    0.387575
     82          1           0       -3.292778    6.534659   -1.475804
     83          1           0       -2.039407    7.212451   -0.434790
     84          6           0       -5.316031    6.504001    0.405076
     85          1           0       -4.234762    8.320941   -0.030905
     86          1           0       -3.676475    7.466597    1.410416
     87          6           0       -5.037393    5.111265    0.956653
     88          1           0       -5.709000    6.421188   -0.610817
     89          1           0       -6.072979    6.995771    1.019161
     90          1           0       -5.948170    4.508695    0.950369
     91          1           0       -4.686411    5.177451    1.987894
     92          1           0       -4.318328    4.265422   -0.911976
     93          1           0       -3.851628   -5.016488   -1.339743
     94          6           0       -4.898010   -5.724861   -3.750690
     95          1           0       -5.023522   -3.564814   -3.767572
     96          1           0       -5.974799   -4.332544   -2.494048
     97          6           0       -3.558863   -5.826606   -4.476542
     98          1           0       -4.970758   -6.528128   -3.013685
     99          1           0       -5.715508   -5.849884   -4.463487
    100          6           0       -2.397208   -5.593473   -3.515512
    101          1           0       -3.521947   -5.079346   -5.272730
    102          1           0       -3.460235   -6.811723   -4.937243
    103          1           0       -1.446430   -5.631434   -4.052338
    104          1           0       -2.379589   -6.365605   -2.744403
    105          1           0       -2.560061   -3.443606   -3.625272
    106          1           0        5.837520    1.220996    0.312806
    107          6           0        8.409968    1.328608   -0.713450
    108          1           0        7.037917    2.974408   -1.004786
    109          1           0        7.146553    1.873403   -2.379519
    110          6           0        8.523908   -0.147426   -1.080905
    111          1           0        8.400248    1.431390    0.374249
    112          1           0        9.273741    1.876709   -1.094579
    113          6           0        7.303250   -0.915244   -0.587210
    114          1           0        9.428081   -0.573484   -0.641620
    115          1           0        8.599636   -0.245541   -2.166295
    116          1           0        7.373374   -1.966650   -0.872870
    117          1           0        7.239490   -0.867288    0.500991
    118          1           0        6.036452   -0.390697   -2.275644
 ---------------------------------------------------------------------

 SCF Done:  E(RPBE1PBE) =  -2489.59658971     a.u. after    6 cycles
 SCF Done:  E(RPBE1PBE) =  -2489.59663004     A.U. after    9 cycles

 The electronic state is 1-A.
 Alpha  occ. eigenvalues --  -19.21318 -14.38130 -14.38038 -14.37963 -14.37930
 Alpha  occ. eigenvalues --  -14.37784 -14.37678 -14.37655 -14.37652 -10.31746
 Alpha  occ. eigenvalues --  -10.27051 -10.26993 -10.26890 -10.26818 -10.26778
 Alpha  occ. eigenvalues --  -10.26632 -10.26464 -10.26190 -10.25622 -10.25315
 Alpha  occ. eigenvalues --  -10.25292 -10.25262 -10.25257 -10.25253 -10.25213
 Alpha  occ. eigenvalues --  -10.25199 -10.25192 -10.25154 -10.25061 -10.24997
 Alpha  occ. eigenvalues --  -10.24906 -10.24726 -10.24525 -10.24483 -10.24475
 Alpha  occ. eigenvalues --  -10.24406 -10.24387 -10.24299 -10.24246 -10.24026
 Alpha  occ. eigenvalues --  -10.24002 -10.23958 -10.23804 -10.23533 -10.21965
 Alpha  occ. eigenvalues --  -10.21716 -10.21704 -10.21617 -10.21567 -10.21493
 Alpha  occ. eigenvalues --  -10.21490 -10.21433 -10.21422 -10.21391 -10.21367
 Alpha  occ. eigenvalues --  -10.21355 -10.21355 -10.21328 -10.21288 -10.21256
 Alpha  occ. eigenvalues --   -1.09085  -0.98197  -0.98006  -0.97891  -0.97735
 Alpha  occ. eigenvalues --   -0.95596  -0.95370  -0.95092  -0.94789  -0.91107
 Alpha  occ. eigenvalues --   -0.90428  -0.89854  -0.85942  -0.85856  -0.85747
 Alpha  occ. eigenvalues --   -0.85139  -0.81750  -0.81364  -0.81114  -0.81051
 Alpha  occ. eigenvalues --   -0.81005  -0.80800  -0.77019  -0.76896  -0.76700
 Alpha  occ. eigenvalues --   -0.76452  -0.76254  -0.75589  -0.75567  -0.75189
 Alpha  occ. eigenvalues --   -0.69569  -0.69477  -0.68789  -0.68473  -0.68398
 Alpha  occ. eigenvalues --   -0.67532  -0.66978  -0.66678  -0.65694  -0.63262
 Alpha  occ. eigenvalues --   -0.63246  -0.63148  -0.62689  -0.62503  -0.61411
 Alpha  occ. eigenvalues --   -0.60642  -0.60173  -0.59164  -0.59038  -0.58326
 Alpha  occ. eigenvalues --   -0.58265  -0.58075  -0.57122  -0.56327  -0.56191
 Alpha  occ. eigenvalues --   -0.56064  -0.55062  -0.54178  -0.53860  -0.53423
 Alpha  occ. eigenvalues --   -0.53131  -0.53008  -0.52223  -0.51434  -0.51151
 Alpha  occ. eigenvalues --   -0.50740  -0.50184  -0.50101  -0.49993  -0.49178
 Alpha  occ. eigenvalues --   -0.48595  -0.48252  -0.47687  -0.47668  -0.47495
 Alpha  occ. eigenvalues --   -0.47396  -0.47248  -0.47123  -0.46713  -0.46333
 Alpha  occ. eigenvalues --   -0.45989  -0.45784  -0.45425  -0.45327  -0.44981
 Alpha  occ. eigenvalues --   -0.44536  -0.44495  -0.44347  -0.44245  -0.44017
 Alpha  occ. eigenvalues --   -0.43730  -0.43674  -0.43580  -0.43317  -0.42488
 Alpha  occ. eigenvalues --   -0.42301  -0.42058  -0.41886  -0.41598  -0.41097
 Alpha  occ. eigenvalues --   -0.40980  -0.40560  -0.40120  -0.40007  -0.39919
 Alpha  occ. eigenvalues --   -0.39331  -0.38825  -0.38646  -0.38352  -0.37950
 Alpha  occ. eigenvalues --   -0.37763  -0.37591  -0.37176  -0.36738  -0.36563
 Alpha  occ. eigenvalues --   -0.36372  -0.36274  -0.36165  -0.36093  -0.35938
 Alpha  occ. eigenvalues --   -0.35881  -0.35762  -0.35530  -0.35240  -0.34364
 Alpha  occ. eigenvalues --   -0.34228  -0.34101  -0.33958  -0.33797  -0.33741
 Alpha  occ. eigenvalues --   -0.33440  -0.33026  -0.32570  -0.32234  -0.32114
 Alpha  occ. eigenvalues --   -0.31992  -0.31277  -0.30204  -0.29812  -0.28648
 Alpha  occ. eigenvalues --   -0.27992  -0.27818  -0.27762  -0.27705  -0.27320
 Alpha  occ. eigenvalues --   -0.27163  -0.26976  -0.26924  -0.26234  -0.26104
 Alpha  occ. eigenvalues --   -0.25952  -0.25679  -0.25483  -0.24470
 Alpha virt. eigenvalues --   -0.07616  -0.06946  -0.06660  -0.06069  -0.05927
 Alpha virt. eigenvalues --   -0.05242  -0.02692  -0.02439  -0.01561   0.03631
 Alpha virt. eigenvalues --    0.04355   0.04536   0.04677   0.04836   0.05008

 Mulliken charges:
               1
     1  C    0.358161
     2  C   -0.148883
     3  C   -0.403704
     4  C    0.372521
     5  H    0.120092
     6  C   -0.367778
     7  C    0.375298
     8  H    0.124029
     9  C   -0.361448
    10  C   -0.150088
    11  H    0.152333
    12  C   -0.164231
    13  H    0.100699
    14  H    0.092715
    15  H    0.094207
    16  C    0.280138
    17  C    0.068208
    18  C   -0.364983
    19  C    0.349783
    20  H    0.132195
    21  C   -0.320981
    22  C    0.316814
    23  H    0.135459
    24  C   -0.308850
    25  C   -0.153763
    26  H    0.131906
    27  C   -0.158160
    28  H    0.096376
    29  H    0.098477
    30  H    0.099390
    31  C    0.292015
    32  C   -0.172660
    33  C   -0.279637
    34  C    0.346290
    35  H    0.121885
    36  C   -0.406890
    37  C    0.356001
    38  H    0.114415
    39  C   -0.325998
    40  C   -0.173232
    41  H    0.136271
    42  C   -0.123528
    43  H    0.094141
    44  H    0.117636
    45  C    0.011567
    46  C    0.065034
    47  N   -0.196101
    48  N   -0.204164
    49  O   -0.325271
    50  C    0.034029
    51  C    0.037723
    52  N   -0.197967
    53  N   -0.196216
    54  C   -0.054148
    55  C   -0.015090
    56  N   -0.224372
    57  N   -0.193904
    58  C    0.033896
    59  C    0.023575
    60  N   -0.192182
    61  N   -0.191650
    62  H    0.088681
    63  C   -0.173432
    64  C   -0.179903
    65  C   -0.174030
    66  C   -0.186464
    67  H    0.091421
    68  C   -0.188765
    69  H    0.112437
    70  H    0.108079
    71  C   -0.177603
    72  H    0.096230
    73  H    0.115143
    74  C   -0.188691
    75  H    0.099441
    76  H    0.115719
    77  H    0.109168
    78  H    0.113746
    79  H    0.094806
    80  H    0.060805
    81  C   -0.184579
    82  H    0.101392
    83  H    0.111660
    84  C   -0.178163
    85  H    0.113937
    86  H    0.093654
    87  C   -0.198503
    88  H    0.093992
    89  H    0.113957
    90  H    0.113972
    91  H    0.102999
    92  H    0.056903
    93  H    0.060703
    94  C   -0.196638
    95  H    0.100252
    96  H    0.109087
    97  C   -0.178402
    98  H    0.095442
    99  H    0.113379
   100  C   -0.200263
   101  H    0.095087
   102  H    0.113775
   103  H    0.114048
   104  H    0.105691
   105  H    0.060659
   106  H    0.064959
   107  C   -0.186943
   108  H    0.109961
   109  H    0.103413
   110  C   -0.187516
   111  H    0.093925
   112  H    0.113777
   113  C   -0.176627
   114  H    0.113543
   115  H    0.094448
   116  H    0.110499
   117  H    0.102958
   118  H    0.065370
 Sum of Mulliken charges =   0.00000

 Dipole moment (field-independent basis, Debye):
    X=             -1.8391    Y=              1.3186    Z=              4.3314  Tot=              4.8870
 Quadrupole moment (field-independent basis, Debye-Ang):
   XX=           -346.7209   YY=           -337.4564   ZZ=           -347.7901
   XY=             -3.4914   XZ=             17.7393   YZ=             17.9073

 Normal termination of Gaussian 16 at Mon Oct 18 03:44:35 2021.
