 Gaussian 16, Revision C.01,
 Gaussian 16:  ES64L-G16RevC.01  3-Jul-2019

 ----------------------------------------------------------------------
 #P MP2/aug-cc-pVDZ SP SCF=(YQC,MaxCycle=900) int=(Grid=Superfinegrid)
 SCRF=(PCM,Solvent=Dichloromethane)
 ----------------------------------------------------------------------

 -----------------------------
 _3_alde1_4_ami2_1_opt_dcm_mp2
 -----------------------------
 Symbolic Z-matrix:
 Charge =  0 Multiplicity = 1

                         Standard orientation:
 ---------------------------------------------------------------------
 Center     Atomic      Atomic             Coordinates (Angstroms)
 Number     Number       Type             X           Y           Z
 ---------------------------------------------------------------------
      1          6           0        1.283584    1.946405    1.736278
      2          6           0        0.790153    1.367774    2.984207
      3          6           0        0.498902    2.830213    1.007513
      4          6           0        0.948321    3.345344   -0.210153
      5          1           0       -0.467680    3.143945    1.370133
      6          6           0        2.167523    2.919847   -0.724529
      7          6           0        2.956995    2.016823   -0.013588
      8          1           0        2.519352    3.267056   -1.684230
      9          6           0        2.525370    1.567189    1.228957
     10          6           0        4.180531    1.470972   -0.581011
     11          1           0        3.125555    0.886885    1.811494
     12          6           0        0.117187    4.277256   -0.959713
     13          1           0        4.811442    0.899995    0.116164
     14          1           0       -0.288594    1.480265    3.147512
     15          1           0        0.565400    4.706168   -1.868766
     16          6           0       -3.396101   -0.083847    1.791214
     17          6           0       -3.464707   -0.352947    3.233300
     18          6           0       -3.383565   -1.127769    0.871689
     19          6           0       -3.295785   -0.859096   -0.493138
     20          1           0       -3.434875   -2.156049    1.195369
     21          6           0       -3.227493    0.462145   -0.921614
     22          6           0       -3.259724    1.519723   -0.013119
     23          1           0       -3.152532    0.702481   -1.971442
     24          6           0       -3.337126    1.237662    1.344464
     25          6           0       -3.154227    2.898305   -0.480308
     26          1           0       -3.352704    2.031457    2.077800
     27          6           0       -3.255057   -1.936154   -1.478428
     28          1           0       -3.127992    3.658907    0.305325
     29          1           0       -3.514757   -1.430276    3.485985
     30          1           0       -2.957525   -1.616025   -2.483272
     31          6           0        2.044168   -2.244435    1.408862
     32          6           0        2.411136   -1.798010    2.743668
     33          6           0        2.817770   -1.869641    0.317735
     34          6           0        2.408958   -2.160495   -0.983205
     35          1           0        3.734777   -1.317366    0.448272
     36          6           0        1.239209   -2.884822   -1.182491
     37          6           0        0.475217   -3.309495   -0.094101
     38          1           0        0.900042   -3.134351   -2.176529
     39          6           0        0.872167   -2.966965    1.193590
     40          6           0       -0.744218   -4.080328   -0.276857
     41          1           0        0.280394   -3.249049    2.051062
     42          6           0        3.164196   -1.632230   -2.115836
     43          1           0       -1.287223   -4.320958    0.650250
     44          1           0        2.653980   -1.710340   -3.083816
     45          6           0        1.957192   -1.247951    4.943593
     46          6           0        1.169066    0.095634    4.973995
     47          7           0        1.628190   -1.914370    3.726869
     48          7           0        1.573079    0.772561    3.770132
     49          8           0       -3.466524    0.488296    4.096073
     50          6           0       -1.936608    5.359124   -1.335391
     51          6           0       -2.844435    4.462329   -2.241392
     52          7           0       -1.051055    4.548233   -0.569852
     53          7           0       -3.066907    3.142885   -1.713946
     54          6           0        5.587425    0.851973   -2.306917
     55          6           0        5.062039   -0.453961   -2.973452
     56          7           0        4.472043    1.587592   -1.803779
     57          7           0        4.292273   -1.099731   -1.944615
     58          6           0       -3.485559   -4.230086   -2.078077
     59          6           0       -2.395552   -5.165043   -1.485318
     60          7           0       -3.552921   -3.119106   -1.167347
     61          7           0       -1.155380   -4.462656   -1.406974
     62          1           0        3.389709   -1.303160    2.830277
     63          1           0       -1.414392    6.073875   -1.988026
     64          1           0       -2.560460    5.912266   -0.627324
     65          1           0       -2.264658   -6.016992   -2.156543
     66          1           0       -2.738398   -5.516482   -0.499601
     67          1           0        1.644443   -1.868690    5.785216
     68          1           0        3.031255   -1.020422    5.020514
     69          6           0       -3.136246   -3.904341   -3.532772
     70          1           0       -3.845836   -3.191374   -3.948728
     71          1           0       -3.178902   -4.815563   -4.123344
     72          1           0       -2.129459   -3.499305   -3.596768
     73          6           0       -4.842699   -4.938705   -2.004287
     74          1           0       -4.801903   -5.892226   -2.524332
     75          1           0       -5.607330   -4.317187   -2.464742
     76          1           0       -5.116736   -5.108698   -0.966679
     77          6           0       -2.158132    4.245892   -3.595535
     78          1           0       -1.182250    3.789170   -3.447525
     79          1           0       -2.038394    5.187810   -4.124943
     80          1           0       -2.760030    3.571820   -4.198823
     81          6           0       -4.197228    5.152781   -2.449682
     82          1           0       -4.051559    6.139828   -2.881752
     83          1           0       -4.720219    5.254019   -1.500960
     84          1           0       -4.812453    4.558867   -3.121241
     85          6           0       -0.325794   -0.202511    5.105979
     86          1           0       -0.913568    0.711130    5.154408
     87          1           0       -0.504662   -0.767202    6.016926
     88          1           0       -0.657899   -0.796261    4.257056
     89          6           0        1.654887    0.936529    6.159522
     90          1           0        2.704173    1.191026    6.033518
     91          1           0        1.529925    0.384629    7.087446
     92          1           0        1.079644    1.857967    6.215756
     93          6           0        6.254033   -1.362743   -3.295917
     94          1           0        6.759601   -1.655897   -2.379464
     95          1           0        6.957998   -0.844415   -3.941727
     96          1           0        5.906379   -2.261961   -3.800105
     97          1           0        6.291742    0.569053   -1.509829
     98          1           0        6.098927    1.457478   -3.057698
     99          6           0        4.302092   -0.101086   -4.255163
    100          1           0        3.449693    0.530553   -4.015787
    101          1           0        3.958190   -0.998903   -4.764808
    102          1           0        4.960119    0.440731   -4.929101
 ---------------------------------------------------------------------

 SCF Done:  E(RHF) =  -2168.06667496     a.u. after    6 cycles
 SCF Done:  E(RHF) =  -2168.06684027     A.U. after   15 cycles
 E2 =    -0.7575208846D+01 EUMP2 =    -0.21756420491187D+04

 The electronic state is 1-A.
 Alpha  occ. eigenvalues --  -20.57271 -15.56096 -15.56044 -15.56005 -15.55910
 Alpha  occ. eigenvalues --  -15.55859 -15.55839 -15.55761 -15.55284 -11.34768
 Alpha  occ. eigenvalues --  -11.28762 -11.28682 -11.28607 -11.28568 -11.28516
 Alpha  occ. eigenvalues --  -11.28489 -11.28461 -11.28444 -11.26862 -11.26862
 Alpha  occ. eigenvalues --  -11.26810 -11.26658 -11.26588 -11.26318 -11.26052
 Alpha  occ. eigenvalues --  -11.25616 -11.25561 -11.25555 -11.25432 -11.25365
 Alpha  occ. eigenvalues --  -11.25300 -11.25287 -11.25285 -11.25234 -11.25194
 Alpha  occ. eigenvalues --  -11.25163 -11.25108 -11.25082 -11.25061 -11.25045
 Alpha  occ. eigenvalues --  -11.25019 -11.25014 -11.24996 -11.24949 -11.21889
 Alpha  occ. eigenvalues --  -11.21810 -11.21682 -11.21624 -11.21448 -11.21426
 Alpha  occ. eigenvalues --  -11.21312 -11.21018  -1.40984  -1.26673  -1.26505
 Alpha  occ. eigenvalues --   -1.26489  -1.26360  -1.23705  -1.23558  -1.23128
 Alpha  occ. eigenvalues --   -1.23057  -1.18220  -1.17475  -1.16780  -1.09458
 Alpha  occ. eigenvalues --   -1.09266  -1.08846  -1.07666  -1.05756  -1.05713
 Alpha  occ. eigenvalues --   -1.04894  -1.03743  -1.03294  -1.02866  -0.95523
 Alpha  occ. eigenvalues --   -0.94816  -0.94519  -0.94375  -0.94084  -0.93990
 Alpha  occ. eigenvalues --   -0.93790  -0.93755  -0.90514  -0.90114  -0.89730
 Alpha  occ. eigenvalues --   -0.89267  -0.88290  -0.86824  -0.86481  -0.84935
 Alpha  occ. eigenvalues --   -0.83183  -0.80471  -0.79931  -0.79079  -0.78025
 Alpha  occ. eigenvalues --   -0.75379  -0.74533  -0.74361  -0.73190  -0.72658
 Alpha  occ. eigenvalues --   -0.72313  -0.71766  -0.71146  -0.70860  -0.69329
 Alpha  occ. eigenvalues --   -0.68585  -0.68148  -0.67066  -0.66723  -0.66228
 Alpha  occ. eigenvalues --   -0.66008  -0.65473  -0.65152  -0.64461  -0.64381
 Alpha  occ. eigenvalues --   -0.63727  -0.63309  -0.63193  -0.62718  -0.62560
 Alpha  occ. eigenvalues --   -0.62422  -0.61727  -0.61472  -0.60790  -0.60637
 Alpha  occ. eigenvalues --   -0.60421  -0.60040  -0.59849  -0.59380  -0.58151
 Alpha  occ. eigenvalues --   -0.56962  -0.56138  -0.55933  -0.55786  -0.55608
 Alpha  occ. eigenvalues --   -0.55442  -0.55120  -0.55083  -0.54505  -0.54296
 Alpha  occ. eigenvalues --   -0.54094  -0.53800  -0.53736  -0.53548  -0.53457
 Alpha  occ. eigenvalues --   -0.53371  -0.53160  -0.52851  -0.52407  -0.52254
 Alpha  occ. eigenvalues --   -0.51947  -0.51810  -0.51600  -0.51202  -0.50906
 Alpha  occ. eigenvalues --   -0.50252  -0.49639  -0.49581  -0.49320  -0.48778
 Alpha  occ. eigenvalues --   -0.48330  -0.48087  -0.47877  -0.45659  -0.45306
 Alpha  occ. eigenvalues --   -0.44973  -0.44542  -0.44086  -0.43526  -0.42312
 Alpha  occ. eigenvalues --   -0.41062  -0.40611  -0.40557  -0.40250  -0.39896
 Alpha  occ. eigenvalues --   -0.39803  -0.39628  -0.39275  -0.39119  -0.38165
 Alpha  occ. eigenvalues --   -0.34317  -0.33013  -0.32713  -0.32488  -0.32271
 Alpha  occ. eigenvalues --   -0.31772
 Alpha virt. eigenvalues --    0.03297   0.03533   0.03660   0.03693   0.04245
 Alpha virt. eigenvalues --    0.04315   0.04491   0.04504   0.04629   0.05056
 Alpha virt. eigenvalues --    0.05364   0.05389   0.05484   0.05522   0.05689

 Mulliken charges:
               1
     1  C    0.702557
     2  C    0.210380
     3  C    0.192631
     4  C    0.808791
     5  H   -0.833278
     6  C    0.256382
     7  C    1.127261
     8  H   -0.864386
     9  C    0.745074
    10  C    0.589744
    11  H   -1.055863
    12  C    0.704307
    13  H   -0.621968
    14  H   -1.066023
    15  H   -0.710339
    16  C    0.969261
    17  C    1.057626
    18  C    0.458996
    19  C    1.330540
    20  H   -0.977741
    21  C   -0.318212
    22  C    1.386967
    23  H   -0.932214
    24  C    0.193579
    25  C    0.585093
    26  H   -0.971855
    27  C    0.410193
    28  H   -0.763704
    29  H   -0.425911
    30  H   -0.922094
    31  C    1.385155
    32  C    0.646287
    33  C    0.462325
    34  C    0.763964
    35  H   -1.081884
    36  C    0.209862
    37  C    1.249809
    38  H   -0.923045
    39  C   -0.009121
    40  C    0.890144
    41  H   -1.022187
    42  C    0.184173
    43  H   -0.714801
    44  H   -0.859008
    45  C    1.265845
    46  C   -3.535359
    47  N   -0.595033
    48  N    0.078067
    49  O   -0.931188
    50  C    1.677286
    51  C   -2.691476
    52  N   -0.411843
    53  N   -0.410020
    54  C    1.246289
    55  C   -3.342390
    56  N   -0.685859
    57  N    0.139159
    58  C   -3.620492
    59  C    1.303122
    60  N   -0.091962
    61  N   -0.643362
    62  H   -0.616669
    63  H   -0.151374
    64  H   -0.331090
    65  H   -0.259858
    66  H   -0.152774
    67  H   -0.271048
    68  H   -0.134293
    69  C    1.561100
    70  H    0.075033
    71  H   -0.154873
    72  H    0.086813
    73  C    1.632167
    74  H   -0.005646
    75  H   -0.048303
    76  H   -0.058476
    77  C    1.098398
    78  H   -0.121020
    79  H   -0.023071
    80  H   -0.057601
    81  C    1.271558
    82  H    0.022283
    83  H   -0.053423
    84  H   -0.022327
    85  C    1.747625
    86  H    0.046450
    87  H   -0.240491
    88  H   -0.052596
    89  C    1.621515
    90  H   -0.062213
    91  H    0.000863
    92  H   -0.040748
    93  C    1.504010
    94  H   -0.065202
    95  H    0.009967
    96  H   -0.060098
    97  H   -0.124743
    98  H   -0.286002
    99  C    1.573788
   100  H    0.066033
   101  H    0.043706
   102  H   -0.165625
 Sum of Mulliken charges =   0.00000

 Dipole moment (field-independent basis, Debye):
    X=              0.3666    Y=              0.3850    Z=             -3.9193  Tot=              3.9552
 Quadrupole moment (field-independent basis, Debye-Ang):
   XX=           -311.1661   YY=           -300.8261   ZZ=           -310.8358
   XY=              2.1939   XZ=              7.1910   YZ=             -7.8619

 Normal termination of Gaussian 16 at Tue Nov  2 17:57:02 2021.
