 Gaussian 16, Revision C.01,
 Gaussian 16:  ES64L-G16RevC.01  3-Jul-2019

 ----------------------------------------------------------------------
 #P MP2/aug-cc-pVDZ SP SCF=(YQC,MaxCycle=900) int=(Grid=Superfinegrid)
 SCRF=(PCM,Solvent=Chloroform)
 ----------------------------------------------------------------------

 -----------------------------
 _3_alde1_5_ami2_1_opt_cfm_mp2
 -----------------------------
 Symbolic Z-matrix:
 Charge =  0 Multiplicity = 1

                         Standard orientation:
 ---------------------------------------------------------------------
 Center     Atomic      Atomic             Coordinates (Angstroms)
 Number     Number       Type             X           Y           Z
 ---------------------------------------------------------------------
      1          6           0       -2.530528    2.457952   -0.535201
      2          6           0       -2.797442    3.357366    0.577289
      3          6           0       -3.255749    1.283195   -0.717855
      4          6           0       -2.922710    0.400773   -1.741886
      5          1           0       -4.080437    1.054732   -0.063154
      6          6           0       -1.829613    0.681240   -2.560025
      7          6           0       -1.100926    1.854913   -2.394886
      8          1           0       -1.555404   -0.018461   -3.337566
      9          6           0       -1.476456    2.748955   -1.395986
     10          6           0        0.081089    2.111986   -3.210617
     11          1           0       -0.906995    3.658632   -1.289898
     12          6           0       -3.680319   -0.822158   -1.961169
     13          1           0        0.441697    1.243130   -3.775095
     14          1           0       -2.270409    4.323092    0.537118
     15          1           0       -3.259448   -1.512653   -2.708252
     16          6           0        0.529899   -3.552440   -0.954428
     17          6           0        1.171023   -3.836214   -2.299134
     18          6           0        1.315164   -3.430603    0.179955
     19          6           0        0.738495   -3.121113    1.411340
     20          1           0        2.383635   -3.556074    0.117999
     21          6           0       -0.638478   -2.939462    1.491775
     22          6           0       -1.440949   -3.111373    0.368467
     23          1           0       -1.091946   -2.686337    2.440918
     24          6           0       -0.846210   -3.418229   -0.854126
     25          6           0       -2.887190   -2.960002    0.483813
     26          1           0       -1.469250   -3.531190   -1.726203
     27          6           0        1.564333   -2.965907    2.597443
     28          1           0       -3.222039   -2.436397    1.388039
     29          1           0        1.046729   -2.587242    3.493890
     30          6           0        0.613619    2.115977    2.388900
     31          6           0       -0.596176    2.231322    3.197408
     32          6           0        0.824927    2.979178    1.315549
     33          6           0        1.898985    2.794924    0.452486
     34          1           0        0.113329    3.773713    1.156574
     35          6           0        2.795810    1.754831    0.692914
     36          6           0        2.633334    0.923561    1.795099
     37          1           0        3.623139    1.620141    0.013315
     38          6           0        1.530468    1.099461    2.629790
     39          6           0        3.596863   -0.141960    2.053916
     40          1           0        1.409161    0.425052    3.463790
     41          6           0        2.029709    3.657326   -0.711106
     42          1           0        4.253063   -0.380289    1.209650
     43          1           0        1.369259    4.537393   -0.718167
     44          6           0       -2.615332    3.375293    3.770776
     45          6           0       -3.578723    3.921139    2.675771
     46          7           0       -1.349902    3.235246    3.100758
     47          7           0       -3.534551    3.042173    1.551639
     48          1           0       -3.259019    4.942417    2.416955
     49          6           0        2.468653   -1.948244   -2.839884
     50          6           0        0.978214   -1.791833   -3.277235
     51          7           0        2.538575   -3.322005   -2.324969
     52          7           0        0.428190   -3.135467   -3.344791
     53          6           0       -5.402034   -2.321757   -1.564268
     54          6           0       -5.090275   -3.269013   -0.370731
     55          7           0       -4.755860   -1.069177   -1.349710
     56          1           0       -6.480040   -2.150035   -1.602577
     57          7           0       -3.662078   -3.426730   -0.392369
     58          6           0       -5.687592   -4.649711   -0.663180
     59          6           0        1.859881    3.551903   -3.902596
     60          6           0        2.744645    4.246530   -2.825398
     61          7           0        0.634437    3.242741   -3.217675
     62          6           0        2.623864    2.364628   -4.496041
     63          7           0        2.814171    3.409001   -1.669251
     64          1           0        2.298383    5.226491   -2.598039
     65          6           0        3.566532   -2.996657    3.774862
     66          6           0        4.520882   -1.802818    3.494299
     67          7           0        2.792688   -3.252266    2.605741
     68          1           0        2.942231   -2.749331    4.648666
     69          7           0        3.645485   -0.707297    3.178023
     70          1           0       -0.792350    1.369183    3.846684
     71          1           0        0.638695   -3.551154   -4.248684
     72          1           0        1.155401   -4.918528   -2.471867
     73          1           0        3.134752   -3.896062   -2.909574
     74          1           0       -4.596702    3.938996    3.069485
     75          1           0       -5.066002   -2.814854   -2.489464
     76          6           0       -5.699818   -2.687917    0.908794
     77          6           0        1.523656    4.566149   -5.001977
     78          1           0        3.752747    4.381208   -3.222326
     79          1           0        4.168741   -3.882501    3.990561
     80          6           0        5.530308   -2.206086    2.415901
     81          6           0        5.247581   -1.427193    4.790212
     82          1           0        6.158641   -1.359938    2.143333
     83          1           0        5.010313   -2.576208    1.536050
     84          1           0        6.167512   -2.998467    2.799328
     85          6           0       -2.444015    4.439389    4.861036
     86          6           0       -3.202902    2.093414    4.368033
     87          1           0       -1.974312    5.327357    4.445983
     88          1           0       -1.809436    4.054316    5.656433
     89          1           0       -3.410673    4.709171    5.278530
     90          1           0        0.919762    5.371774   -4.592981
     91          1           0        0.957113    4.079091   -5.792762
     92          1           0        2.435295    4.981406   -5.423834
     93          1           0       -6.783472   -2.704162    0.828943
     94          1           0       -5.380788   -1.657961    1.046240
     95          1           0       -5.408027   -3.281251    1.773696
     96          1           0       -4.181123    2.306462    4.790591
     97          1           0       -2.567565    1.705058    5.161691
     98          1           0       -3.314832    1.342893    3.589125
     99          1           0        2.895562    1.669219   -3.705363
    100          1           0        3.532867    2.721915   -4.973019
    101          1           0        2.024559    1.851203   -5.245970
    102          1           0        5.955759   -0.625050    4.595150
    103          1           0        5.785052   -2.284624    5.187147
    104          1           0        4.531021   -1.080287    5.529784
    105          1           0       -6.755413   -4.571855   -0.851257
    106          1           0       -5.525460   -5.307126    0.187918
    107          1           0       -5.201138   -5.085846   -1.531277
    108          1           0        0.876016   -1.277876   -4.232410
    109          1           0        0.428860   -1.242657   -2.507776
    110          6           0        2.820307   -0.963585   -1.723793
    111          1           0        2.664037    0.061674   -2.052037
    112          1           0        3.862073   -1.089333   -1.439334
    113          1           0        2.198562   -1.147567   -0.851606
    114          6           0        3.416370   -1.761432   -4.025484
    115          1           0        3.144946   -2.423691   -4.848044
    116          1           0        4.439023   -1.983016   -3.726045
    117          1           0        3.379225   -0.735419   -4.383700
 ---------------------------------------------------------------------

 SCF Done:  E(RHF) =  -2359.41190681     a.u. after    6 cycles
 SCF Done:  E(RHF) =  -2359.41205507     A.U. after   15 cycles
 E2 =    -0.8374240393D+01 EUMP2 =    -0.23677862954655D+04

 The electronic state is 1-A.
 Alpha  occ. eigenvalues --  -15.55912 -15.55739 -15.55701 -15.55610 -15.55569
 Alpha  occ. eigenvalues --  -15.55555 -15.55401 -15.55301 -15.55260 -15.54369
 Alpha  occ. eigenvalues --  -11.29043 -11.28562 -11.28384 -11.28374 -11.28257
 Alpha  occ. eigenvalues --  -11.28252 -11.28146 -11.28109 -11.27978 -11.26906
 Alpha  occ. eigenvalues --  -11.26745 -11.26465 -11.26387 -11.26009 -11.25471
 Alpha  occ. eigenvalues --  -11.25140 -11.25065 -11.25007 -11.24974 -11.24974
 Alpha  occ. eigenvalues --  -11.24957 -11.24937 -11.24921 -11.24891 -11.24855
 Alpha  occ. eigenvalues --  -11.24828 -11.24825 -11.24750 -11.24711 -11.24666
 Alpha  occ. eigenvalues --  -11.24664 -11.24508 -11.24084 -11.24059 -11.23665
 Alpha  occ. eigenvalues --  -11.23437 -11.23265 -11.21974 -11.21814 -11.21737
 Alpha  occ. eigenvalues --  -11.21644 -11.21417 -11.21401 -11.21278 -11.21137
 Alpha  occ. eigenvalues --  -11.21105 -11.20611  -1.28145  -1.26493  -1.26235
 Alpha  occ. eigenvalues --   -1.26079  -1.26052  -1.23446  -1.23045  -1.22901
 Alpha  occ. eigenvalues --   -1.22737  -1.17449  -1.16610  -1.16227  -1.14954
 Alpha  occ. eigenvalues --   -1.09262  -1.08824  -1.08506  -1.07164  -1.06269
 Alpha  occ. eigenvalues --   -1.05550  -1.04633  -1.03337  -1.02912  -1.02490
 Alpha  occ. eigenvalues --   -1.02073  -0.94515  -0.94454  -0.94291  -0.94161
 Alpha  occ. eigenvalues --   -0.94121  -0.93938  -0.93809  -0.93762  -0.93694
 Alpha  occ. eigenvalues --   -0.91938  -0.89932  -0.89484  -0.88847  -0.88661
 Alpha  occ. eigenvalues --   -0.86952  -0.86225  -0.85426  -0.84556  -0.83428
 Alpha  occ. eigenvalues --   -0.80082  -0.78937  -0.77900  -0.76804  -0.76265
 Alpha  occ. eigenvalues --   -0.75994  -0.75915  -0.73289  -0.72822  -0.72636
 Alpha  occ. eigenvalues --   -0.71615  -0.70688  -0.70245  -0.70154  -0.69028
 Alpha  occ. eigenvalues --   -0.68716  -0.67819  -0.67221  -0.66638  -0.66011
 Alpha  occ. eigenvalues --   -0.65991  -0.65578  -0.65125  -0.64781  -0.64071
 Alpha  occ. eigenvalues --   -0.63518  -0.63120  -0.62967  -0.62648  -0.62435
 Alpha  occ. eigenvalues --   -0.62298  -0.62187  -0.61946  -0.61404  -0.60623
 Alpha  occ. eigenvalues --   -0.60537  -0.60222  -0.59944  -0.59719  -0.59580
 Alpha  occ. eigenvalues --   -0.59240  -0.58931  -0.57231  -0.56058  -0.55766
 Alpha  occ. eigenvalues --   -0.55680  -0.55624  -0.55328  -0.55268  -0.54756
 Alpha  occ. eigenvalues --   -0.54493  -0.54253  -0.54226  -0.54055  -0.53911
 Alpha  occ. eigenvalues --   -0.53757  -0.53586  -0.53418  -0.53251  -0.53199
 Alpha  occ. eigenvalues --   -0.53098  -0.52869  -0.52657  -0.52170  -0.51786
 Alpha  occ. eigenvalues --   -0.51755  -0.51609  -0.51102  -0.50976  -0.50759
 Alpha  occ. eigenvalues --   -0.50290  -0.50063  -0.49583  -0.49354  -0.49216
 Alpha  occ. eigenvalues --   -0.48767  -0.48394  -0.48035  -0.47746  -0.47480
 Alpha  occ. eigenvalues --   -0.46884  -0.46689  -0.45092  -0.45000  -0.44387
 Alpha  occ. eigenvalues --   -0.44212  -0.43691  -0.40893  -0.40548  -0.40346
 Alpha  occ. eigenvalues --   -0.39969  -0.39863  -0.39650  -0.39596  -0.39403
 Alpha  occ. eigenvalues --   -0.39282  -0.39144  -0.39084  -0.39012  -0.37075
 Alpha  occ. eigenvalues --   -0.32731  -0.32726  -0.32241  -0.32037  -0.31613
 Alpha  occ. eigenvalues --   -0.31173
 Alpha virt. eigenvalues --    0.03046   0.03409   0.03570   0.03683   0.04103
 Alpha virt. eigenvalues --    0.04169   0.04229   0.04464   0.04605   0.05158
 Alpha virt. eigenvalues --    0.05180   0.05269   0.05367   0.05386   0.05623

 Mulliken charges:
               1
     1  C    1.691264
     2  C    0.553680
     3  C   -0.263192
     4  C    1.356390
     5  H   -1.092901
     6  C    0.587801
     7  C    1.069476
     8  H   -0.873174
     9  C    0.293359
    10  C    0.673134
    11  H   -1.096973
    12  C    0.934797
    13  H   -0.982452
    14  H   -0.644742
    15  H   -0.745230
    16  C    0.650405
    17  C    0.718961
    18  C    0.386318
    19  C    1.092894
    20  H   -1.092064
    21  C    0.120427
    22  C    0.957654
    23  H   -0.874726
    24  C    0.457416
    25  C    0.822988
    26  H   -1.136248
    27  C    0.599315
    28  H   -0.935515
    29  H   -0.712856
    30  C    1.355290
    31  C    0.209994
    32  C   -0.134654
    33  C    2.138651
    34  H   -1.083252
    35  C   -0.594895
    36  C    1.498646
    37  H   -0.962802
    38  C    0.256373
    39  C    0.594996
    40  H   -0.998519
    41  C    0.631121
    42  H   -0.879628
    43  H   -0.686450
    44  C   -3.401466
    45  C    1.194920
    46  N    0.080963
    47  N   -0.568896
    48  H   -0.141291
    49  C   -0.323968
    50  C    2.167480
    51  N   -0.729607
    52  N   -0.761759
    53  C    1.296498
    54  C   -3.716004
    55  N   -0.664283
    56  H   -0.282950
    57  N   -0.169829
    58  C    1.652960
    59  C   -3.663523
    60  C    1.189763
    61  N   -0.083453
    62  C    1.887309
    63  N   -0.635175
    64  H   -0.132246
    65  C    1.312955
    66  C   -3.643116
    67  N   -0.534483
    68  H   -0.173841
    69  N   -0.131109
    70  H   -0.933313
    71  H    0.022574
    72  H   -0.179274
    73  H    0.003129
    74  H   -0.296334
    75  H   -0.138728
    76  C    1.572820
    77  C    1.833681
    78  H   -0.274613
    79  H   -0.282601
    80  C    1.608725
    81  C    1.776784
    82  H    0.029335
    83  H    0.027067
    84  H   -0.153184
    85  C    1.579020
    86  C    1.630608
    87  H   -0.057872
    88  H   -0.052145
    89  H    0.001315
    90  H   -0.051719
    91  H   -0.039514
    92  H    0.007821
    93  H   -0.147752
    94  H    0.028402
    95  H    0.076851
    96  H   -0.180005
    97  H    0.037258
    98  H    0.038630
    99  H   -0.090915
   100  H   -0.160056
   101  H   -0.048142
   102  H   -0.041606
   103  H   -0.019462
   104  H   -0.049478
   105  H   -0.028561
   106  H   -0.047316
   107  H   -0.056038
   108  H   -0.412311
   109  H   -1.106098
   110  C    0.296073
   111  H   -1.010470
   112  H   -0.211968
   113  H   -0.286354
   114  C    1.261204
   115  H   -0.015054
   116  H   -0.038482
   117  H   -0.308855
 Sum of Mulliken charges =   0.00000

 Dipole moment (field-independent basis, Debye):
    X=              2.3063    Y=             -0.3788    Z=             -2.6061  Tot=              3.5007
 Quadrupole moment (field-independent basis, Debye-Ang):
   XX=           -350.4468   YY=           -347.0241   ZZ=           -312.5151
   XY=             -2.8394   XZ=            -20.4389   YZ=              5.6590

 Normal termination of Gaussian 16 at Wed Nov 10 03:45:50 2021.
