 Gaussian 16, Revision C.01,
 Gaussian 16:  ES64L-G16RevC.01  3-Jul-2019

 ----------------------------------------------------------------------
 #P PBE1PBE/Def2TZVP SP SCF=(YQC,MaxCycle=900) int=(Grid=Superfinegrid)
  EmpiricalDispersion=GD3 SCRF=(PCM,Solvent=Dichloromethane)
 ----------------------------------------------------------------------

 -------------------------
 _3_alde1_5_ami1_2_opt_dcm
 -------------------------
 Symbolic Z-matrix:
 Charge =  0 Multiplicity = 1

                         Standard orientation:
 ---------------------------------------------------------------------
 Center     Atomic      Atomic             Coordinates (Angstroms)
 Number     Number       Type             X           Y           Z
 ---------------------------------------------------------------------
      1          6           0        1.439018   -3.011577    0.131277
      2          6           0        0.799034   -3.634888   -1.016272
      3          6           0        0.728471   -2.721118    1.294628
      4          6           0        1.340480   -2.053065    2.349526
      5          1           0       -0.304833   -3.026747    1.357305
      6          6           0        2.659904   -1.619325    2.213426
      7          6           0        3.378927   -1.897050    1.057319
      8          1           0        3.106087   -1.070641    3.028824
      9          6           0        2.769995   -2.623871    0.035712
     10          6           0        4.722662   -1.368538    0.863962
     11          1           0        3.350571   -2.846583   -0.845535
     12          6           0        0.603051   -1.813625    3.581369
     13          1           0        5.021187   -0.561918    1.551980
     14          1           0        1.472826   -3.890391   -1.848134
     15          1           0       -0.448461   -2.139033    3.576951
     16          6           0       -3.333893    0.821095    1.192592
     17          6           0       -4.476643   -0.054816    0.969680
     18          6           0       -3.076775    1.869536    0.308943
     19          6           0       -2.006669    2.730201    0.518242
     20          1           0       -3.741258    2.007664   -0.530956
     21          6           0       -1.163866    2.516955    1.608615
     22          6           0       -1.408596    1.478533    2.499628
     23          1           0       -0.331265    3.188429    1.752093
     24          6           0       -2.500812    0.636697    2.289559
     25          6           0       -0.544062    1.293204    3.657461
     26          1           0       -2.682190   -0.156853    2.998510
     27          6           0       -1.796209    3.853514   -0.383640
     28          1           0        0.421088    1.822140    3.624256
     29          1           0       -4.625361   -0.859462    1.707892
     30          1           0       -2.410517    3.851722   -1.297470
     31          6           0        0.716911   -0.047311   -2.522033
     32          6           0       -0.458236   -0.906588   -2.611543
     33          6           0        1.989815   -0.605777   -2.632102
     34          6           0        3.127245    0.155025   -2.388452
     35          1           0        2.065391   -1.653816   -2.875060
     36          6           0        2.986399    1.507030   -2.081519
     37          6           0        1.727864    2.095497   -2.042655
     38          1           0        3.876419    2.085976   -1.886748
     39          6           0        0.593508    1.308837   -2.241662
     40          6           0        1.608335    3.522524   -1.772994
     41          1           0       -0.377120    1.775233   -2.165711
     42          6           0        4.432927   -0.486708   -2.378106
     43          1           0        2.479989    3.989674   -1.286615
     44          1           0        4.449350   -1.529177   -2.729656
     45          6           0       -1.519714   -2.952064   -3.030810
     46          6           0       -1.002011   -4.245983   -2.339931
     47          7           0       -0.391545   -2.070989   -3.087226
     48          1           0       -2.320293   -2.522762   -2.407676
     49          6           0       -2.085808   -3.185668   -4.446045
     50          7           0       -0.447038   -3.813625   -1.089913
     51          1           0       -0.215589   -4.665445   -2.990643
     52          6           0       -2.071573   -5.321223   -2.090060
     53          1           0       -2.848780   -3.967017   -4.375535
     54          6           0       -1.007422   -3.625256   -5.432421
     55          6           0       -2.765920   -1.906559   -4.933452
     56          1           0       -2.486187   -5.626668   -3.055990
     57          6           0       -3.198470   -4.809702   -1.198728
     58          6           0       -1.403498   -6.539081   -1.450695
     59          1           0       -2.039787   -1.100133   -5.014995
     60          1           0       -3.551902   -1.603654   -4.243808
     61          1           0       -3.208888   -2.069629   -5.913404
     62          1           0       -0.611128   -4.603507   -5.172836
     63          1           0       -0.191696   -2.907175   -5.431547
     64          1           0       -1.424042   -3.683987   -6.435592
     65          1           0       -2.128456   -7.336548   -1.303605
     66          1           0       -0.982187   -6.267209   -0.485496
     67          1           0       -0.601694   -6.915926   -2.082595
     68          1           0       -3.847945   -5.632791   -0.907855
     69          1           0       -3.798577   -4.071879   -1.722745
     70          1           0       -2.778092   -4.358547   -0.303908
     71          6           0       -6.245386   -1.360811   -1.662803
     72          6           0       -6.372503   -0.730425   -0.237193
     73          7           0       -4.899207   -1.236749   -2.208457
     74          1           0       -6.905182   -0.823712   -2.352295
     75          6           0       -6.639976   -2.848577   -1.673022
     76          7           0       -5.242896    0.116792   -0.015268
     77          1           0       -6.400084   -1.547136    0.509149
     78          6           0       -7.652010    0.123532   -0.080507
     79          1           0       -5.963525   -3.378750   -0.991649
     80          6           0       -6.461436   -3.420459   -3.079238
     81          6           0       -8.076009   -3.082973   -1.211530
     82          1           0       -8.484594   -0.442815   -0.507564
     83          6           0       -7.532310    1.454152   -0.819787
     84          6           0       -7.939451    0.370979    1.399102
     85          1           0       -8.771487   -2.532395   -1.841533
     86          1           0       -8.224358   -2.778363   -0.179028
     87          1           0       -8.315488   -4.141656   -1.287348
     88          1           0       -7.178301   -2.967310   -3.759999
     89          1           0       -6.622002   -4.496110   -3.072236
     90          1           0       -5.462486   -3.212648   -3.449292
     91          1           0       -8.837910    0.973107    1.513544
     92          1           0       -7.109572    0.901891    1.862407
     93          1           0       -8.087619   -0.568468    1.928579
     94          1           0       -8.472858    1.997417   -0.761467
     95          1           0       -7.288916    1.299080   -1.867483
     96          1           0       -6.749104    2.060642   -0.372592
     97          6           0        0.370122   -1.071490    5.779525
     98          6           0       -0.025752    0.429264    5.764136
     99          7           0        1.144205   -1.295928    4.595320
    100          1           0       -0.568445   -1.651824    5.754497
    101          6           0        1.200462   -1.504146    7.001215
    102          7           0       -0.900004    0.595034    4.643808
    103          1           0        0.899300    1.019739    5.638828
    104          6           0       -0.752545    0.904924    7.037657
    105          1           0        0.608073   -1.323870    7.903434
    106          6           0        2.515159   -0.735886    7.095356
    107          6           0        1.475657   -3.005073    6.905076
    108          1           0       -0.086130    0.742908    7.890172
    109          6           0       -2.058758    0.150038    7.265145
    110          6           0       -1.025192    2.405450    6.928996
    111          1           0        0.544726   -3.564743    6.838606
    112          1           0        2.020552   -3.347130    7.782022
    113          1           0        2.069945   -3.218351    6.019455
    114          1           0        3.049303   -0.814665    6.152924
    115          1           0        3.134607   -1.151475    7.887220
    116          1           0        2.342881    0.314742    7.314179
    117          1           0       -1.704385    2.605868    6.103318
    118          1           0       -0.101561    2.954766    6.757208
    119          1           0       -1.477368    2.773445    7.847211
    120          1           0       -2.675591    0.211288    6.372974
    121          1           0       -2.601776    0.589014    8.099312
    122          1           0       -1.873982   -0.896468    7.492913
    123          6           0        6.724128   -1.135810   -0.321200
    124          6           0        6.673316   -0.676567   -1.806647
    125          7           0        5.468418   -1.774892   -0.066447
    126          1           0        6.843726   -0.240545    0.312587
    127          6           0        7.880622   -2.109321   -0.014955
    128          7           0        5.468128    0.089244   -1.945015
    129          1           0        6.624460   -1.589726   -2.423435
    130          6           0        7.877366    0.168933   -2.253509
    131          1           0        8.815637   -1.623542   -0.311242
    132          6           0        7.739247   -3.430355   -0.766078
    133          6           0        7.936127   -2.367611    1.490921
    134          1           0        8.786613   -0.425372   -2.116601
    135          6           0        7.996273    1.465040   -1.456679
    136          6           0        7.729901    0.481441   -3.742983
    137          1           0        7.025597   -2.862055    1.823013
    138          1           0        8.043384   -1.434328    2.040397
    139          1           0        8.783037   -3.005836    1.732380
    140          1           0        8.495094   -4.134134   -0.424325
    141          1           0        7.867487   -3.291351   -1.836225
    142          1           0        6.755438   -3.853746   -0.582522
    143          1           0        8.589348    1.043615   -4.100810
    144          1           0        6.831768    1.071602   -3.909935
    145          1           0        7.652714   -0.435405   -4.324128
    146          1           0        8.295260    1.270952   -0.429813
    147          1           0        7.038656    1.977608   -1.453266
    148          1           0        8.743007    2.114064   -1.908919
    149          6           0       -0.808129    5.847125   -1.057092
    150          6           0        0.515504    5.580461   -1.822228
    151          7           0       -0.988116    4.782273   -0.116890
    152          1           0       -1.622867    5.850220   -1.801581
    153          6           0       -0.808935    7.194597   -0.310406
    154          7           0        0.584156    4.177902   -2.097511
    155          1           0        1.357565    5.898197   -1.183219
    156          6           0        0.592800    6.364497   -3.151720
    157          1           0       -0.444358    7.966928   -0.996336
    158          6           0        0.086299    7.165020    0.925492
    159          6           0       -2.240684    7.542659    0.095227
    160          1           0        0.275465    7.393715   -2.952807
    161          6           0       -0.311267    5.766096   -4.226426
    162          6           0        2.038276    6.391823   -3.645663
    163          1           0       -2.885124    7.613319   -0.778838
    164          1           0       -2.266725    8.495870    0.618148
    165          1           0       -2.636376    6.773969    0.755836
    166          1           0       -0.239579    6.373967    1.594336
    167          1           0        0.030528    8.117689    1.447428
    168          1           0        1.123826    6.984320    0.657899
    169          1           0        2.690477    6.863387   -2.913078
    170          1           0        2.108260    6.950959   -4.575932
    171          1           0        2.393492    5.379004   -3.826461
    172          1           0       -1.353646    5.784525   -3.920727
    173          1           0       -0.028886    4.734118   -4.416837
    174          1           0       -0.217180    6.335458   -5.148535
    175          1           0       -4.240972   -1.690289   -1.579460
    176          1           0       -4.646496   -0.253842   -2.234969
    177          1           0       -1.386352   -0.488402   -2.189999
 ---------------------------------------------------------------------

 SCF Done:  E(RPBE1PBE) =  -3158.29827537     a.u. after    7 cycles
 SCF Done:  E(RPBE1PBE) =  -3158.29829225     A.U. after    9 cycles

 The electronic state is 1-A.
 Alpha  occ. eigenvalues --  -14.37691 -14.37673 -14.37653 -14.37634 -14.37569
 Alpha  occ. eigenvalues --  -14.37470 -14.37386 -14.37366 -14.37354 -14.35352
 Alpha  occ. eigenvalues --  -10.26685 -10.26662 -10.26644 -10.26615 -10.26543
 Alpha  occ. eigenvalues --  -10.26470 -10.26391 -10.26352 -10.26325 -10.25104
 Alpha  occ. eigenvalues --  -10.25059 -10.25051 -10.24942 -10.24906 -10.24834
 Alpha  occ. eigenvalues --  -10.24812 -10.24757 -10.24553 -10.24434 -10.24417
 Alpha  occ. eigenvalues --  -10.24414 -10.24351 -10.24345 -10.24342 -10.24335
 Alpha  occ. eigenvalues --  -10.24326 -10.24281 -10.24246 -10.23942 -10.23898
 Alpha  occ. eigenvalues --  -10.23887 -10.23882 -10.23866 -10.23824 -10.23823
 Alpha  occ. eigenvalues --  -10.23800 -10.23784 -10.22665 -10.22655 -10.22534
 Alpha  occ. eigenvalues --  -10.22367 -10.22349 -10.22345 -10.22330 -10.22316
 Alpha  occ. eigenvalues --  -10.22291 -10.22147 -10.20351 -10.20327 -10.20282
 Alpha  occ. eigenvalues --  -10.20203 -10.20193 -10.20174 -10.20108 -10.20098
 Alpha  occ. eigenvalues --  -10.20098 -10.20027 -10.19977 -10.19958 -10.19958
 Alpha  occ. eigenvalues --  -10.19912 -10.19872 -10.19867 -10.19840 -10.19780
 Alpha  occ. eigenvalues --  -10.19515 -10.19356  -0.98023  -0.97895  -0.97846
 Alpha  occ. eigenvalues --   -0.97828  -0.97017  -0.95236  -0.95186  -0.94872
 Alpha  occ. eigenvalues --   -0.94730  -0.91218  -0.90479  -0.89792  -0.89754
 Alpha  occ. eigenvalues --   -0.84830  -0.84724  -0.84605  -0.83733  -0.83111
 Alpha  occ. eigenvalues --   -0.82347  -0.82267  -0.81864  -0.81574  -0.81118
 Alpha  occ. eigenvalues --   -0.80044  -0.80003  -0.79946  -0.79668  -0.79484
 Alpha  occ. eigenvalues --   -0.79465  -0.74936  -0.74319  -0.74233  -0.73979
 Alpha  occ. eigenvalues --   -0.73072  -0.70420  -0.70380  -0.70376  -0.70338
 Alpha  occ. eigenvalues --   -0.70228  -0.70077  -0.70073  -0.70039  -0.69861
 Alpha  occ. eigenvalues --   -0.69828  -0.69256  -0.69208  -0.69192  -0.68950
 Alpha  occ. eigenvalues --   -0.67469  -0.66769  -0.66393  -0.66188  -0.64684
 Alpha  occ. eigenvalues --   -0.63877  -0.63847  -0.63552  -0.62499  -0.62231
 Alpha  occ. eigenvalues --   -0.60007  -0.59756  -0.59730  -0.58990  -0.58391
 Alpha  occ. eigenvalues --   -0.58137  -0.57806  -0.57742  -0.57027  -0.56595
 Alpha  occ. eigenvalues --   -0.55857  -0.55664  -0.55441  -0.55247  -0.54871
 Alpha  occ. eigenvalues --   -0.54538  -0.53650  -0.53616  -0.53423  -0.52046
 Alpha  occ. eigenvalues --   -0.51907  -0.51818  -0.50878  -0.50734  -0.50582
 Alpha  occ. eigenvalues --   -0.50271  -0.50215  -0.49981  -0.49834  -0.49583
 Alpha  occ. eigenvalues --   -0.49468  -0.49183  -0.48769  -0.48529  -0.48448
 Alpha  occ. eigenvalues --   -0.48369  -0.48183  -0.47014  -0.46875  -0.46845
 Alpha  occ. eigenvalues --   -0.46735  -0.46481  -0.46302  -0.46196  -0.45395
 Alpha  occ. eigenvalues --   -0.45225  -0.44990  -0.44884  -0.44786  -0.44654
 Alpha  occ. eigenvalues --   -0.44550  -0.44352  -0.44062  -0.43903  -0.43565
 Alpha  occ. eigenvalues --   -0.43426  -0.43378  -0.43307  -0.43124  -0.43084
 Alpha  occ. eigenvalues --   -0.43044  -0.42839  -0.42720  -0.42374  -0.42274
 Alpha  occ. eigenvalues --   -0.42174  -0.42039  -0.41970  -0.41748  -0.40423
 Alpha  occ. eigenvalues --   -0.40352  -0.40235  -0.40129  -0.40039  -0.39969
 Alpha  occ. eigenvalues --   -0.39931  -0.39770  -0.39576  -0.39433  -0.39187
 Alpha  occ. eigenvalues --   -0.39094  -0.39049  -0.39013  -0.38945  -0.38852
 Alpha  occ. eigenvalues --   -0.38792  -0.38738  -0.38704  -0.38380  -0.38179
 Alpha  occ. eigenvalues --   -0.38114  -0.38032  -0.37924  -0.37837  -0.37718
 Alpha  occ. eigenvalues --   -0.37541  -0.36790  -0.36725  -0.36534  -0.36428
 Alpha  occ. eigenvalues --   -0.36249  -0.35776  -0.35592  -0.35269  -0.34991
 Alpha  occ. eigenvalues --   -0.34977  -0.34843  -0.34793  -0.34747  -0.34681
 Alpha  occ. eigenvalues --   -0.34648  -0.34627  -0.34474  -0.34407  -0.34316
 Alpha  occ. eigenvalues --   -0.34144  -0.34070  -0.33960  -0.33864  -0.33715
 Alpha  occ. eigenvalues --   -0.33603  -0.33473  -0.33166  -0.33070  -0.32905
 Alpha  occ. eigenvalues --   -0.32842  -0.32575  -0.32484  -0.32438  -0.32275
 Alpha  occ. eigenvalues --   -0.32206  -0.31858  -0.30161  -0.30005  -0.29320
 Alpha  occ. eigenvalues --   -0.27450  -0.27304  -0.27118  -0.26938  -0.26893
 Alpha  occ. eigenvalues --   -0.26708  -0.26625  -0.26605  -0.26452  -0.26125
 Alpha  occ. eigenvalues --   -0.25769  -0.25684  -0.25669  -0.25458  -0.25257
 Alpha  occ. eigenvalues --   -0.24688
 Alpha virt. eigenvalues --   -0.06490  -0.06298  -0.06036  -0.05798  -0.05585
 Alpha virt. eigenvalues --   -0.05188  -0.02399  -0.02015  -0.01304   0.03027
 Alpha virt. eigenvalues --    0.04023   0.04111   0.04233   0.04437   0.04551

 Mulliken charges:
               1
     1  C    0.367017
     2  C   -0.196416
     3  C   -0.374582
     4  C    0.379813
     5  H    0.140367
     6  C   -0.375731
     7  C    0.331915
     8  H    0.141585
     9  C   -0.289878
    10  C   -0.181765
    11  H    0.143993
    12  C   -0.187762
    13  H    0.090277
    14  H    0.098204
    15  H    0.087881
    16  C    0.394401
    17  C   -0.235024
    18  C   -0.350950
    19  C    0.353689
    20  H    0.145224
    21  C   -0.363273
    22  C    0.378199
    23  H    0.134889
    24  C   -0.361529
    25  C   -0.185152
    26  H    0.133853
    27  C   -0.170146
    28  H    0.091285
    29  H    0.090852
    30  H    0.084189
    31  C    0.351474
    32  C   -0.187648
    33  C   -0.295759
    34  C    0.367447
    35  H    0.138913
    36  C   -0.374386
    37  C    0.370267
    38  H    0.145016
    39  C   -0.387923
    40  C   -0.171220
    41  H    0.138891
    42  C   -0.192108
    43  H    0.098728
    44  H    0.099678
    45  C    0.116675
    46  C    0.140034
    47  N   -0.268991
    48  H    0.037605
    49  C   -0.021073
    50  N   -0.268763
    51  H    0.086256
    52  C    0.013285
    53  H    0.088680
    54  C   -0.412141
    55  C   -0.410449
    56  H    0.088742
    57  C   -0.442824
    58  C   -0.404630
    59  H    0.119207
    60  H    0.144512
    61  H    0.119107
    62  H    0.124957
    63  H    0.129368
    64  H    0.125197
    65  H    0.128323
    66  H    0.126122
    67  H    0.121639
    68  H    0.125215
    69  H    0.101297
    70  H    0.133146
    71  C   -0.031938
    72  C    0.151484
    73  N   -0.502973
    74  H    0.084370
    75  C   -0.073176
    76  N   -0.260221
    77  H    0.070693
    78  C   -0.041440
    79  H    0.097456
    80  C   -0.377954
    81  C   -0.405429
    82  H    0.094990
    83  C   -0.396705
    84  C   -0.399523
    85  H    0.126441
    86  H    0.135462
    87  H    0.131962
    88  H    0.112844
    89  H    0.119768
    90  H    0.149109
    91  H    0.127746
    92  H    0.126427
    93  H    0.123128
    94  H    0.125563
    95  H    0.120636
    96  H    0.128388
    97  C    0.080895
    98  C    0.100976
    99  N   -0.246686
   100  H    0.092400
   101  C   -0.007579
   102  N   -0.251240
   103  H    0.089962
   104  C   -0.023080
   105  H    0.092162
   106  C   -0.424901
   107  C   -0.403499
   108  H    0.093157
   109  C   -0.423294
   110  C   -0.397211
   111  H    0.120334
   112  H    0.128926
   113  H    0.129065
   114  H    0.133280
   115  H    0.125051
   116  H    0.128096
   117  H    0.127440
   118  H    0.120796
   119  H    0.129954
   120  H    0.131725
   121  H    0.126230
   122  H    0.128843
   123  C    0.088721
   124  C    0.097186
   125  N   -0.258569
   126  H    0.091372
   127  C   -0.022862
   128  N   -0.263424
   129  H    0.087470
   130  C    0.004142
   131  H    0.087925
   132  C   -0.422336
   133  C   -0.397291
   134  H    0.086273
   135  C   -0.429435
   136  C   -0.405532
   137  H    0.126101
   138  H    0.121338
   139  H    0.130764
   140  H    0.125884
   141  H    0.127164
   142  H    0.131140
   143  H    0.128697
   144  H    0.127081
   145  H    0.120595
   146  H    0.127175
   147  H    0.132705
   148  H    0.124570
   149  C    0.140877
   150  C    0.095568
   151  N   -0.250784
   152  H    0.058918
   153  C    0.003687
   154  N   -0.257246
   155  H    0.061393
   156  C   -0.012745
   157  H    0.072201
   158  C   -0.410161
   159  C   -0.398134
   160  H    0.076247
   161  C   -0.408893
   162  C   -0.399976
   163  H    0.122555
   164  H    0.127611
   165  H    0.124723
   166  H    0.130990
   167  H    0.123178
   168  H    0.118889
   169  H    0.124368
   170  H    0.129270
   171  H    0.127291
   172  H    0.119500
   173  H    0.130919
   174  H    0.124874
   175  H    0.218131
   176  H    0.236060
   177  H    0.107641
 Sum of Mulliken charges =   0.00000

 Dipole moment (field-independent basis, Debye):
    X=             -0.2257    Y=              0.7865    Z=              1.6437  Tot=              1.8361
 Quadrupole moment (field-independent basis, Debye-Ang):
   XX=           -450.2697   YY=           -464.7030   ZZ=           -477.8530
   XY=              7.7504   XZ=             -1.3254   YZ=             -2.9122

 Normal termination of Gaussian 16 at Mon Oct 18 03:39:39 2021.
