 Gaussian 16, Revision C.01,
 Gaussian 16:  ES64L-G16RevC.01  3-Jul-2019

 ----------------------------------------------------------------------
 #P PBE1PBE/Def2TZVP SP SCF=(YQC,MaxCycle=900) int=(Grid=Superfinegrid)
  EmpiricalDispersion=GD3 SCRF=(PCM,Solvent=Dichloromethane)
 ----------------------------------------------------------------------

 -------------------------
 _3_alde1_5_ami4_1_opt_dcm
 -------------------------
 Symbolic Z-matrix:
 Charge =  0 Multiplicity = 1

                         Standard orientation:
 ---------------------------------------------------------------------
 Center     Atomic      Atomic             Coordinates (Angstroms)
 Number     Number       Type             X           Y           Z
 ---------------------------------------------------------------------
      1          6           0       -3.628169    0.731694    0.920461
      2          6           0       -4.725921   -0.205862    0.741725
      3          6           0       -3.464524    1.828222    0.074437
      4          6           0       -2.372433    2.674959    0.223261
      5          1           0       -4.206531    2.003528   -0.689418
      6          6           0       -1.406112    2.386315    1.185809
      7          6           0       -1.537809    1.276481    2.011883
      8          1           0       -0.545865    3.032935    1.258690
      9          6           0       -2.671719    0.474360    1.896263
     10          6           0       -0.455950    0.895617    2.907566
     11          1           0       -2.767891   -0.372786    2.557233
     12          6           0       -2.179996    3.812769   -0.668722
     13          1           0        0.502416    1.407481    2.730081
     14          1           0       -4.812195   -0.980260    1.518384
     15          1           0       -2.681365    3.746678   -1.646756
     16          6           0        2.946338    0.853174    0.426078
     17          6           0        3.490341    0.158061    1.646917
     18          6           0        2.951591    0.198253   -0.794403
     19          6           0        2.443572    0.814754   -1.937577
     20          1           0        3.327773   -0.809291   -0.862952
     21          6           0        1.940648    2.106951   -1.849319
     22          6           0        1.964971    2.790687   -0.636838
     23          1           0        1.535068    2.610435   -2.713416
     24          6           0        2.464189    2.151316    0.497601
     25          6           0        1.438646    4.141915   -0.531796
     26          1           0        2.480031    2.676669    1.443123
     27          6           0        2.396802    0.093304   -3.201474
     28          1           0        1.467732    4.584977    0.476384
     29          1           0        1.695591    0.491651   -3.951958
     30          6           0       -2.083128   -2.667242   -1.001532
     31          6           0       -3.424032   -2.499710   -1.546166
     32          6           0       -1.880275   -2.636960    0.377096
     33          6           0       -0.595545   -2.662179    0.911087
     34          1           0       -2.745761   -2.561011    1.016347
     35          6           0        0.496969   -2.781436    0.052571
     36          6           0        0.304935   -2.868178   -1.322896
     37          1           0        1.492635   -2.798663    0.467169
     38          6           0       -0.985180   -2.784477   -1.846204
     39          6           0        1.457540   -3.018387   -2.198099
     40          1           0       -1.106742   -2.822451   -2.918094
     41          6           0       -0.438404   -2.516385    2.349137
     42          1           0        2.428015   -3.086756   -1.687373
     43          1           0       -1.367535   -2.607625    2.928929
     44          6           0       -5.741986   -2.300139   -1.370336
     45          6           0       -6.406136   -1.266191   -0.433102
     46          7           0       -4.457852   -2.620411   -0.834835
     47          1           0       -5.682913   -1.895273   -2.392893
     48          7           0       -5.495215   -0.176891   -0.258912
     49          1           0       -6.644072   -1.764225    0.518892
     50          6           0        5.326380   -0.833366    2.580294
     51          6           0        4.336393   -1.966783    2.235696
     52          7           0        4.938429    0.280334    1.728406
     53          1           0        6.368761   -1.104756    2.424646
     54          7           0        3.209942   -1.280668    1.610588
     55          1           0        4.047104   -2.540185    3.120491
     56          6           0       -1.178644    5.835259   -1.270369
     57          6           0        0.350776    6.039163   -1.289522
     58          7           0       -1.464912    4.794320   -0.336245
     59          1           0       -1.543398    5.604503   -2.283499
     60          7           0        0.966961    4.769735   -1.520127
     61          1           0        0.656487    6.480629   -0.327940
     62          6           0        0.542045   -0.458994    4.522715
     63          6           0        0.648540   -1.986839    4.320516
     64          7           0       -0.589938    0.001633    3.786496
     65          1           0        1.478683    0.029418    4.207709
     66          7           0        0.664269   -2.263769    2.914145
     67          1           0       -0.207150   -2.460981    4.822062
     68          6           0        2.940669   -1.672171   -4.622153
     69          6           0        2.553846   -3.114878   -4.233122
     70          7           0        3.106440   -0.925688   -3.417965
     71          1           0        2.169925   -1.245858   -5.284512
     72          7           0        1.353603   -3.070358   -3.455824
     73          1           0        3.393681   -3.555914   -3.676137
     74          1           0       -3.471376   -2.227814   -2.612024
     75          1           0        2.319209   -1.511821    2.044885
     76          1           0        3.079219    0.638182    2.556806
     77          1           0        5.324579    0.149182    0.796788
     78          1           0       -6.355936   -3.205433   -1.374608
     79          1           0       -7.320269   -0.893687   -0.899449
     80          1           0        5.194396   -0.519022    3.620712
     81          1           0        4.778804   -2.658683    1.507832
     82          1           0       -1.647377    6.759940   -0.920596
     83          1           0        0.613237    6.712491   -2.108464
     84          1           0        0.374660   -0.263745    5.585676
     85          1           0        1.581847   -2.344336    4.761344
     86          1           0        3.898434   -1.702348   -5.149195
     87          1           0        2.360628   -3.691912   -5.139864
 ---------------------------------------------------------------------

 SCF Done:  E(RPBE1PBE) =  -1979.88809121     a.u. after    7 cycles
 SCF Done:  E(RPBE1PBE) =  -1979.88809524     A.U. after    8 cycles

 The electronic state is 1-A.
 Alpha  occ. eigenvalues --  -14.38473 -14.38370 -14.38218 -14.38179 -14.37888
 Alpha  occ. eigenvalues --  -14.37851 -14.37733 -14.37670 -14.37318 -14.35134
 Alpha  occ. eigenvalues --  -10.27568 -10.27218 -10.27168 -10.26989 -10.26905
 Alpha  occ. eigenvalues --  -10.26679 -10.26662 -10.26523 -10.26516 -10.25468
 Alpha  occ. eigenvalues --  -10.25244 -10.25163 -10.25055 -10.24974 -10.24854
 Alpha  occ. eigenvalues --  -10.24736 -10.24723 -10.24657 -10.24619 -10.24598
 Alpha  occ. eigenvalues --  -10.24590 -10.24571 -10.24454 -10.24194 -10.24154
 Alpha  occ. eigenvalues --  -10.24142 -10.24136 -10.24113 -10.24045 -10.24042
 Alpha  occ. eigenvalues --  -10.24003 -10.23989 -10.23744 -10.23672 -10.23479
 Alpha  occ. eigenvalues --  -10.23374 -10.22938  -0.98768  -0.98141  -0.97794
 Alpha  occ. eigenvalues --   -0.97645  -0.97570  -0.95594  -0.95135  -0.95089
 Alpha  occ. eigenvalues --   -0.94854  -0.90553  -0.89916  -0.89669  -0.86941
 Alpha  occ. eigenvalues --   -0.82686  -0.82291  -0.82146  -0.81002  -0.80729
 Alpha  occ. eigenvalues --   -0.80382  -0.78016  -0.76539  -0.76091  -0.76054
 Alpha  occ. eigenvalues --   -0.74312  -0.70096  -0.69904  -0.69807  -0.69606
 Alpha  occ. eigenvalues --   -0.66976  -0.66611  -0.66124  -0.65162  -0.63805
 Alpha  occ. eigenvalues --   -0.63168  -0.62749  -0.62299  -0.61144  -0.60782
 Alpha  occ. eigenvalues --   -0.58820  -0.56965  -0.56899  -0.56214  -0.56121
 Alpha  occ. eigenvalues --   -0.55849  -0.54379  -0.54152  -0.53819  -0.52835
 Alpha  occ. eigenvalues --   -0.52681  -0.52085  -0.51554  -0.51007  -0.50844
 Alpha  occ. eigenvalues --   -0.50632  -0.50431  -0.49867  -0.49536  -0.49372
 Alpha  occ. eigenvalues --   -0.49018  -0.48198  -0.47258  -0.47061  -0.46864
 Alpha  occ. eigenvalues --   -0.46652  -0.46538  -0.46438  -0.45839  -0.45323
 Alpha  occ. eigenvalues --   -0.45136  -0.44970  -0.44345  -0.44073  -0.43831
 Alpha  occ. eigenvalues --   -0.43574  -0.42192  -0.41974  -0.41784  -0.41089
 Alpha  occ. eigenvalues --   -0.40941  -0.40736  -0.40245  -0.40187  -0.39864
 Alpha  occ. eigenvalues --   -0.39573  -0.39313  -0.39098  -0.38972  -0.38397
 Alpha  occ. eigenvalues --   -0.37228  -0.37178  -0.36763  -0.36622  -0.36444
 Alpha  occ. eigenvalues --   -0.35821  -0.35639  -0.35441  -0.35264  -0.35217
 Alpha  occ. eigenvalues --   -0.34995  -0.34854  -0.32094  -0.31295  -0.30793
 Alpha  occ. eigenvalues --   -0.28361  -0.27746  -0.27708  -0.27623  -0.27532
 Alpha  occ. eigenvalues --   -0.27307  -0.27262  -0.27124  -0.26504  -0.26392
 Alpha  occ. eigenvalues --   -0.26217  -0.26052  -0.25992  -0.25785  -0.25341
 Alpha  occ. eigenvalues --   -0.22816
 Alpha virt. eigenvalues --   -0.06812  -0.06593  -0.05962  -0.05652  -0.05590
 Alpha virt. eigenvalues --   -0.04417  -0.02822  -0.01646   0.01684   0.03978
 Alpha virt. eigenvalues --    0.04506   0.04693   0.05025   0.05191   0.05472

 Mulliken charges:
               1
     1  C    0.380848
     2  C   -0.171741
     3  C   -0.389822
     4  C    0.349339
     5  H    0.124414
     6  C   -0.317435
     7  C    0.297256
     8  H    0.127517
     9  C   -0.309223
    10  C   -0.120146
    11  H    0.138046
    12  C   -0.150528
    13  H    0.073646
    14  H    0.095990
    15  H    0.092754
    16  C    0.364501
    17  C   -0.085976
    18  C   -0.340581
    19  C    0.367619
    20  H    0.131731
    21  C   -0.380965
    22  C    0.374454
    23  H    0.117805
    24  C   -0.441124
    25  C   -0.174139
    26  H    0.140561
    27  C   -0.172193
    28  H    0.086963
    29  H    0.086378
    30  C    0.323842
    31  C   -0.151596
    32  C   -0.299544
    33  C    0.355321
    34  H    0.135613
    35  C   -0.329486
    36  C    0.351804
    37  H    0.150724
    38  C   -0.376824
    39  C   -0.176118
    40  H    0.123237
    41  C   -0.147417
    42  H    0.096868
    43  H    0.111697
    44  C   -0.094094
    45  C   -0.071947
    46  N   -0.202732
    47  H    0.086201
    48  N   -0.202180
    49  H    0.091405
    50  C   -0.116159
    51  C   -0.133703
    52  N   -0.316461
    53  H    0.136999
    54  N   -0.309138
    55  H    0.105339
    56  C   -0.088311
    57  C   -0.067782
    58  N   -0.207663
    59  H    0.086230
    60  N   -0.193565
    61  H    0.085625
    62  C   -0.112685
    63  C   -0.047319
    64  N   -0.199218
    65  H    0.086148
    66  N   -0.264707
    67  H    0.102419
    68  C   -0.086133
    69  C   -0.072085
    70  N   -0.200170
    71  H    0.082446
    72  N   -0.199499
    73  H    0.090127
    74  H    0.089720
    75  H    0.208755
    76  H    0.070141
    77  H    0.214105
    78  H    0.127961
    79  H    0.125118
    80  H    0.084945
    81  H    0.084928
    82  H    0.127394
    83  H    0.124884
    84  H    0.132066
    85  H    0.126682
    86  H    0.126597
    87  H    0.125245
 Sum of Mulliken charges =   0.00000

 Dipole moment (field-independent basis, Debye):
    X=             -0.8703    Y=             -0.8193    Z=              1.1845  Tot=              1.6828
 Quadrupole moment (field-independent basis, Debye-Ang):
   XX=           -267.9875   YY=           -269.6857   ZZ=           -252.4299
   XY=             -4.5118   XZ=              9.8459   YZ=             -6.8110

 Normal termination of Gaussian 16 at Mon Oct 18 11:17:26 2021.
