 Gaussian 16, Revision C.01,
 Gaussian 16:  ES64L-G16RevC.01  3-Jul-2019

 ----------------------------------------------------------------------
 #P PBE1PBE/Def2TZVP SP SCF=(YQC,MaxCycle=900) int=(Grid=Superfinegrid)
  EmpiricalDispersion=GD3 SCRF=(PCM,Solvent=Chloroform)
 ----------------------------------------------------------------------

 -------------------------
 _3_alde1_6_ami1_1_opt_cfm
 -------------------------
 Symbolic Z-matrix:
 Charge =  0 Multiplicity = 1

                         Standard orientation:
 ---------------------------------------------------------------------
 Center     Atomic      Atomic             Coordinates (Angstroms)
 Number     Number       Type             X           Y           Z
 ---------------------------------------------------------------------
      1          6           0        2.897658   -2.108604    1.257138
      2          6           0        3.230402   -3.327385    0.439091
      3          6           0        3.708670   -0.993606    1.127720
      4          6           0        3.469087    0.163962    1.863117
      5          1           0        4.532248   -1.003680    0.433799
      6          6           0        2.391152    0.198837    2.737763
      7          6           0        1.574205   -0.919023    2.891460
      8          1           0        2.178105    1.075997    3.329066
      9          6           0        1.829617   -2.067008    2.140125
     10          6           0        0.495711   -0.912830    3.870597
     11          1           0        1.199158   -2.936423    2.266749
     12          6           0        4.347901    1.312250    1.686862
     13          1           0       -0.186445   -1.777730    3.846445
     14          1           0        3.927477    2.294221    1.953576
     15          6           0        1.057217    0.247634   -2.466119
     16          6           0        0.393550   -1.041865   -2.882421
     17          6           0        0.333578    1.426944   -2.402848
     18          6           0        0.946592    2.618962   -2.017035
     19          1           0       -0.719364    1.440130   -2.630953
     20          6           0        2.293422    2.619261   -1.685241
     21          6           0        3.034552    1.442113   -1.758937
     22          1           0        2.795337    3.525650   -1.383078
     23          6           0        2.408960    0.258290   -2.145066
     24          6           0        4.445870    1.436207   -1.412446
     25          1           0        2.975956   -0.660353   -2.180475
     26          6           0        0.171594    3.852309   -1.966842
     27          1           0        4.941166    0.455350   -1.460622
     28          1           0        0.534648    4.620497   -1.265169
     29          6           0       -4.398836   -0.135543    0.783495
     30          6           0       -5.311285   -1.330115    0.713853
     31          6           0       -3.686109    0.146281    1.935158
     32          6           0       -2.858593    1.268538    2.005404
     33          1           0       -3.752833   -0.493996    2.800843
     34          6           0       -2.773061    2.121253    0.911742
     35          6           0       -3.490760    1.851067   -0.250301
     36          1           0       -2.153167    3.004307    0.940606
     37          6           0       -4.287756    0.711158   -0.311797
     38          6           0       -3.437625    2.759535   -1.387271
     39          1           0       -4.833610    0.475679   -1.214118
     40          6           0       -2.113308    1.552975    3.223378
     41          1           0       -3.751512    2.334259   -2.354149
     42          1           0       -1.420730    2.407780    3.177267
     43          6           0        4.194682   -4.026684   -1.570381
     44          6           0        5.090527   -4.493086   -0.389085
     45          7           0        3.408100   -2.964150   -0.961549
     46          1           0        4.799293   -3.589988   -2.373446
     47          6           0        3.338868   -5.154734   -2.193169
     48          7           0        4.498776   -3.921382    0.824522
     49          1           0        5.017713   -5.582837   -0.285661
     50          6           0        6.584818   -4.139336   -0.507197
     51          1           0        2.664204   -5.536305   -1.417911
     52          6           0        4.182713   -6.311314   -2.724995
     53          6           0        2.505558   -4.598751   -3.349514
     54          1           0        7.034649   -4.420112    0.453585
     55          6           0        6.845931   -2.650335   -0.733660
     56          6           0        7.265769   -4.959875   -1.600392
     57          1           0        3.161065   -4.251391   -4.146743
     58          1           0        1.883139   -3.767198   -3.032414
     59          1           0        1.859156   -5.375576   -3.754084
     60          1           0        4.891023   -5.951755   -3.468170
     61          1           0        3.537937   -7.048716   -3.199409
     62          1           0        4.736379   -6.811019   -1.935877
     63          1           0        7.121600   -6.024206   -1.432335
     64          1           0        8.334696   -4.757777   -1.607506
     65          1           0        6.865817   -4.707728   -2.579081
     66          1           0        6.405173   -2.312440   -1.668055
     67          1           0        7.918202   -2.469746   -0.777120
     68          1           0        6.441380   -2.044838    0.073767
     69          6           0       -1.634348   -2.186956   -3.069194
     70          6           0       -0.709111   -2.933665   -2.066018
     71          7           0       -1.026678   -0.871310   -3.139643
     72          1           0       -2.648077   -2.069938   -2.664156
     73          6           0       -1.738094   -2.931268   -4.420957
     74          7           0        0.447545   -2.059730   -1.838685
     75          1           0       -0.328672   -3.840719   -2.553895
     76          6           0       -1.424320   -3.365233   -0.776120
     77          1           0       -0.722518   -3.143495   -4.776143
     78          6           0       -2.458720   -2.085566   -5.471825
     79          6           0       -2.488760   -4.250252   -4.249328
     80          1           0       -2.373209   -3.819138   -1.088226
     81          6           0       -1.727968   -2.188771    0.152221
     82          6           0       -0.611770   -4.429514   -0.042851
     83          1           0       -2.492404   -4.805518   -5.184672
     84          1           0       -3.520922   -4.055147   -3.966334
     85          1           0       -2.033290   -4.876122   -3.486339
     86          1           0       -1.873754   -1.216435   -5.766065
     87          1           0       -3.418376   -1.744692   -5.087702
     88          1           0       -2.636911   -2.678568   -6.366214
     89          1           0        0.374887   -4.041490    0.193772
     90          1           0       -0.493473   -5.318848   -0.658750
     91          1           0       -1.106923   -4.716395    0.882638
     92          1           0       -2.141515   -1.348820   -0.401432
     93          1           0       -0.832129   -1.852227    0.672216
     94          1           0       -2.446981   -2.485628    0.912715
     95          6           0       -6.504821   -2.694875   -0.788778
     96          6           0       -7.452307   -2.053438    0.267543
     97          7           0       -5.250474   -1.980287   -0.598571
     98          1           0       -6.868231   -2.467288   -1.801210
     99          6           0       -6.430118   -4.232776   -0.674753
    100          7           0       -6.704036   -0.952615    0.863531
    101          1           0       -7.623088   -2.784986    1.068356
    102          6           0       -8.824649   -1.643305   -0.281720
    103          1           0       -7.464663   -4.592639   -0.622736
    104          6           0       -5.687467   -4.715276    0.570473
    105          6           0       -5.778742   -4.826094   -1.923504
    106          1           0       -9.216768   -2.512864   -0.822947
    107          6           0       -8.762948   -0.461674   -1.250582
    108          6           0       -9.769558   -1.318461    0.873804
    109          1           0       -6.324897   -4.536607   -2.818763
    110          1           0       -5.764024   -5.912209   -1.866766
    111          1           0       -4.752196   -4.477521   -2.020393
    112          1           0       -6.130420   -4.313353    1.478460
    113          1           0       -4.639154   -4.422429    0.537995
    114          1           0       -5.728371   -5.801089    0.625792
    115          1           0       -9.923559   -2.192451    1.502319
    116          1           0      -10.735509   -0.991839    0.495513
    117          1           0       -9.344828   -0.527213    1.486302
    118          1           0       -8.594763    0.470706   -0.715360
    119          1           0       -9.708231   -0.372746   -1.781281
    120          1           0       -7.971696   -0.590824   -1.985488
    121          6           0        6.322104    2.318500    0.951521
    122          6           0        6.411326    2.372149   -0.602948
    123          7           0        5.520076    1.171678    1.245554
    124          1           0        5.828413    3.246057    1.290529
    125          6           0        7.686223    2.190265    1.653375
    126          7           0        5.060567    2.482975   -1.066718
    127          1           0        6.862297    1.419856   -0.930794
    128          6           0        7.243042    3.542585   -1.152615
    129          1           0        8.295818    3.055905    1.376078
    130          6           0        8.415903    0.909589    1.258845
    131          6           0        7.469781    2.225234    3.166598
    132          1           0        8.266434    3.446340   -0.776305
    133          6           0        6.673781    4.894645   -0.733511
    134          6           0        7.282506    3.440464   -2.677752
    135          1           0        6.874315    1.370050    3.478791
    136          1           0        6.949248    3.134212    3.461735
    137          1           0        8.424673    2.192564    3.686401
    138          1           0        9.304324    0.782776    1.873683
    139          1           0        8.725352    0.937212    0.217459
    140          1           0        7.760194    0.056473    1.407903
    141          1           0        6.276268    3.531150   -3.080349
    142          1           0        7.693620    2.482261   -2.989710
    143          1           0        7.899724    4.232299   -3.096009
    144          1           0        7.186779    5.695900   -1.261025
    145          1           0        6.795603    5.059294    0.333965
    146          1           0        5.616026    4.933081   -0.977202
    147          6           0       -0.624744   -0.034697    5.730112
    148          6           0       -1.557807    1.173703    5.465974
    149          7           0        0.391506    0.007669    4.724131
    150          1           0       -1.236121   -0.951018    5.645563
    151          6           0        0.066598   -0.022148    7.109494
    152          7           0       -2.276522    0.867469    4.267612
    153          1           0       -0.918877    2.065431    5.336016
    154          6           0       -2.581812    1.452108    6.585520
    155          1           0       -0.709564   -0.018386    7.880356
    156          6           0        0.961438    1.201218    7.284578
    157          6           0        0.887939   -1.300963    7.275920
    158          1           0       -2.032438    1.650292    7.510690
    159          6           0       -3.525693    0.272331    6.798289
    160          6           0       -3.382239    2.706863    6.235599
    161          1           0        1.688375   -1.334288    6.540053
    162          1           0        0.261970   -2.181766    7.145315
    163          1           0        1.328923   -1.338084    8.269378
    164          1           0        1.507259    1.132550    8.223254
    165          1           0        0.377139    2.117377    7.295722
    166          1           0        1.673901    1.251527    6.466099
    167          1           0       -3.962105    2.543513    5.329957
    168          1           0       -2.719757    3.554951    6.073283
    169          1           0       -4.065435    2.955121    7.044818
    170          1           0       -4.293269    0.535299    7.523204
    171          1           0       -2.990664   -0.598037    7.168609
    172          1           0       -4.003944    0.014491    5.857715
    173          6           0       -1.590351    5.241305   -2.609030
    174          6           0       -3.064903    4.816847   -2.413787
    175          7           0       -0.839525    4.023389   -2.696415
    176          1           0       -1.278724    5.830972   -1.729900
    177          6           0       -1.345620    6.091999   -3.873721
    178          7           0       -3.090861    3.963645   -1.262400
    179          1           0       -3.376022    4.261252   -3.316061
    180          6           0       -4.040617    5.990935   -2.197891
    181          1           0       -1.990542    6.974503   -3.813505
    182          6           0       -1.661310    5.323965   -5.154376
    183          6           0        0.106122    6.570120   -3.894705
    184          1           0       -3.979804    6.646899   -3.072358
    185          6           0       -3.707941    6.791034   -0.941656
    186          6           0       -5.467989    5.449937   -2.110912
    187          1           0        0.783475    5.722197   -3.971350
    188          1           0        0.344602    7.123507   -2.988343
    189          1           0        0.274181    7.223445   -4.747913
    190          1           0       -1.130611    4.375672   -5.152861
    191          1           0       -1.349113    5.902243   -6.021491
    192          1           0       -2.726635    5.129183   -5.243974
    193          1           0       -6.178081    6.269757   -2.028539
    194          1           0       -5.573810    4.810308   -1.237529
    195          1           0       -5.716087    4.869299   -2.997550
    196          1           0       -4.498392    7.510098   -0.737760
    197          1           0       -2.775915    7.337608   -1.058489
    198          1           0       -3.616661    6.117136   -0.094317
    199          1           0       -1.214888   -0.389976   -4.008254
    200          1           0        0.935034   -1.449846   -3.764507
    201          1           0        0.354463   -1.594975   -0.940858
    202          1           0       -6.862644   -0.104270    0.328452
    203          1           0       -4.436327   -2.571360   -0.698997
    204          1           0       -5.069383   -2.023638    1.540829
    205          1           0        5.105210   -3.203729    1.205719
    206          1           0        2.518612   -2.790558   -1.419574
    207          1           0        2.451224   -4.103206    0.582755
 ---------------------------------------------------------------------

 SCF Done:  E(RPBE1PBE) =  -3584.41552312     a.u. after    8 cycles
 SCF Done:  E(RPBE1PBE) =  -3584.41552415     A.U. after    8 cycles

 The electronic state is 1-A.
 Alpha  occ. eigenvalues --  -14.37662 -14.37195 -14.37190 -14.37157 -14.37117
 Alpha  occ. eigenvalues --  -14.37073 -14.36992 -14.36873 -14.36746 -14.36731
 Alpha  occ. eigenvalues --  -14.36353 -14.35552 -10.28111 -10.27715 -10.27249
 Alpha  occ. eigenvalues --  -10.26269 -10.26243 -10.26112 -10.26108 -10.26057
 Alpha  occ. eigenvalues --  -10.25927 -10.24949 -10.24789 -10.24671 -10.24653
 Alpha  occ. eigenvalues --  -10.24647 -10.24641 -10.24624 -10.24543 -10.24538
 Alpha  occ. eigenvalues --  -10.24329 -10.24224 -10.24087 -10.23803 -10.23657
 Alpha  occ. eigenvalues --  -10.23635 -10.23629 -10.23596 -10.23549 -10.23520
 Alpha  occ. eigenvalues --  -10.23517 -10.23483 -10.23460 -10.23133 -10.23089
 Alpha  occ. eigenvalues --  -10.23054 -10.23041 -10.23025 -10.22878 -10.22799
 Alpha  occ. eigenvalues --  -10.22746 -10.22647 -10.22645 -10.22586 -10.22526
 Alpha  occ. eigenvalues --  -10.22492 -10.22470 -10.22330 -10.22327 -10.22282
 Alpha  occ. eigenvalues --  -10.22247 -10.22165 -10.22027 -10.20840 -10.20808
 Alpha  occ. eigenvalues --  -10.20785 -10.20758 -10.20699 -10.20697 -10.20693
 Alpha  occ. eigenvalues --  -10.20345 -10.20275 -10.20233 -10.20229 -10.20166
 Alpha  occ. eigenvalues --  -10.20089 -10.20079 -10.20042 -10.20010 -10.19960
 Alpha  occ. eigenvalues --  -10.19956 -10.19899 -10.19769 -10.19766 -10.19731
 Alpha  occ. eigenvalues --  -10.19725 -10.19704  -0.99723  -0.99469  -0.98743
 Alpha  occ. eigenvalues --   -0.97683  -0.97392  -0.97318  -0.94917  -0.94764
 Alpha  occ. eigenvalues --   -0.94417  -0.89856  -0.89424  -0.89357  -0.88929
 Alpha  occ. eigenvalues --   -0.88584  -0.87739  -0.84587  -0.84474  -0.84381
 Alpha  occ. eigenvalues --   -0.83999  -0.83736  -0.83263  -0.82012  -0.81625
 Alpha  occ. eigenvalues --   -0.81542  -0.81359  -0.81064  -0.80750  -0.79585
 Alpha  occ. eigenvalues --   -0.79547  -0.79404  -0.79162  -0.79072  -0.78849
 Alpha  occ. eigenvalues --   -0.74693  -0.74094  -0.73994  -0.73326  -0.73288
 Alpha  occ. eigenvalues --   -0.72795  -0.71025  -0.70941  -0.70680  -0.70645
 Alpha  occ. eigenvalues --   -0.70591  -0.70284  -0.70208  -0.70150  -0.69961
 Alpha  occ. eigenvalues --   -0.69948  -0.69895  -0.69875  -0.68808  -0.68698
 Alpha  occ. eigenvalues --   -0.68669  -0.66693  -0.66511  -0.66124  -0.65727
 Alpha  occ. eigenvalues --   -0.65107  -0.64491  -0.64376  -0.64363  -0.64072
 Alpha  occ. eigenvalues --   -0.63294  -0.62768  -0.62418  -0.60265  -0.60038
 Alpha  occ. eigenvalues --   -0.59794  -0.59221  -0.59097  -0.58964  -0.58683
 Alpha  occ. eigenvalues --   -0.58520  -0.58152  -0.57656  -0.57297  -0.57190
 Alpha  occ. eigenvalues --   -0.56449  -0.56009  -0.55883  -0.55197  -0.54987
 Alpha  occ. eigenvalues --   -0.54789  -0.53850  -0.53498  -0.53420  -0.52723
 Alpha  occ. eigenvalues --   -0.52312  -0.51998  -0.51280  -0.51178  -0.51075
 Alpha  occ. eigenvalues --   -0.50487  -0.50419  -0.50114  -0.50078  -0.49737
 Alpha  occ. eigenvalues --   -0.49711  -0.49248  -0.49079  -0.48947  -0.48434
 Alpha  occ. eigenvalues --   -0.48144  -0.47898  -0.47830  -0.47561  -0.47340
 Alpha  occ. eigenvalues --   -0.46951  -0.46914  -0.46673  -0.46398  -0.46260
 Alpha  occ. eigenvalues --   -0.46183  -0.46022  -0.45991  -0.45871  -0.45104
 Alpha  occ. eigenvalues --   -0.45042  -0.44847  -0.44777  -0.44724  -0.44597
 Alpha  occ. eigenvalues --   -0.44502  -0.44241  -0.44177  -0.43956  -0.43749
 Alpha  occ. eigenvalues --   -0.43677  -0.43431  -0.43240  -0.43118  -0.42949
 Alpha  occ. eigenvalues --   -0.42930  -0.42767  -0.42643  -0.42503  -0.42315
 Alpha  occ. eigenvalues --   -0.42229  -0.42037  -0.41926  -0.41759  -0.41736
 Alpha  occ. eigenvalues --   -0.41362  -0.41351  -0.40896  -0.40758  -0.40632
 Alpha  occ. eigenvalues --   -0.40468  -0.40240  -0.40211  -0.40181  -0.40103
 Alpha  occ. eigenvalues --   -0.40014  -0.39918  -0.39846  -0.39686  -0.39664
 Alpha  occ. eigenvalues --   -0.39412  -0.39372  -0.39289  -0.39143  -0.39055
 Alpha  occ. eigenvalues --   -0.38914  -0.38889  -0.38819  -0.38778  -0.38443
 Alpha  occ. eigenvalues --   -0.38368  -0.38172  -0.38017  -0.37822  -0.37768
 Alpha  occ. eigenvalues --   -0.37728  -0.37597  -0.37453  -0.37185  -0.36799
 Alpha  occ. eigenvalues --   -0.36749  -0.36556  -0.36396  -0.36289  -0.36046
 Alpha  occ. eigenvalues --   -0.35972  -0.35946  -0.35488  -0.35353  -0.35243
 Alpha  occ. eigenvalues --   -0.35029  -0.34959  -0.34881  -0.34705  -0.34612
 Alpha  occ. eigenvalues --   -0.34574  -0.34525  -0.34508  -0.34489  -0.34462
 Alpha  occ. eigenvalues --   -0.34218  -0.34136  -0.34097  -0.33992  -0.33952
 Alpha  occ. eigenvalues --   -0.33862  -0.33806  -0.33736  -0.33654  -0.33547
 Alpha  occ. eigenvalues --   -0.33448  -0.33264  -0.32976  -0.32773  -0.32532
 Alpha  occ. eigenvalues --   -0.32182  -0.32157  -0.32051  -0.32007  -0.31881
 Alpha  occ. eigenvalues --   -0.31226  -0.30856  -0.30689  -0.30182  -0.27020
 Alpha  occ. eigenvalues --   -0.26876  -0.26714  -0.26686  -0.26479  -0.26278
 Alpha  occ. eigenvalues --   -0.26132  -0.26052  -0.25910  -0.25698  -0.25668
 Alpha  occ. eigenvalues --   -0.25514  -0.25014  -0.24859  -0.24202  -0.23930
 Alpha  occ. eigenvalues --   -0.23721  -0.22977
 Alpha virt. eigenvalues --   -0.05652  -0.05297  -0.05049  -0.04100  -0.03832
 Alpha virt. eigenvalues --   -0.03702   0.01694   0.01799   0.01987   0.02440
 Alpha virt. eigenvalues --    0.03414   0.03548   0.03926   0.04096   0.04251

 Mulliken charges:
               1
     1  C    0.364055
     2  C   -0.101738
     3  C   -0.331755
     4  C    0.291651
     5  H    0.199179
     6  C   -0.359725
     7  C    0.404256
     8  H    0.127518
     9  C   -0.453410
    10  C   -0.211584
    11  H    0.145304
    12  C   -0.203590
    13  H    0.082023
    14  H    0.088038
    15  C    0.243038
    16  C    0.009985
    17  C   -0.322574
    18  C    0.379093
    19  H    0.147353
    20  C   -0.391790
    21  C    0.326724
    22  H    0.137614
    23  C   -0.319431
    24  C   -0.198826
    25  H    0.135248
    26  C   -0.203623
    27  H    0.109547
    28  H    0.090783
    29  C    0.301164
    30  C   -0.140462
    31  C   -0.344466
    32  C    0.407948
    33  H    0.126096
    34  C   -0.369352
    35  C    0.350915
    36  H    0.123325
    37  C   -0.314986
    38  C   -0.187582
    39  H    0.130015
    40  C   -0.224110
    41  H    0.080816
    42  H    0.084683
    43  C    0.016119
    44  C    0.075082
    45  N   -0.289042
    46  H    0.076659
    47  C   -0.073797
    48  N   -0.270249
    49  H    0.071210
    50  C   -0.091662
    51  H    0.078414
    52  C   -0.364692
    53  C   -0.383529
    54  H    0.089423
    55  C   -0.402377
    56  C   -0.370010
    57  H    0.117480
    58  H    0.104463
    59  H    0.120163
    60  H    0.112439
    61  H    0.129409
    62  H    0.121592
    63  H    0.123694
    64  H    0.131047
    65  H    0.114100
    66  H    0.114981
    67  H    0.134770
    68  H    0.116699
    69  C    0.046781
    70  C    0.062358
    71  N   -0.313293
    72  H    0.086555
    73  C   -0.076577
    74  N   -0.395399
    75  H    0.091087
    76  C   -0.019045
    77  H    0.093364
    78  C   -0.405819
    79  C   -0.403414
    80  H    0.088736
    81  C   -0.569912
    82  C   -0.328592
    83  H    0.134166
    84  H    0.124794
    85  H    0.126958
    86  H    0.121593
    87  H    0.130120
    88  H    0.131121
    89  H    0.062440
    90  H    0.128053
    91  H    0.126334
    92  H    0.180509
    93  H    0.158060
    94  H    0.133738
    95  C    0.128358
    96  C   -0.036755
    97  N   -0.289072
    98  H    0.056182
    99  C   -0.102705
   100  N   -0.267278
   101  H    0.062387
   102  C   -0.027080
   103  H    0.078887
   104  C   -0.394466
   105  C   -0.356041
   106  H    0.082237
   107  C   -0.444109
   108  C   -0.380510
   109  H    0.125638
   110  H    0.128983
   111  H    0.095350
   112  H    0.132214
   113  H    0.113358
   114  H    0.135513
   115  H    0.122229
   116  H    0.126664
   117  H    0.128334
   118  H    0.131608
   119  H    0.134280
   120  H    0.137584
   121  C    0.102073
   122  C    0.082079
   123  N   -0.265321
   124  H    0.088547
   125  C   -0.016042
   126  N   -0.266335
   127  H    0.093507
   128  C   -0.000019
   129  H    0.089055
   130  C   -0.425132
   131  C   -0.396101
   132  H    0.087691
   133  C   -0.425566
   134  C   -0.401929
   135  H    0.127469
   136  H    0.118687
   137  H    0.126873
   138  H    0.123931
   139  H    0.125708
   140  H    0.135622
   141  H    0.128838
   142  H    0.117834
   143  H    0.126378
   144  H    0.122691
   145  H    0.126169
   146  H    0.134329
   147  C    0.094403
   148  C    0.084814
   149  N   -0.237541
   150  H    0.082712
   151  C   -0.020007
   152  N   -0.235693
   153  H    0.085085
   154  C   -0.022342
   155  H    0.089971
   156  C   -0.418776
   157  C   -0.395341
   158  H    0.089666
   159  C   -0.418781
   160  C   -0.394989
   161  H    0.130890
   162  H    0.117631
   163  H    0.127971
   164  H    0.123262
   165  H    0.125581
   166  H    0.135292
   167  H    0.131434
   168  H    0.118178
   169  H    0.127432
   170  H    0.123141
   171  H    0.124850
   172  H    0.136920
   173  C    0.088712
   174  C    0.126692
   175  N   -0.260462
   176  H    0.086138
   177  C   -0.010770
   178  N   -0.256634
   179  H    0.077031
   180  C   -0.007518
   181  H    0.086212
   182  C   -0.423097
   183  C   -0.400643
   184  H    0.085173
   185  C   -0.424153
   186  C   -0.398291
   187  H    0.129118
   188  H    0.119256
   189  H    0.129478
   190  H    0.131583
   191  H    0.123396
   192  H    0.125155
   193  H    0.128480
   194  H    0.128631
   195  H    0.116898
   196  H    0.122852
   197  H    0.125128
   198  H    0.134090
   199  H    0.205648
   200  H    0.088290
   201  H    0.214663
   202  H    0.195494
   203  H    0.158541
   204  H    0.092797
   205  H    0.197791
   206  H    0.173971
   207  H    0.077289
 Sum of Mulliken charges =   0.00000

 Dipole moment (field-independent basis, Debye):
    X=             -2.8247    Y=             -3.1140    Z=             -3.6716  Tot=              5.5818
 Quadrupole moment (field-independent basis, Debye-Ang):
   XX=           -526.0908   YY=           -522.5196   ZZ=           -536.0445
   XY=             18.7524   XZ=             11.4918   YZ=             11.0328

 Normal termination of Gaussian 16 at Mon Oct 18 19:55:46 2021.
