 Gaussian 16, Revision C.01,
 Gaussian 16:  ES64L-G16RevC.01  3-Jul-2019

 ----------------------------------------------------------------------
 #P PBE1PBE/Def2TZVP SP SCF=(YQC,MaxCycle=900) int=(Grid=Superfinegrid)
  EmpiricalDispersion=GD3 SCRF=(PCM,Solvent=Chloroform)
 ----------------------------------------------------------------------

 -------------------------
 _3_alde1_4_ami1_1_opt_cfm
 -------------------------
 Symbolic Z-matrix:
 Charge =  0 Multiplicity = 1

                         Standard orientation:
 ---------------------------------------------------------------------
 Center     Atomic      Atomic             Coordinates (Angstroms)
 Number     Number       Type             X           Y           Z
 ---------------------------------------------------------------------
      1          6           0        2.472173    1.351705    1.403294
      2          6           0        2.611086    0.825387    2.753132
      3          6           0        1.655234    2.448154    1.134431
      4          6           0        1.475726    2.896754   -0.169800
      5          1           0        1.166314    2.938272    1.962476
      6          6           0        2.077859    2.204833   -1.221036
      7          6           0        2.897593    1.111539   -0.968377
      8          1           0        1.897940    2.545427   -2.229374
      9          6           0        3.114967    0.712649    0.349718
     10          6           0        3.466105    0.338430   -2.064685
     11          1           0        3.769465   -0.126114    0.526058
     12          6           0        0.646886    4.064921   -0.421874
     13          1           0        3.012633    0.512745   -3.053327
     14          1           0        3.375762    0.044687    2.879076
     15          1           0        0.229410    4.548617    0.474765
     16          6           0       -2.559920    1.338812    2.119702
     17          6           0       -2.118003    1.611839    3.491345
     18          6           0       -3.205926    0.137354    1.826494
     19          6           0       -3.594290   -0.158084    0.524861
     20          1           0       -3.404083   -0.554793    2.633233
     21          6           0       -3.308047    0.754714   -0.489839
     22          6           0       -2.687197    1.966851   -0.208122
     23          1           0       -3.596905    0.500545   -1.498404
     24          6           0       -2.322421    2.258890    1.104350
     25          6           0       -2.397936    2.910474   -1.281876
     26          1           0       -1.840722    3.201482    1.311965
     27          6           0       -4.264965   -1.416161    0.229154
     28          1           0       -2.366060    2.482812   -2.295998
     29          1           0       -1.680224    2.617321    3.632574
     30          1           0       -4.419939   -2.086674    1.086742
     31          6           0        0.295565   -2.159163    1.606077
     32          6           0        0.100276   -1.535616    2.909243
     33          6           0        1.579832   -2.303566    1.083349
     34          6           0        1.775037   -2.749887   -0.218507
     35          1           0        2.415790   -2.027141    1.706301
     36          6           0        0.668553   -3.090743   -0.995135
     37          6           0       -0.614527   -3.016336   -0.465387
     38          1           0        0.833323   -3.421394   -2.009413
     39          6           0       -0.794585   -2.539716    0.832928
     40          6           0       -1.766153   -3.388053   -1.276884
     41          1           0       -1.799647   -2.463071    1.216540
     42          6           0        3.122306   -2.781657   -0.767231
     43          1           0       -1.587556   -3.446553   -2.362368
     44          1           0        3.930182   -2.610647   -0.040257
     45          6           0        0.859144   -0.598672    4.914806
     46          6           0        1.957482    0.501874    4.954408
     47          7           0        1.063890   -1.316290    3.690843
     48          1           0       -0.127924   -0.112262    4.925828
     49          6           0        0.921505   -1.577095    6.107379
     50          7           0        1.870110    1.198109    3.703245
     51          1           0        2.926519   -0.018857    5.039255
     52          6           0        1.819725    1.501083    6.114567
     53          1           0        0.897501   -0.983825    7.026461
     54          6           0        2.185928   -2.432185    6.095685
     55          6           0       -0.318764   -2.469773    6.090748
     56          1           0        1.764367    0.938005    7.051510
     57          6           0        0.574632    2.371542    5.978894
     58          6           0        3.069561    2.381206    6.158473
     59          1           0       -0.333578   -3.109896    6.970229
     60          1           0       -0.319504   -3.102291    5.205125
     61          1           0       -1.223679   -1.866028    6.087262
     62          1           0        2.137868   -3.175472    6.888736
     63          1           0        3.073756   -1.826019    6.254773
     64          1           0        2.278445   -2.942920    5.140589
     65          1           0        3.166665    2.933911    5.226465
     66          1           0        3.964586    1.777382    6.295883
     67          1           0        3.005594    3.091621    6.979584
     68          1           0        0.539301    3.099308    6.787055
     69          1           0       -0.330842    1.773529    6.016637
     70          1           0        0.605387    2.898938    5.029812
     71          8           0       -2.191322    0.832786    4.409956
     72          6           0       -0.468826    5.616187   -1.742837
     73          6           0       -1.848263    5.015500   -2.125304
     74          7           0        0.421221    4.502815   -1.582572
     75          1           0       -0.604115    6.146572   -0.784924
     76          6           0        0.114699    6.590281   -2.780430
     77          7           0       -2.196685    4.131877   -1.054042
     78          1           0       -1.730779    4.458941   -3.071221
     79          6           0       -2.959395    6.068783   -2.309572
     80          1           0       -0.578041    7.430625   -2.891502
     81          6           0        0.323842    5.923637   -4.136951
     82          6           0        1.442800    7.133075   -2.252231
     83          1           0       -2.640292    6.757026   -3.098315
     84          6           0       -3.226275    6.856145   -1.030112
     85          6           0       -4.239654    5.375423   -2.776072
     86          1           0        1.306157    7.614522   -1.285918
     87          1           0        1.856834    7.862677   -2.944302
     88          1           0        2.155011    6.319604   -2.134065
     89          1           0        0.886329    5.003658   -4.006018
     90          1           0        0.880292    6.586111   -4.796314
     91          1           0       -0.625340    5.691467   -4.612979
     92          1           0       -5.012214    6.112526   -2.982459
     93          1           0       -4.605006    4.698266   -2.006938
     94          1           0       -4.061251    4.803171   -3.684448
     95          1           0       -3.409092    6.169925   -0.207641
     96          1           0       -4.100840    7.489871   -1.160250
     97          1           0       -2.382853    7.492422   -0.776071
     98          6           0        4.833084   -1.331391   -2.961277
     99          6           0        4.702416   -2.798676   -2.463323
    100          7           0        4.383887   -0.504693   -1.881492
    101          1           0        4.184484   -1.207177   -3.845155
    102          6           0        6.272990   -0.940830   -3.355128
    103          7           0        3.353460   -2.945112   -1.996331
    104          1           0        5.414603   -2.918452   -1.629709
    105          6           0        4.995699   -3.863849   -3.532748
    106          1           0        6.619807   -1.655486   -4.108172
    107          6           0        7.225522   -0.963924   -2.162888
    108          6           0        6.263953    0.449938   -3.989974
    109          1           0        6.020257   -3.720901   -3.891370
    110          6           0        4.030812   -3.774291   -4.711704
    111          6           0        4.904306   -5.245625   -2.884772
    112          1           0        5.934675    1.193558   -3.267148
    113          1           0        5.594422    0.480240   -4.847435
    114          1           0        7.263208    0.715861   -4.326918
    115          1           0        7.377255   -1.976372   -1.798522
    116          1           0        6.820297   -0.358231   -1.356711
    117          1           0        8.193441   -0.561408   -2.453633
    118          1           0        3.895223   -5.415074   -2.515967
    119          1           0        5.595024   -5.326019   -2.047643
    120          1           0        5.147815   -6.021614   -3.606779
    121          1           0        4.214811   -2.882577   -5.305457
    122          1           0        3.009510   -3.746564   -4.342842
    123          1           0        4.149909   -4.640906   -5.358211
    124          6           0       -5.188758   -3.014130   -1.177332
    125          6           0       -4.013545   -3.950018   -1.584762
    126          7           0       -4.639296   -1.713585   -0.937900
    127          1           0       -5.623403   -3.428076   -0.252514
    128          6           0       -6.286296   -2.923496   -2.252064
    129          7           0       -2.891135   -3.621492   -0.761919
    130          1           0       -3.786704   -3.778049   -2.650935
    131          6           0       -4.367079   -5.442846   -1.397911
    132          1           0       -6.526366   -3.938831   -2.585506
    133          6           0       -5.841016   -2.098032   -3.456226
    134          6           0       -7.540028   -2.304709   -1.635069
    135          1           0       -5.369532   -5.603433   -1.808456
    136          6           0       -4.361482   -5.855868    0.071788
    137          6           0       -3.379622   -6.304570   -2.183027
    138          1           0       -7.315967   -1.306408   -1.265382
    139          1           0       -7.901906   -2.908059   -0.804836
    140          1           0       -8.332618   -2.230806   -2.375998
    141          1           0       -4.983216   -2.547531   -3.948943
    142          1           0       -5.567524   -1.098249   -3.132636
    143          1           0       -6.650818   -2.028346   -4.178952
    144          1           0       -3.625470   -7.357806   -2.069104
    145          1           0       -2.367213   -6.147151   -1.815851
    146          1           0       -3.407091   -6.059488   -3.242951
    147          1           0       -4.604189   -6.912545    0.160186
    148          1           0       -5.092386   -5.290935    0.643867
    149          1           0       -3.379475   -5.681473    0.503471
    150          1           0       -0.929329   -1.227524    3.139172
 ---------------------------------------------------------------------

 SCF Done:  E(RPBE1PBE) =  -2808.61794568     a.u. after    7 cycles
 SCF Done:  E(RPBE1PBE) =  -2808.61795561     A.U. after    9 cycles

 The electronic state is 1-A.
 Alpha  occ. eigenvalues --  -19.21389 -14.38069 -14.37777 -14.37630 -14.37580
 Alpha  occ. eigenvalues --  -14.37461 -14.37333 -14.37280 -14.37113 -10.31753
 Alpha  occ. eigenvalues --  -10.27045 -10.26710 -10.26697 -10.26643 -10.26450
 Alpha  occ. eigenvalues --  -10.26280 -10.26278 -10.26135 -10.25311 -10.25267
 Alpha  occ. eigenvalues --  -10.25233 -10.25175 -10.25121 -10.25107 -10.25069
 Alpha  occ. eigenvalues --  -10.25013 -10.24996 -10.24962 -10.24880 -10.24800
 Alpha  occ. eigenvalues --  -10.24464 -10.24419 -10.24312 -10.24303 -10.24284
 Alpha  occ. eigenvalues --  -10.24197 -10.24192 -10.24184 -10.23820 -10.23811
 Alpha  occ. eigenvalues --  -10.23801 -10.23786 -10.23772 -10.23709 -10.22823
 Alpha  occ. eigenvalues --  -10.22790 -10.22695 -10.22421 -10.22408 -10.22376
 Alpha  occ. eigenvalues --  -10.22315 -10.21990 -10.20454 -10.20401 -10.20323
 Alpha  occ. eigenvalues --  -10.20257 -10.20139 -10.20129 -10.20093 -10.20091
 Alpha  occ. eigenvalues --  -10.20033 -10.20012 -10.19953 -10.19953 -10.19868
 Alpha  occ. eigenvalues --  -10.19866 -10.19850 -10.19342  -1.09066  -0.98204
 Alpha  occ. eigenvalues --   -0.98101  -0.97896  -0.97565  -0.95329  -0.95225
 Alpha  occ. eigenvalues --   -0.94873  -0.94555  -0.91128  -0.90282  -0.89692
 Alpha  occ. eigenvalues --   -0.84905  -0.84771  -0.84638  -0.83629  -0.82506
 Alpha  occ. eigenvalues --   -0.82229  -0.82208  -0.81557  -0.81007  -0.80466
 Alpha  occ. eigenvalues --   -0.79990  -0.79879  -0.79554  -0.79412  -0.74958
 Alpha  occ. eigenvalues --   -0.74444  -0.74322  -0.73873  -0.70542  -0.70489
 Alpha  occ. eigenvalues --   -0.70429  -0.70168  -0.70163  -0.70146  -0.70080
 Alpha  occ. eigenvalues --   -0.69765  -0.69621  -0.69487  -0.69146  -0.68893
 Alpha  occ. eigenvalues --   -0.68674  -0.66775  -0.66691  -0.66277  -0.64639
 Alpha  occ. eigenvalues --   -0.63996  -0.63782  -0.62995  -0.62228  -0.59971
 Alpha  occ. eigenvalues --   -0.59922  -0.59884  -0.58946  -0.57996  -0.57832
 Alpha  occ. eigenvalues --   -0.57670  -0.56611  -0.56462  -0.55998  -0.55839
 Alpha  occ. eigenvalues --   -0.55606  -0.54859  -0.54596  -0.54258  -0.53589
 Alpha  occ. eigenvalues --   -0.53434  -0.52396  -0.51965  -0.51925  -0.51020
 Alpha  occ. eigenvalues --   -0.50773  -0.50526  -0.50406  -0.50033  -0.49964
 Alpha  occ. eigenvalues --   -0.49579  -0.49437  -0.49065  -0.48544  -0.48522
 Alpha  occ. eigenvalues --   -0.48380  -0.47882  -0.47494  -0.46941  -0.46849
 Alpha  occ. eigenvalues --   -0.46585  -0.46306  -0.46125  -0.45343  -0.45286
 Alpha  occ. eigenvalues --   -0.45035  -0.44974  -0.44825  -0.44776  -0.44406
 Alpha  occ. eigenvalues --   -0.44245  -0.44004  -0.43910  -0.43598  -0.43289
 Alpha  occ. eigenvalues --   -0.43228  -0.43181  -0.43047  -0.42755  -0.42649
 Alpha  occ. eigenvalues --   -0.42340  -0.42226  -0.42180  -0.41932  -0.41841
 Alpha  occ. eigenvalues --   -0.41223  -0.40423  -0.40233  -0.40145  -0.40090
 Alpha  occ. eigenvalues --   -0.40025  -0.39887  -0.39774  -0.39415  -0.39270
 Alpha  occ. eigenvalues --   -0.39163  -0.39036  -0.38854  -0.38845  -0.38812
 Alpha  occ. eigenvalues --   -0.38743  -0.38641  -0.38561  -0.38175  -0.38018
 Alpha  occ. eigenvalues --   -0.37899  -0.37673  -0.37576  -0.36931  -0.36761
 Alpha  occ. eigenvalues --   -0.36698  -0.36525  -0.35787  -0.35545  -0.35100
 Alpha  occ. eigenvalues --   -0.35046  -0.35013  -0.34840  -0.34771  -0.34761
 Alpha  occ. eigenvalues --   -0.34733  -0.34681  -0.34441  -0.34306  -0.34078
 Alpha  occ. eigenvalues --   -0.34063  -0.33860  -0.33567  -0.33454  -0.33295
 Alpha  occ. eigenvalues --   -0.33241  -0.33010  -0.32828  -0.32656  -0.32586
 Alpha  occ. eigenvalues --   -0.32329  -0.31873  -0.31438  -0.30070  -0.29444
 Alpha  occ. eigenvalues --   -0.28687  -0.27780  -0.27451  -0.27242  -0.27099
 Alpha  occ. eigenvalues --   -0.26918  -0.26828  -0.26657  -0.26538  -0.26447
 Alpha  occ. eigenvalues --   -0.26045  -0.25938  -0.25587  -0.25343  -0.25202
 Alpha virt. eigenvalues --   -0.07906  -0.06662  -0.06388  -0.05834  -0.05587
 Alpha virt. eigenvalues --   -0.05227  -0.03055  -0.02323  -0.01238   0.03857
 Alpha virt. eigenvalues --    0.04194   0.04231   0.04331   0.04552   0.04758

 Mulliken charges:
               1
     1  C    0.364498
     2  C   -0.189436
     3  C   -0.359719
     4  C    0.398096
     5  H    0.138625
     6  C   -0.380079
     7  C    0.342448
     8  H    0.141705
     9  C   -0.299556
    10  C   -0.182822
    11  H    0.139694
    12  C   -0.208664
    13  H    0.087395
    14  H    0.097000
    15  H    0.092355
    16  C    0.324630
    17  C    0.050838
    18  C   -0.387329
    19  C    0.384129
    20  H    0.154548
    21  C   -0.371881
    22  C    0.360429
    23  H    0.147942
    24  C   -0.308126
    25  C   -0.165235
    26  H    0.134345
    27  C   -0.151670
    28  H    0.090786
    29  H    0.099407
    30  H    0.093598
    31  C    0.342931
    32  C   -0.194163
    33  C   -0.303565
    34  C    0.379442
    35  H    0.139246
    36  C   -0.382305
    37  C    0.363657
    38  H    0.142648
    39  C   -0.333434
    40  C   -0.164951
    41  H    0.127480
    42  C   -0.193234
    43  H    0.097253
    44  H    0.097130
    45  C    0.116650
    46  C    0.130369
    47  N   -0.261499
    48  H    0.069891
    49  C   -0.032528
    50  N   -0.268944
    51  H    0.077017
    52  C    0.007207
    53  H    0.080366
    54  C   -0.416086
    55  C   -0.399408
    56  H    0.075789
    57  C   -0.430100
    58  C   -0.400851
    59  H    0.127336
    60  H    0.124149
    61  H    0.128927
    62  H    0.123573
    63  H    0.122819
    64  H    0.131436
    65  H    0.124348
    66  H    0.119205
    67  H    0.125576
    68  H    0.122449
    69  H    0.140560
    70  H    0.116940
    71  O   -0.335021
    72  C    0.088048
    73  C    0.098189
    74  N   -0.250186
    75  H    0.090150
    76  C   -0.002926
    77  N   -0.259182
    78  H    0.091320
    79  C   -0.025496
    80  H    0.088940
    81  C   -0.425778
    82  C   -0.401809
    83  H    0.091450
    84  C   -0.421917
    85  C   -0.394217
    86  H    0.119003
    87  H    0.127812
    88  H    0.129700
    89  H    0.134586
    90  H    0.124015
    91  H    0.126249
    92  H    0.130563
    93  H    0.126810
    94  H    0.119701
    95  H    0.132007
    96  H    0.125745
    97  H    0.128157
    98  C    0.091104
    99  C    0.098893
   100  N   -0.257595
   101  H    0.088979
   102  C   -0.022950
   103  N   -0.261596
   104  H    0.084935
   105  C    0.004946
   106  H    0.085816
   107  C   -0.418863
   108  C   -0.395410
   109  H    0.084134
   110  C   -0.426011
   111  C   -0.402832
   112  H    0.127159
   113  H    0.119781
   114  H    0.129671
   115  H    0.125138
   116  H    0.133142
   117  H    0.124390
   118  H    0.128175
   119  H    0.118938
   120  H    0.127150
   121  H    0.124835
   122  H    0.133668
   123  H    0.123159
   124  C    0.125978
   125  C    0.089991
   126  N   -0.249077
   127  H    0.062468
   128  C    0.007428
   129  N   -0.257846
   130  H    0.059335
   131  C   -0.019606
   132  H    0.071099
   133  C   -0.405265
   134  C   -0.397245
   135  H    0.075719
   136  C   -0.401910
   137  C   -0.397544
   138  H    0.124992
   139  H    0.121556
   140  H    0.126474
   141  H    0.117412
   142  H    0.130630
   143  H    0.122410
   144  H    0.128614
   145  H    0.127998
   146  H    0.123376
   147  H    0.124853
   148  H    0.117664
   149  H    0.132645
   150  H    0.101902
 Sum of Mulliken charges =  -0.00000

 Dipole moment (field-independent basis, Debye):
    X=             -1.0233    Y=              0.0280    Z=             -3.5786  Tot=              3.7221
 Quadrupole moment (field-independent basis, Debye-Ang):
   XX=           -405.3249   YY=           -404.5558   ZZ=           -412.7540
   XY=              0.6312   XZ=              4.3065   YZ=              0.2922

 Normal termination of Gaussian 16 at Mon Oct 18 18:08:38 2021.
