 Gaussian 16, Revision C.01,
 Gaussian 16:  ES64L-G16RevC.01  3-Jul-2019

 ----------------------------------------------------------------------
 #P MP2/aug-cc-pVDZ SP SCF=(YQC,MaxCycle=900) int=(Grid=Superfinegrid)
 SCRF=(PCM,Solvent=Chloroform)
 ----------------------------------------------------------------------

 -----------------------------
 _3_alde1_5_ami2_2_opt_cfm_mp2
 -----------------------------
 Symbolic Z-matrix:
 Charge =  0 Multiplicity = 1

                         Standard orientation:
 ---------------------------------------------------------------------
 Center     Atomic      Atomic             Coordinates (Angstroms)
 Number     Number       Type             X           Y           Z
 ---------------------------------------------------------------------
      1          6           0       -3.722738    1.521424    1.575872
      2          6           0       -4.987054    1.895844    0.962304
      3          6           0       -2.617076    2.365433    1.537213
      4          6           0       -1.389969    1.949803    2.048639
      5          1           0       -2.709806    3.351715    1.113051
      6          6           0       -1.262833    0.658849    2.559139
      7          6           0       -2.361909   -0.193867    2.611021
      8          1           0       -0.302223    0.320106    2.924222
      9          6           0       -3.592503    0.256652    2.141320
     10          6           0       -2.218396   -1.569108    3.080281
     11          1           0       -4.434116   -0.414917    2.202749
     12          6           0       -0.255417    2.864180    2.057430
     13          1           0       -1.182546   -1.922585    3.149347
     14          1           0       -5.813256    1.185659    1.119205
     15          1           0        0.670626    2.491138    2.523185
     16          6           0        4.890111    0.604731    0.149066
     17          6           0        6.116295    0.663925    0.930860
     18          6           0        4.615994   -0.495842   -0.663184
     19          6           0        3.442554   -0.555491   -1.405648
     20          1           0        5.335342   -1.300129   -0.698883
     21          6           0        2.529422    0.498359   -1.330030
     22          6           0        2.798994    1.611128   -0.543033
     23          1           0        1.619675    0.432079   -1.907172
     24          6           0        3.982081    1.655475    0.195621
     25          6           0        1.880268    2.746646   -0.517900
     26          1           0        4.173767    2.530897    0.797177
     27          6           0        3.186449   -1.707411   -2.256794
     28          1           0        0.946534    2.610594   -1.076956
     29          1           0        6.255867    1.573885    1.535121
     30          1           0        3.993839   -2.455265   -2.299640
     31          6           0       -3.795963   -0.347203   -1.866223
     32          6           0       -4.370597    0.948353   -2.212222
     33          6           0       -4.384148   -1.139472   -0.883509
     34          6           0       -3.764496   -2.304700   -0.442588
     35          1           0       -5.312323   -0.802924   -0.448970
     36          6           0       -2.576039   -2.713169   -1.041445
     37          6           0       -1.992124   -1.951536   -2.048505
     38          1           0       -2.090687   -3.615552   -0.708511
     39          6           0       -2.594654   -0.757010   -2.437717
     40          6           0       -0.732241   -2.369133   -2.656076
     41          1           0       -2.124277   -0.142353   -3.193844
     42          6           0       -4.292492   -2.995368    0.723240
     43          1           0       -0.250461   -1.626889   -3.300066
     44          1           0       -5.248964   -2.611047    1.110565
     45          6           0       -6.076626    2.599446   -1.957909
     46          6           0       -6.332685    3.078071   -0.494740
     47          7           0       -5.514294    1.285013   -1.806241
     48          7           0       -5.120673    2.924209    0.242646
     49          6           0        9.392994   -0.250989    0.714235
     50          6           0        8.165080   -0.177060    1.670131
     51          7           0        9.345592   -1.423177   -0.141910
     52          7           0        6.959850   -0.274367    0.919351
     53          6           0        0.739858    4.928896    1.589762
     54          6           0        1.403254    4.984745    0.184282
     55          7           0       -0.360819    4.028226    1.583154
     56          7           0        2.207225    3.799269    0.092704
     57          6           0       -3.192257   -3.672726    3.665106
     58          6           0       -4.105111   -4.343705    2.592480
     59          7           0       -3.230269   -2.272485    3.338980
     60          7           0       -3.654622   -3.912451    1.310415
     61          6           0        1.875740   -2.995621   -3.690875
     62          6           0        0.971802   -4.017362   -2.935767
     63          7           0        2.113496   -1.829171   -2.911613
     64          7           0       -0.259994   -3.511145   -2.416141
     65          1           0        9.348601   -2.268634    0.418996
     66          1           0        8.482705   -1.413325   -0.675273
     67          1           0       -3.711095    1.594535   -2.804216
     68          6           0       10.670573   -0.315751    1.551837
     69          6           0        9.415436    0.987700   -0.183564
     70          6           0       -5.207727    3.633916   -2.678615
     71          6           0       -7.420959    2.440655   -2.675431
     72          1           0       -7.155358    2.479205   -0.074802
     73          1           0       -6.609102    4.133806   -0.509269
     74          1           0        2.805459   -3.522233   -3.959903
     75          1           0        1.363352   -2.686066   -4.606930
     76          6           0        1.730792   -4.594795   -1.734009
     77          6           0        0.611093   -5.152090   -3.904984
     78          1           0        1.517170    4.652891    2.319903
     79          1           0        0.347338    5.921379    1.824355
     80          1           0       -5.148663   -4.052724    2.790689
     81          1           0       -4.000564   -5.427956    2.664097
     82          6           0       -3.836421   -3.836593    5.045801
     83          6           0       -1.813516   -4.337924    3.637958
     84          6           0        2.387711    6.159869    0.149934
     85          6           0        0.333061    5.160934   -0.896999
     86          1           0       -4.291124    3.805966   -2.119659
     87          1           0       -5.751345    4.572208   -2.751044
     88          1           0       -4.965735    3.300779   -3.686404
     89          1           0       -8.000378    1.649020   -2.207939
     90          1           0       -7.253641    2.175305   -3.717026
     91          1           0       -7.984499    3.369213   -2.633401
     92          1           0       -1.141616   -3.865224    4.352137
     93          1           0       -1.389338   -4.273068    2.638942
     94          1           0       -1.913631   -5.386137    3.906884
     95          1           0       -4.016015   -4.887681    5.256486
     96          1           0       -4.779661   -3.298088    5.082293
     97          1           0       -3.178197   -3.429975    5.810446
     98          1           0        0.786658    5.090000   -1.884163
     99          1           0       -0.128478    6.138560   -0.790800
    100          1           0       -0.444147    4.407938   -0.797551
    101          1           0        1.870112    7.099610    0.322009
    102          1           0        2.876292    6.198260   -0.820731
    103          1           0        3.149946    6.026496    0.912674
    104          1           0       -0.017671   -5.875743   -3.393885
    105          1           0        1.510342   -5.648279   -4.260961
    106          1           0        0.061818   -4.759903   -4.758181
    107          1           0        2.016418   -3.796637   -1.051850
    108          1           0        2.623575   -5.121842   -2.062050
    109          1           0        1.083218   -5.285103   -1.201291
    110          1           0        9.530671    1.890641    0.410746
    111          1           0        8.490558    1.057930   -0.752225
    112          1           0       10.245084    0.912265   -0.880440
    113          1           0       10.661194   -1.190611    2.198910
    114          1           0       10.771054    0.572471    2.169951
    115          1           0       11.529717   -0.386546    0.890731
    116          1           0        8.220039    0.743000    2.276030
    117          1           0        8.201839   -1.044210    2.339138
 ---------------------------------------------------------------------

 SCF Done:  E(RHF) =  -2359.40906329     a.u. after    7 cycles
 SCF Done:  E(RHF) =  -2359.40911554     A.U. after   29 cycles
 E2 =    -0.8341686449D+01 EUMP2 =    -0.23677508019842D+04

 The electronic state is 1-A.
 Alpha  occ. eigenvalues --  -15.56451 -15.56312 -15.55940 -15.55907 -15.55736
 Alpha  occ. eigenvalues --  -15.55697 -15.55630 -15.55577 -15.55382 -15.54050
 Alpha  occ. eigenvalues --  -11.29006 -11.28981 -11.28752 -11.28720 -11.28421
 Alpha  occ. eigenvalues --  -11.28404 -11.28319 -11.28273 -11.27944 -11.26796
 Alpha  occ. eigenvalues --  -11.26794 -11.26765 -11.26742 -11.26254 -11.25621
 Alpha  occ. eigenvalues --  -11.25540 -11.25536 -11.25501 -11.25416 -11.25406
 Alpha  occ. eigenvalues --  -11.25368 -11.25313 -11.25270 -11.25210 -11.25182
 Alpha  occ. eigenvalues --  -11.25137 -11.25121 -11.25055 -11.24971 -11.24949
 Alpha  occ. eigenvalues --  -11.24874 -11.24812 -11.24775 -11.24700 -11.24657
 Alpha  occ. eigenvalues --  -11.24618 -11.24360 -11.21658 -11.21635 -11.21623
 Alpha  occ. eigenvalues --  -11.21450 -11.21439 -11.21412 -11.21337 -11.21311
 Alpha  occ. eigenvalues --  -11.21294 -11.21113  -1.26584  -1.26417  -1.26339
 Alpha  occ. eigenvalues --   -1.26289  -1.25522  -1.23737  -1.23660  -1.23110
 Alpha  occ. eigenvalues --   -1.22774  -1.19309  -1.17581  -1.17078  -1.16596
 Alpha  occ. eigenvalues --   -1.09328  -1.09004  -1.08867  -1.07164  -1.06109
 Alpha  occ. eigenvalues --   -1.05686  -1.04926  -1.03581  -1.03009  -1.02408
 Alpha  occ. eigenvalues --   -1.02173  -0.95612  -0.94982  -0.94800  -0.94504
 Alpha  occ. eigenvalues --   -0.94465  -0.93980  -0.93940  -0.93923  -0.93639
 Alpha  occ. eigenvalues --   -0.93538  -0.90085  -0.89712  -0.89454  -0.87967
 Alpha  occ. eigenvalues --   -0.86850  -0.86185  -0.85542  -0.84425  -0.83704
 Alpha  occ. eigenvalues --   -0.80244  -0.79468  -0.77654  -0.76647  -0.75947
 Alpha  occ. eigenvalues --   -0.75791  -0.75020  -0.74332  -0.72925  -0.72801
 Alpha  occ. eigenvalues --   -0.72296  -0.71170  -0.70360  -0.69862  -0.69055
 Alpha  occ. eigenvalues --   -0.68192  -0.67575  -0.67187  -0.66612  -0.66244
 Alpha  occ. eigenvalues --   -0.66085  -0.65867  -0.65526  -0.64980  -0.64535
 Alpha  occ. eigenvalues --   -0.64292  -0.63935  -0.63147  -0.63031  -0.62662
 Alpha  occ. eigenvalues --   -0.62517  -0.62392  -0.62184  -0.61754  -0.61689
 Alpha  occ. eigenvalues --   -0.61066  -0.60431  -0.60249  -0.59939  -0.59794
 Alpha  occ. eigenvalues --   -0.59657  -0.59089  -0.57735  -0.56741  -0.56268
 Alpha  occ. eigenvalues --   -0.56065  -0.55860  -0.55318  -0.55100  -0.55049
 Alpha  occ. eigenvalues --   -0.55008  -0.54577  -0.54331  -0.53860  -0.53573
 Alpha  occ. eigenvalues --   -0.53498  -0.53448  -0.53416  -0.53262  -0.53192
 Alpha  occ. eigenvalues --   -0.53028  -0.52868  -0.52712  -0.52431  -0.51950
 Alpha  occ. eigenvalues --   -0.51720  -0.51504  -0.51069  -0.51003  -0.50881
 Alpha  occ. eigenvalues --   -0.50392  -0.50033  -0.49630  -0.49507  -0.49449
 Alpha  occ. eigenvalues --   -0.48906  -0.48632  -0.48256  -0.48214  -0.47742
 Alpha  occ. eigenvalues --   -0.46869  -0.46202  -0.45599  -0.44959  -0.44735
 Alpha  occ. eigenvalues --   -0.44319  -0.43935  -0.41894  -0.41020  -0.40858
 Alpha  occ. eigenvalues --   -0.40536  -0.40212  -0.40054  -0.39651  -0.39511
 Alpha  occ. eigenvalues --   -0.39456  -0.39160  -0.39028  -0.38608  -0.37683
 Alpha  occ. eigenvalues --   -0.33040  -0.32531  -0.32396  -0.32345  -0.31682
 Alpha  occ. eigenvalues --   -0.31381
 Alpha virt. eigenvalues --    0.03145   0.03400   0.03484   0.03581   0.03977
 Alpha virt. eigenvalues --    0.04088   0.04306   0.04317   0.04462   0.04616
 Alpha virt. eigenvalues --    0.04882   0.05141   0.05249   0.05311   0.05437

 Mulliken charges:
               1
     1  C    1.574695
     2  C    0.500319
     3  C   -0.542487
     4  C    1.392553
     5  H   -1.087239
     6  C    0.614085
     7  C    0.481445
     8  H   -0.800459
     9  C    0.621816
    10  C    0.384147
    11  H   -1.077377
    12  C    0.845876
    13  H   -0.975030
    14  H   -0.654408
    15  H   -0.724076
    16  C    1.029381
    17  C    0.655922
    18  C   -0.135828
    19  C    0.807763
    20  H   -0.925607
    21  C    0.110951
    22  C    0.942493
    23  H   -0.785912
    24  C    0.219364
    25  C    0.623369
    26  H   -0.966228
    27  C    0.676479
    28  H   -0.907959
    29  H   -0.685804
    30  H   -0.661924
    31  C    0.821871
    32  C    0.087694
    33  C    0.323561
    34  C    1.570272
    35  H   -1.059999
    36  C    0.113199
    37  C    0.708649
    38  H   -1.093631
    39  C    1.073821
    40  C    0.502414
    41  H   -0.727699
    42  C    0.476911
    43  H   -1.040580
    44  H   -0.619358
    45  C   -3.290785
    46  C    1.211686
    47  N   -0.016860
    48  N   -0.634214
    49  C   -3.639481
    50  C    1.666458
    51  N   -0.066860
    52  N   -0.489969
    53  C    1.423990
    54  C   -3.637720
    55  N   -0.527544
    56  N   -0.209396
    57  C   -3.276144
    58  C    1.275603
    59  N    0.041388
    60  N   -0.596990
    61  C    1.895585
    62  C   -3.826105
    63  N   -0.487904
    64  N    0.167721
    65  H   -0.001455
    66  H    0.022150
    67  H   -0.980536
    68  C    1.444443
    69  C    1.454064
    70  C    1.491833
    71  C    1.545249
    72  H   -0.145619
    73  H   -0.289529
    74  H   -0.216612
    75  H   -0.148794
    76  C    1.366957
    77  C    1.543581
    78  H   -0.153080
    79  H   -0.250849
    80  H   -0.143113
    81  H   -0.276332
    82  C    1.517053
    83  C    1.532700
    84  C    1.696661
    85  C    1.555297
    86  H    0.043273
    87  H   -0.175513
    88  H    0.044391
    89  H   -0.067724
    90  H   -0.054669
    91  H    0.009555
    92  H    0.053151
    93  H    0.055291
    94  H   -0.177660
    95  H    0.011749
    96  H   -0.069483
    97  H   -0.056435
    98  H    0.032465
    99  H   -0.153686
   100  H    0.097162
   101  H   -0.070366
   102  H   -0.030088
   103  H   -0.011807
   104  H   -0.009898
   105  H   -0.004074
   106  H   -0.090326
   107  H   -0.050509
   108  H   -0.016575
   109  H   -0.077604
   110  H   -0.005783
   111  H   -0.012756
   112  H   -0.036743
   113  H   -0.048912
   114  H    0.006820
   115  H    0.040725
   116  H   -0.147378
   117  H   -0.260566
 Sum of Mulliken charges =   0.00000

 Dipole moment (field-independent basis, Debye):
    X=              1.3334    Y=              0.6801    Z=              0.6987  Tot=              1.6518
 Quadrupole moment (field-independent basis, Debye-Ang):
   XX=           -358.7421   YY=           -347.5276   ZZ=           -333.1589
   XY=             -1.2015   XZ=             16.4180   YZ=             -9.3721

 Normal termination of Gaussian 16 at Sat Nov  6 00:55:30 2021.
