 Gaussian 16, Revision C.01,
 Gaussian 16:  ES64L-G16RevC.01  3-Jul-2019

 ----------------------------------------------------------------------
 #P PBE1PBE/Def2TZVP SP SCF=(YQC,MaxCycle=900) int=(Grid=Superfinegrid)
  EmpiricalDispersion=GD3 SCRF=(PCM,Solvent=Chloroform)
 ----------------------------------------------------------------------

 -------------------------
 _3_alde1_6_ami3_1_opt_cfm
 -------------------------
 Symbolic Z-matrix:
 Charge =  0 Multiplicity = 1

                         Standard orientation:
 ---------------------------------------------------------------------
 Center     Atomic      Atomic             Coordinates (Angstroms)
 Number     Number       Type             X           Y           Z
 ---------------------------------------------------------------------
      1          6           0        3.588087   -2.685244    0.002047
      2          6           0        3.972831   -3.523376   -1.190134
      3          6           0        2.428371   -2.945078    0.716497
      4          6           0        2.086416   -2.165321    1.820017
      5          1           0        1.817867   -3.786433    0.426304
      6          6           0        2.891501   -1.082684    2.165012
      7          6           0        4.056726   -0.814300    1.457388
      8          1           0        2.608059   -0.484035    3.016989
      9          6           0        4.405898   -1.632917    0.383581
     10          6           0        4.893105    0.311883    1.845786
     11          1           0        5.323947   -1.433234   -0.145777
     12          6           0        0.953895   -2.533647    2.658187
     13          1           0        4.388982    1.084959    2.447804
     14          1           0        0.320422   -3.354994    2.287681
     15          6           0       -4.388567   -0.398632    0.413754
     16          6           0       -5.467296   -1.398663    0.061936
     17          6           0       -4.214033    0.766062   -0.320838
     18          6           0       -3.265921    1.712360    0.063719
     19          1           0       -4.837817    0.937613   -1.185470
     20          6           0       -2.469691    1.473224    1.179748
     21          6           0       -2.614168    0.294452    1.903329
     22          1           0       -1.740504    2.216693    1.463539
     23          6           0       -3.579421   -0.635251    1.513535
     24          6           0       -1.800044    0.039488    3.083911
     25          1           0       -3.689139   -1.537576    2.094467
     26          6           0       -3.129861    2.945355   -0.701531
     27          1           0       -1.060281    0.812072    3.341960
     28          1           0       -3.459529    2.891011   -1.751815
     29          6           0        1.826177    1.053652   -2.304091
     30          6           0        1.238391   -0.107918   -3.065643
     31          6           0        3.150666    0.981571   -1.893090
     32          6           0        3.709577    1.998837   -1.122788
     33          1           0        3.747096    0.121324   -2.162968
     34          6           0        2.921357    3.083472   -0.745380
     35          6           0        1.602298    3.171388   -1.171516
     36          1           0        3.365424    3.854495   -0.134300
     37          6           0        1.061544    2.153988   -1.959520
     38          6           0        0.765325    4.291011   -0.763058
     39          1           0        0.038923    2.233505   -2.290066
     40          6           0        5.094070    1.883213   -0.701053
     41          1           0        1.088246    4.821706    0.147586
     42          1           0        5.626058    1.003750   -1.092510
     43          6           0        2.516683   -4.751366   -2.543970
     44          6           0        3.409816   -3.824231   -3.385683
     45          7           0        3.200788   -4.789775   -1.256585
     46          1           0        1.558224   -4.238406   -2.378571
     47          6           0        2.264507   -6.055893   -3.272213
     48          7           0        3.754347   -2.776407   -2.436424
     49          1           0        4.343650   -4.355386   -3.625845
     50          6           0        2.715874   -3.438056   -4.674847
     51          6           0        1.580572   -5.713690   -4.599753
     52          6           0        2.402044   -4.729304   -5.437494
     53          6           0       -7.470216   -0.439449   -0.551377
     54          6           0       -7.727261   -1.376028    0.641518
     55          7           0       -6.235007   -0.967061   -1.114420
     56          1           0       -7.236762    0.562651   -0.163733
     57          6           0       -8.695771   -0.359612   -1.437205
     58          7           0       -6.399058   -1.571739    1.204092
     59          1           0       -8.054808   -2.353398    0.254263
     60          6           0       -8.815423   -0.808093    1.529679
     61          6           0       -9.846108    0.177299   -0.578957
     62          6           0      -10.080104   -0.669720    0.675626
     63          6           0       -1.041633   -0.564558   -2.928896
     64          6           0       -0.243379   -1.802682   -2.488064
     65          7           0       -0.062225    0.217198   -3.670139
     66          1           0       -1.315282    0.014156   -2.034310
     67          6           0       -2.301015   -0.998519   -3.651118
     68          7           0        1.064115   -1.260680   -2.145595
     69          1           0       -0.094938   -2.447008   -3.369477
     70          6           0       -1.016743   -2.577447   -1.442222
     71          6           0       -3.121282   -1.852947   -2.679984
     72          6           0       -2.326047   -3.026754   -2.099992
     73          6           0       -0.258311   -2.431857    4.665073
     74          6           0       -1.205187   -1.247723    4.953159
     75          7           0        0.768162   -1.984709    3.777985
     76          1           0       -0.856518   -3.256345    4.236929
     77          6           0        0.430586   -2.891364    5.955359
     78          7           0       -1.970550   -1.001763    3.773119
     79          1           0       -0.584032   -0.380915    5.240871
     80          6           0       -2.187286   -1.602011    6.073564
     81          6           0       -0.578561   -3.246330    7.038866
     82          6           0       -1.465079   -2.043666    7.339049
     83          6           0        6.825727    1.595844    1.849218
     84          6           0        6.973345    2.410128    0.532955
     85          7           0        6.111988    0.401846    1.530435
     86          1           0        6.271817    2.225529    2.569666
     87          6           0        8.212276    1.264752    2.396400
     88          7           0        5.655526    2.713908    0.069080
     89          1           0        7.518753    1.769506   -0.181569
     90          6           0        7.759641    3.688131    0.807013
     91          6           0        9.008976    2.539129    2.653145
     92          6           0        9.136656    3.361266    1.374127
     93          6           0       -2.564322    5.180569   -0.998190
     94          6           0       -1.106611    5.669785   -0.920760
     95          7           0       -2.688243    4.007772   -0.188628
     96          1           0       -2.798626    4.965113   -2.056735
     97          6           0       -3.495902    6.280007   -0.483401
     98          7           0       -0.269956    4.615317   -1.402896
     99          1           0       -0.873018    5.925240    0.128636
    100          6           0       -0.948760    6.921135   -1.788569
    101          6           0       -3.334984    7.544386   -1.320497
    102          6           0       -1.885905    8.022483   -1.304562
    103          1           0       -6.448832   -1.767102   -1.702117
    104          1           0       -4.997419   -2.370888   -0.141599
    105          1           0       -6.209360   -0.862839    1.907345
    106          1           0        1.055148   -0.928005   -1.183372
    107          1           0       -0.073052   -0.049385   -4.648862
    108          1           0        1.948882   -0.409587   -3.849146
    109          1           0        2.936593   -2.173413   -2.315392
    110          1           0        3.829725   -5.584541   -1.214666
    111          1           0        5.049245   -3.748565   -1.125264
    112          1           0       -0.049967   -3.560724    7.941120
    113          1           0       -1.198691   -4.080565    6.703248
    114          1           0       -2.196676   -2.296702    8.109119
    115          1           0       -0.849678   -1.223281    7.715545
    116          1           0        1.062900   -3.751267    5.723766
    117          1           0        1.079037   -2.083096    6.298326
    118          1           0       -2.814229   -0.730821    6.275181
    119          1           0       -2.834838   -2.403331    5.713212
    120          1           0        0.602900   -5.274466   -4.386669
    121          1           0        1.416568   -6.627018   -5.175340
    122          1           0        3.342044   -5.205364   -5.726548
    123          1           0        1.855665   -4.492890   -6.353067
    124          1           0        1.794910   -2.900351   -4.445421
    125          1           0        3.351716   -2.787269   -5.277400
    126          1           0        1.630001   -6.718382   -2.680203
    127          1           0        3.211855   -6.568412   -3.459811
    128          1           0        9.680509    4.285886    1.578043
    129          1           0        9.706301    2.793415    0.634668
    130          1           0        7.855006    4.250510   -0.123889
    131          1           0        7.194814    4.300280    1.511933
    132          1           0       10.000303    2.282285    3.032167
    133          1           0        8.502009    3.134352    3.416391
    134          1           0        8.100101    0.694042    3.320652
    135          1           0        8.729561    0.632692    1.672737
    136          1           0        0.089611    7.256845   -1.742565
    137          1           0       -1.171709    6.659687   -2.824460
    138          1           0       -1.777611    8.902978   -1.941315
    139          1           0       -1.611149    8.308940   -0.286616
    140          1           0       -3.989474    8.327897   -0.932637
    141          1           0       -3.635030    7.335896   -2.350177
    142          1           0       -4.527628    5.923901   -0.527171
    143          1           0       -3.254734    6.482498    0.561580
    144          1           0      -10.763236    0.204306   -1.170345
    145          1           0       -9.612470    1.201818   -0.280020
    146          1           0      -10.876236   -0.217874    1.270121
    147          1           0      -10.413135   -1.666638    0.377191
    148          1           0       -8.509500    0.169326    1.911468
    149          1           0       -9.004067   -1.463789    2.381101
    150          1           0       -8.943654   -1.352968   -1.819764
    151          1           0       -8.519302    0.299518   -2.288771
    152          1           0       -1.224639   -1.937990   -0.580163
    153          1           0       -0.449660   -3.444005   -1.096847
    154          1           0       -4.006096   -2.236755   -3.191386
    155          1           0       -3.460602   -1.215418   -1.863754
    156          1           0       -2.943096   -3.547400   -1.365369
    157          1           0       -2.092591   -3.735746   -2.899094
    158          1           0       -2.036707   -1.578771   -4.539958
    159          1           0       -2.884041   -0.133610   -3.970261
 ---------------------------------------------------------------------

 SCF Done:  E(RPBE1PBE) =  -3105.87912806     a.u. after    7 cycles
 SCF Done:  E(RPBE1PBE) =  -3105.87914028     A.U. after    8 cycles

 The electronic state is 1-A.
 Alpha  occ. eigenvalues --  -14.37690 -14.37468 -14.37339 -14.37311 -14.37308
 Alpha  occ. eigenvalues --  -14.37264 -14.37258 -14.36995 -14.36994 -14.36857
 Alpha  occ. eigenvalues --  -14.36373 -14.35792 -10.28073 -10.27999 -10.27286
 Alpha  occ. eigenvalues --  -10.26257 -10.26257 -10.26236 -10.26225 -10.26126
 Alpha  occ. eigenvalues --  -10.25980 -10.24883 -10.24879 -10.24797 -10.24745
 Alpha  occ. eigenvalues --  -10.24725 -10.24662 -10.24425 -10.24251 -10.24175
 Alpha  occ. eigenvalues --  -10.24155 -10.23817 -10.23810 -10.23712 -10.23709
 Alpha  occ. eigenvalues --  -10.23657 -10.23585 -10.23582 -10.23576 -10.23533
 Alpha  occ. eigenvalues --  -10.23410 -10.23213 -10.23163 -10.23046 -10.23013
 Alpha  occ. eigenvalues --  -10.22939 -10.22810 -10.22783 -10.22729 -10.22704
 Alpha  occ. eigenvalues --  -10.22508 -10.21796 -10.21745 -10.21713 -10.21703
 Alpha  occ. eigenvalues --  -10.21672 -10.21670 -10.21649 -10.21615 -10.21564
 Alpha  occ. eigenvalues --  -10.21551 -10.21439 -10.21397 -10.21393 -10.21332
 Alpha  occ. eigenvalues --  -10.21308 -10.21277 -10.21247 -10.21206 -10.21187
 Alpha  occ. eigenvalues --  -10.21152 -10.21151 -10.21122 -10.21107 -10.21044
 Alpha  occ. eigenvalues --   -0.99408  -0.99335  -0.98556  -0.97629  -0.97295
 Alpha  occ. eigenvalues --   -0.97238  -0.95015  -0.94884  -0.94350  -0.89856
 Alpha  occ. eigenvalues --   -0.89464  -0.89260  -0.88428  -0.88197  -0.87269
 Alpha  occ. eigenvalues --   -0.85608  -0.85578  -0.85450  -0.85175  -0.85047
 Alpha  occ. eigenvalues --   -0.84733  -0.80470  -0.80421  -0.80244  -0.80149
 Alpha  occ. eigenvalues --   -0.79982  -0.79914  -0.76466  -0.76435  -0.76191
 Alpha  occ. eigenvalues --   -0.76163  -0.76091  -0.75904  -0.75802  -0.75199
 Alpha  occ. eigenvalues --   -0.75032  -0.74294  -0.74227  -0.73859  -0.68050
 Alpha  occ. eigenvalues --   -0.67970  -0.67892  -0.66972  -0.66803  -0.66459
 Alpha  occ. eigenvalues --   -0.66010  -0.65803  -0.65270  -0.62925  -0.62764
 Alpha  occ. eigenvalues --   -0.62606  -0.62500  -0.62346  -0.62153  -0.62124
 Alpha  occ. eigenvalues --   -0.61933  -0.61747  -0.61555  -0.61053  -0.60970
 Alpha  occ. eigenvalues --   -0.59410  -0.59168  -0.58865  -0.58134  -0.58076
 Alpha  occ. eigenvalues --   -0.57950  -0.57474  -0.57296  -0.56776  -0.55845
 Alpha  occ. eigenvalues --   -0.55605  -0.55530  -0.53570  -0.52943  -0.52870
 Alpha  occ. eigenvalues --   -0.52626  -0.52407  -0.52211  -0.51426  -0.51280
 Alpha  occ. eigenvalues --   -0.50947  -0.50651  -0.50347  -0.50077  -0.49907
 Alpha  occ. eigenvalues --   -0.49655  -0.49332  -0.48418  -0.48176  -0.48111
 Alpha  occ. eigenvalues --   -0.48023  -0.47887  -0.47600  -0.47508  -0.47374
 Alpha  occ. eigenvalues --   -0.47089  -0.47050  -0.47015  -0.46910  -0.46712
 Alpha  occ. eigenvalues --   -0.46072  -0.45887  -0.45725  -0.45361  -0.45189
 Alpha  occ. eigenvalues --   -0.44775  -0.44670  -0.44478  -0.44336  -0.44203
 Alpha  occ. eigenvalues --   -0.44054  -0.43844  -0.43640  -0.43488  -0.43371
 Alpha  occ. eigenvalues --   -0.43101  -0.42950  -0.41995  -0.41907  -0.41703
 Alpha  occ. eigenvalues --   -0.41481  -0.41418  -0.41335  -0.41060  -0.41018
 Alpha  occ. eigenvalues --   -0.40875  -0.40566  -0.40388  -0.40256  -0.39933
 Alpha  occ. eigenvalues --   -0.39884  -0.39799  -0.39616  -0.39428  -0.39297
 Alpha  occ. eigenvalues --   -0.37966  -0.37898  -0.37626  -0.37580  -0.37443
 Alpha  occ. eigenvalues --   -0.37161  -0.37080  -0.36936  -0.36726  -0.36596
 Alpha  occ. eigenvalues --   -0.36269  -0.36183  -0.36103  -0.35987  -0.35970
 Alpha  occ. eigenvalues --   -0.35846  -0.35721  -0.35593  -0.35470  -0.35434
 Alpha  occ. eigenvalues --   -0.35279  -0.35074  -0.34975  -0.34675  -0.34249
 Alpha  occ. eigenvalues --   -0.34013  -0.33882  -0.33815  -0.33716  -0.33574
 Alpha  occ. eigenvalues --   -0.33376  -0.33310  -0.33156  -0.33109  -0.32907
 Alpha  occ. eigenvalues --   -0.32851  -0.32480  -0.32361  -0.32216  -0.31867
 Alpha  occ. eigenvalues --   -0.31732  -0.31592  -0.30511  -0.30406  -0.29907
 Alpha  occ. eigenvalues --   -0.27295  -0.27184  -0.27090  -0.27028  -0.26799
 Alpha  occ. eigenvalues --   -0.26531  -0.26513  -0.26344  -0.25953  -0.25451
 Alpha  occ. eigenvalues --   -0.25383  -0.25163  -0.25047  -0.24762  -0.24373
 Alpha  occ. eigenvalues --   -0.24278  -0.24010  -0.23437
 Alpha virt. eigenvalues --   -0.05674  -0.05288  -0.05194  -0.03983  -0.03869
 Alpha virt. eigenvalues --   -0.03700   0.01520   0.02011   0.02195   0.02928
 Alpha virt. eigenvalues --    0.03468   0.04212   0.04423   0.04477   0.04651

 Mulliken charges:
               1
     1  C    0.291466
     2  C   -0.007824
     3  C   -0.377010
     4  C    0.380960
     5  H    0.129648
     6  C   -0.361161
     7  C    0.408173
     8  H    0.117593
     9  C   -0.477953
    10  C   -0.179975
    11  H    0.121563
    12  C   -0.174401
    13  H    0.084724
    14  H    0.088814
    15  C    0.107964
    16  C    0.091552
    17  C   -0.355444
    18  C    0.412883
    19  H    0.142743
    20  C   -0.393881
    21  C    0.418530
    22  H    0.124500
    23  C   -0.418799
    24  C   -0.193094
    25  H    0.122956
    26  C   -0.191076
    27  H    0.094350
    28  H    0.086983
    29  C    0.119980
    30  C    0.072573
    31  C   -0.313393
    32  C    0.329880
    33  H    0.130972
    34  C   -0.404039
    35  C    0.393557
    36  H    0.116959
    37  C   -0.346426
    38  C   -0.193618
    39  H    0.150425
    40  C   -0.165028
    41  H    0.084784
    42  H    0.097097
    43  C   -0.076333
    44  C   -0.000673
    45  N   -0.282610
    46  H    0.037803
    47  C   -0.150201
    48  N   -0.286829
    49  H    0.056746
    50  C   -0.167166
    51  C   -0.192541
    52  C   -0.192113
    53  C   -0.059502
    54  C   -0.097504
    55  N   -0.294645
    56  H    0.070768
    57  C   -0.149131
    58  N   -0.271671
    59  H    0.063231
    60  C   -0.171920
    61  C   -0.198584
    62  C   -0.197222
    63  C   -0.079012
    64  C   -0.077032
    65  N   -0.247390
    66  H    0.069338
    67  C   -0.153279
    68  N   -0.330665
    69  H    0.046405
    70  C   -0.190545
    71  C   -0.111024
    72  C   -0.209933
    73  C    0.042259
    74  C    0.036332
    75  N   -0.199127
    76  H    0.051351
    77  C   -0.200447
    78  N   -0.193885
    79  H    0.054553
    80  C   -0.192533
    81  C   -0.172057
    82  C   -0.177201
    83  C    0.046906
    84  C    0.004898
    85  N   -0.191961
    86  H    0.054722
    87  C   -0.174630
    88  N   -0.201848
    89  H    0.065721
    90  C   -0.162360
    91  C   -0.186087
    92  C   -0.189158
    93  C    0.076791
    94  C    0.021607
    95  N   -0.197301
    96  H    0.046842
    97  C   -0.188115
    98  N   -0.188998
    99  H    0.051893
   100  C   -0.198811
   101  C   -0.184301
   102  C   -0.176879
   103  H    0.202578
   104  H    0.104700
   105  H    0.211570
   106  H    0.225444
   107  H    0.201973
   108  H    0.111619
   109  H    0.169617
   110  H    0.203004
   111  H    0.088932
   112  H    0.111858
   113  H    0.090970
   114  H    0.111630
   115  H    0.091263
   116  H    0.112482
   117  H    0.102024
   118  H    0.109835
   119  H    0.102758
   120  H    0.095735
   121  H    0.113922
   122  H    0.099877
   123  H    0.112835
   124  H    0.091897
   125  H    0.102834
   126  H    0.108332
   127  H    0.093272
   128  H    0.111260
   129  H    0.092757
   130  H    0.107276
   131  H    0.099193
   132  H    0.111874
   133  H    0.092185
   134  H    0.109012
   135  H    0.102312
   136  H    0.112424
   137  H    0.104718
   138  H    0.112109
   139  H    0.092507
   140  H    0.111745
   141  H    0.092674
   142  H    0.109467
   143  H    0.101880
   144  H    0.115490
   145  H    0.100121
   146  H    0.115272
   147  H    0.099235
   148  H    0.099834
   149  H    0.111509
   150  H    0.097392
   151  H    0.108251
   152  H    0.116878
   153  H    0.116566
   154  H    0.094394
   155  H    0.066951
   156  H    0.115573
   157  H    0.101704
   158  H    0.095066
   159  H    0.107963
 Sum of Mulliken charges =   0.00000

 Dipole moment (field-independent basis, Debye):
    X=             -5.3253    Y=             -2.5006    Z=             -2.3557  Tot=              6.3373
 Quadrupole moment (field-independent basis, Debye-Ang):
   XX=           -417.4663   YY=           -428.2808   ZZ=           -432.8919
   XY=             -2.6359   XZ=              9.4899   YZ=             20.9665

 Normal termination of Gaussian 16 at Mon Oct 18 11:15:22 2021.
