 Gaussian 16, Revision C.01,
 Gaussian 16:  ES64L-G16RevC.01  3-Jul-2019

 ----------------------------------------------------------------------
 #P PBE1PBE/Def2TZVP SP SCF=(YQC,MaxCycle=900) int=(Grid=Superfinegrid)
  EmpiricalDispersion=GD3
 ----------------------------------------------------------------------

 -------------------------
 _3_alde1_5_ami2_1_opt_gas
 -------------------------
 Symbolic Z-matrix:
 Charge =  0 Multiplicity = 1

                         Standard orientation:
 ---------------------------------------------------------------------
 Center     Atomic      Atomic             Coordinates (Angstroms)
 Number     Number       Type             X           Y           Z
 ---------------------------------------------------------------------
      1          6           0       -2.530528    2.457952   -0.535201
      2          6           0       -2.797442    3.357366    0.577289
      3          6           0       -3.255749    1.283195   -0.717855
      4          6           0       -2.922710    0.400773   -1.741886
      5          1           0       -4.080437    1.054732   -0.063154
      6          6           0       -1.829613    0.681240   -2.560025
      7          6           0       -1.100926    1.854913   -2.394886
      8          1           0       -1.555404   -0.018461   -3.337566
      9          6           0       -1.476456    2.748955   -1.395986
     10          6           0        0.081089    2.111986   -3.210617
     11          1           0       -0.906995    3.658632   -1.289898
     12          6           0       -3.680319   -0.822158   -1.961169
     13          1           0        0.441697    1.243130   -3.775095
     14          1           0       -2.270409    4.323092    0.537118
     15          1           0       -3.259448   -1.512653   -2.708252
     16          6           0        0.529899   -3.552440   -0.954428
     17          6           0        1.171023   -3.836214   -2.299134
     18          6           0        1.315164   -3.430603    0.179955
     19          6           0        0.738495   -3.121113    1.411340
     20          1           0        2.383635   -3.556074    0.117999
     21          6           0       -0.638478   -2.939462    1.491775
     22          6           0       -1.440949   -3.111373    0.368467
     23          1           0       -1.091946   -2.686337    2.440918
     24          6           0       -0.846210   -3.418229   -0.854126
     25          6           0       -2.887190   -2.960002    0.483813
     26          1           0       -1.469250   -3.531190   -1.726203
     27          6           0        1.564333   -2.965907    2.597443
     28          1           0       -3.222039   -2.436397    1.388039
     29          1           0        1.046729   -2.587242    3.493890
     30          6           0        0.613619    2.115977    2.388900
     31          6           0       -0.596176    2.231322    3.197408
     32          6           0        0.824927    2.979178    1.315549
     33          6           0        1.898985    2.794924    0.452486
     34          1           0        0.113329    3.773713    1.156574
     35          6           0        2.795810    1.754831    0.692914
     36          6           0        2.633334    0.923561    1.795099
     37          1           0        3.623139    1.620141    0.013315
     38          6           0        1.530468    1.099461    2.629790
     39          6           0        3.596863   -0.141960    2.053916
     40          1           0        1.409161    0.425052    3.463790
     41          6           0        2.029709    3.657326   -0.711106
     42          1           0        4.253063   -0.380289    1.209650
     43          1           0        1.369259    4.537393   -0.718167
     44          6           0       -2.615332    3.375293    3.770776
     45          6           0       -3.578723    3.921139    2.675771
     46          7           0       -1.349902    3.235246    3.100758
     47          7           0       -3.534551    3.042173    1.551639
     48          1           0       -3.259019    4.942417    2.416955
     49          6           0        2.468653   -1.948244   -2.839884
     50          6           0        0.978214   -1.791833   -3.277235
     51          7           0        2.538575   -3.322005   -2.324969
     52          7           0        0.428190   -3.135467   -3.344791
     53          6           0       -5.402034   -2.321757   -1.564268
     54          6           0       -5.090275   -3.269013   -0.370731
     55          7           0       -4.755860   -1.069177   -1.349710
     56          1           0       -6.480040   -2.150035   -1.602577
     57          7           0       -3.662078   -3.426730   -0.392369
     58          6           0       -5.687592   -4.649711   -0.663180
     59          6           0        1.859881    3.551903   -3.902596
     60          6           0        2.744645    4.246530   -2.825398
     61          7           0        0.634437    3.242741   -3.217675
     62          6           0        2.623864    2.364628   -4.496041
     63          7           0        2.814171    3.409001   -1.669251
     64          1           0        2.298383    5.226491   -2.598039
     65          6           0        3.566532   -2.996657    3.774862
     66          6           0        4.520882   -1.802818    3.494299
     67          7           0        2.792688   -3.252266    2.605741
     68          1           0        2.942231   -2.749331    4.648666
     69          7           0        3.645485   -0.707297    3.178023
     70          1           0       -0.792350    1.369183    3.846684
     71          1           0        0.638695   -3.551154   -4.248684
     72          1           0        1.155401   -4.918528   -2.471867
     73          1           0        3.134752   -3.896062   -2.909574
     74          1           0       -4.596702    3.938996    3.069485
     75          1           0       -5.066002   -2.814854   -2.489464
     76          6           0       -5.699818   -2.687917    0.908794
     77          6           0        1.523656    4.566149   -5.001977
     78          1           0        3.752747    4.381208   -3.222326
     79          1           0        4.168741   -3.882501    3.990561
     80          6           0        5.530308   -2.206086    2.415901
     81          6           0        5.247581   -1.427193    4.790212
     82          1           0        6.158641   -1.359938    2.143333
     83          1           0        5.010313   -2.576208    1.536050
     84          1           0        6.167512   -2.998467    2.799328
     85          6           0       -2.444015    4.439389    4.861036
     86          6           0       -3.202902    2.093414    4.368033
     87          1           0       -1.974312    5.327357    4.445983
     88          1           0       -1.809436    4.054316    5.656433
     89          1           0       -3.410673    4.709171    5.278530
     90          1           0        0.919762    5.371774   -4.592981
     91          1           0        0.957113    4.079091   -5.792762
     92          1           0        2.435295    4.981406   -5.423834
     93          1           0       -6.783472   -2.704162    0.828943
     94          1           0       -5.380788   -1.657961    1.046240
     95          1           0       -5.408027   -3.281251    1.773696
     96          1           0       -4.181123    2.306462    4.790591
     97          1           0       -2.567565    1.705058    5.161691
     98          1           0       -3.314832    1.342893    3.589125
     99          1           0        2.895562    1.669219   -3.705363
    100          1           0        3.532867    2.721915   -4.973019
    101          1           0        2.024559    1.851203   -5.245970
    102          1           0        5.955759   -0.625050    4.595150
    103          1           0        5.785052   -2.284624    5.187147
    104          1           0        4.531021   -1.080287    5.529784
    105          1           0       -6.755413   -4.571855   -0.851257
    106          1           0       -5.525460   -5.307126    0.187918
    107          1           0       -5.201138   -5.085846   -1.531277
    108          1           0        0.876016   -1.277876   -4.232410
    109          1           0        0.428860   -1.242657   -2.507776
    110          6           0        2.820307   -0.963585   -1.723793
    111          1           0        2.664037    0.061674   -2.052037
    112          1           0        3.862073   -1.089333   -1.439334
    113          1           0        2.198562   -1.147567   -0.851606
    114          6           0        3.416370   -1.761432   -4.025484
    115          1           0        3.144946   -2.423691   -4.848044
    116          1           0        4.439023   -1.983016   -3.726045
    117          1           0        3.379225   -0.735419   -4.383700
 ---------------------------------------------------------------------

 SCF Done:  E(RPBE1PBE) =  -2372.69429585     a.u. after    6 cycles
 SCF Done:  E(RPBE1PBE) =  -2372.69432823     A.U. after    9 cycles

 The electronic state is 1-A.
 Alpha  occ. eigenvalues --  -14.37552 -14.37514 -14.37275 -14.37203 -14.36977
 Alpha  occ. eigenvalues --  -14.36902 -14.36815 -14.36765 -14.36734 -14.36582
 Alpha  occ. eigenvalues --  -10.28077 -10.26822 -10.26646 -10.26447 -10.26335
 Alpha  occ. eigenvalues --  -10.26158 -10.26068 -10.25975 -10.25909 -10.25869
 Alpha  occ. eigenvalues --  -10.25853 -10.25845 -10.25827 -10.25703 -10.24424
 Alpha  occ. eigenvalues --  -10.24254 -10.24098 -10.24038 -10.23957 -10.23861
 Alpha  occ. eigenvalues --  -10.23767 -10.23712 -10.23689 -10.23659 -10.23657
 Alpha  occ. eigenvalues --  -10.23640 -10.23275 -10.23242 -10.23229 -10.23211
 Alpha  occ. eigenvalues --  -10.23029 -10.23001 -10.22933 -10.22829 -10.22747
 Alpha  occ. eigenvalues --  -10.21941 -10.21803 -10.21642 -10.21301 -10.21177
 Alpha  occ. eigenvalues --  -10.21049 -10.20575 -10.20539 -10.20289 -10.20213
 Alpha  occ. eigenvalues --  -10.20076 -10.19824  -0.99723  -0.97586  -0.97233
 Alpha  occ. eigenvalues --   -0.97020  -0.96909  -0.94743  -0.94298  -0.94261
 Alpha  occ. eigenvalues --   -0.93987  -0.89831  -0.89123  -0.88797  -0.88447
 Alpha  occ. eigenvalues --   -0.83690  -0.83241  -0.82853  -0.82007  -0.81290
 Alpha  occ. eigenvalues --   -0.80155  -0.79458  -0.78522  -0.78160  -0.77784
 Alpha  occ. eigenvalues --   -0.77339  -0.71936  -0.71878  -0.71699  -0.71554
 Alpha  occ. eigenvalues --   -0.71459  -0.71342  -0.71307  -0.71065  -0.70884
 Alpha  occ. eigenvalues --   -0.69970  -0.68148  -0.67786  -0.67324  -0.67053
 Alpha  occ. eigenvalues --   -0.66180  -0.65250  -0.64524  -0.63921  -0.63175
 Alpha  occ. eigenvalues --   -0.60494  -0.59642  -0.58804  -0.58174  -0.57879
 Alpha  occ. eigenvalues --   -0.57350  -0.56873  -0.54904  -0.54758  -0.54487
 Alpha  occ. eigenvalues --   -0.54066  -0.53589  -0.53220  -0.52643  -0.51932
 Alpha  occ. eigenvalues --   -0.51778  -0.51195  -0.50876  -0.50529  -0.49996
 Alpha  occ. eigenvalues --   -0.49457  -0.49223  -0.49048  -0.48736  -0.48376
 Alpha  occ. eigenvalues --   -0.47908  -0.47664  -0.47463  -0.47420  -0.47235
 Alpha  occ. eigenvalues --   -0.47134  -0.46508  -0.46376  -0.46024  -0.45362
 Alpha  occ. eigenvalues --   -0.45129  -0.44957  -0.44835  -0.44669  -0.44488
 Alpha  occ. eigenvalues --   -0.44177  -0.43904  -0.42772  -0.42417  -0.41771
 Alpha  occ. eigenvalues --   -0.41614  -0.41475  -0.41373  -0.41134  -0.40891
 Alpha  occ. eigenvalues --   -0.40807  -0.40784  -0.40474  -0.40374  -0.40176
 Alpha  occ. eigenvalues --   -0.40027  -0.39858  -0.39688  -0.39665  -0.39470
 Alpha  occ. eigenvalues --   -0.39304  -0.39099  -0.38933  -0.38678  -0.38319
 Alpha  occ. eigenvalues --   -0.38176  -0.38096  -0.37485  -0.37410  -0.37050
 Alpha  occ. eigenvalues --   -0.36937  -0.36685  -0.36365  -0.36214  -0.35943
 Alpha  occ. eigenvalues --   -0.35817  -0.35732  -0.35361  -0.35171  -0.34899
 Alpha  occ. eigenvalues --   -0.34590  -0.34233  -0.34036  -0.33938  -0.33699
 Alpha  occ. eigenvalues --   -0.33522  -0.33134  -0.30770  -0.30099  -0.29670
 Alpha  occ. eigenvalues --   -0.26901  -0.26786  -0.26447  -0.26333  -0.26204
 Alpha  occ. eigenvalues --   -0.26097  -0.26063  -0.25919  -0.25764  -0.25567
 Alpha  occ. eigenvalues --   -0.25395  -0.25121  -0.25101  -0.24839  -0.24514
 Alpha  occ. eigenvalues --   -0.23804
 Alpha virt. eigenvalues --   -0.06213  -0.05501  -0.05175  -0.04805  -0.04633
 Alpha virt. eigenvalues --   -0.02585  -0.01767  -0.01086   0.00982   0.02673
 Alpha virt. eigenvalues --    0.03424   0.04439   0.04883   0.04894   0.05255

 Mulliken charges:
               1
     1  C    0.446403
     2  C   -0.190889
     3  C   -0.398483
     4  C    0.361096
     5  H    0.142987
     6  C   -0.351576
     7  C    0.280083
     8  H    0.148271
     9  C   -0.295392
    10  C   -0.134151
    11  H    0.117726
    12  C   -0.181732
    13  H    0.072230
    14  H    0.076940
    15  H    0.075519
    16  C    0.170440
    17  C    0.156990
    18  C   -0.393159
    19  C    0.381733
    20  H    0.157853
    21  C   -0.359082
    22  C    0.367557
    23  H    0.101950
    24  C   -0.377219
    25  C   -0.165780
    26  H    0.123722
    27  C   -0.189670
    28  H    0.083993
    29  H    0.057355
    30  C    0.348703
    31  C   -0.148509
    32  C   -0.290553
    33  C    0.397048
    34  H    0.117340
    35  C   -0.371483
    36  C    0.350420
    37  H    0.126493
    38  C   -0.374109
    39  C   -0.128755
    40  H    0.110250
    41  C   -0.190399
    42  H    0.090448
    43  H    0.082365
    44  C    0.129534
    45  C   -0.038720
    46  N   -0.185112
    47  N   -0.188433
    48  H    0.074375
    49  C    0.154316
    50  C   -0.215976
    51  N   -0.304660
    52  N   -0.281515
    53  C   -0.050577
    54  C    0.143389
    55  N   -0.181799
    56  H    0.110673
    57  N   -0.185745
    58  C   -0.346533
    59  C    0.152013
    60  C   -0.034018
    61  N   -0.182790
    62  C   -0.461416
    63  N   -0.200882
    64  H    0.077653
    65  C   -0.055543
    66  C    0.147562
    67  N   -0.180082
    68  H    0.071011
    69  N   -0.193710
    70  H    0.075666
    71  H    0.181260
    72  H    0.109345
    73  H    0.188133
    74  H    0.110569
    75  H    0.076209
    76  C   -0.427416
    77  C   -0.360552
    78  H    0.108416
    79  H    0.110101
    80  C   -0.430948
    81  C   -0.346567
    82  H    0.125857
    83  H    0.157711
    84  H    0.122060
    85  C   -0.360590
    86  C   -0.433122
    87  H    0.130620
    88  H    0.121888
    89  H    0.118272
    90  H    0.132719
    91  H    0.120572
    92  H    0.117677
    93  H    0.122549
    94  H    0.155527
    95  H    0.126403
    96  H    0.122834
    97  H    0.122704
    98  H    0.154155
    99  H    0.138880
   100  H    0.125693
   101  H    0.125659
   102  H    0.120693
   103  H    0.112780
   104  H    0.127642
   105  H    0.111548
   106  H    0.119624
   107  H    0.128380
   108  H    0.130338
   109  H    0.126143
   110  C   -0.481271
   111  H    0.141297
   112  H    0.106505
   113  H    0.162844
   114  C   -0.403253
   115  H    0.111769
   116  H    0.133482
   117  H    0.131202
 Sum of Mulliken charges =   0.00000

 Dipole moment (field-independent basis, Debye):
    X=              1.6235    Y=             -0.4893    Z=             -1.8902  Tot=              2.5393
 Quadrupole moment (field-independent basis, Debye-Ang):
   XX=           -339.2858   YY=           -338.6141   ZZ=           -313.5354
   XY=             -2.5449   XZ=            -15.7378   YZ=              4.9451

 Normal termination of Gaussian 16 at Mon Oct 18 06:52:08 2021.
