 Gaussian 16, Revision C.01,
 Gaussian 16:  ES64L-G16RevC.01  3-Jul-2019

 ----------------------------------------------------------------------
 #P MP2/aug-cc-pVDZ SP SCF=(YQC,MaxCycle=900) int=(Grid=Superfinegrid)
 SCRF=(PCM,Solvent=Dichloromethane)
 ----------------------------------------------------------------------

 -----------------------------
 _3_alde1_5_ami4_2_opt_dcm_mp2
 -----------------------------
 Symbolic Z-matrix:
 Charge =  0 Multiplicity = 1

                         Standard orientation:
 ---------------------------------------------------------------------
 Center     Atomic      Atomic             Coordinates (Angstroms)
 Number     Number       Type             X           Y           Z
 ---------------------------------------------------------------------
      1          6           0       -4.025328    1.412035    0.289217
      2          6           0       -5.104719    0.717570   -0.396229
      3          6           0       -3.399625    2.523488   -0.274341
      4          6           0       -2.307079    3.110466    0.354291
      5          1           0       -3.779043    2.908103   -1.209083
      6          6           0       -1.807732    2.550443    1.531429
      7          6           0       -2.433271    1.455142    2.113206
      8          1           0       -0.934064    2.999744    1.978091
      9          6           0       -3.560833    0.910799    1.499890
     10          6           0       -1.880021    0.832106    3.308853
     11          1           0       -4.040882    0.068124    1.971656
     12          6           0       -1.670934    4.288848   -0.218934
     13          1           0       -0.837243    1.096551    3.542377
     14          1           0       -5.640553   -0.030232    0.206523
     15          1           0       -2.175092    4.720045   -1.098314
     16          6           0        4.279166    1.244300   -0.442744
     17          6           0        5.418297    1.410637    0.449828
     18          6           0        4.044564    0.025625   -1.077014
     19          6           0        2.953240   -0.133691   -1.925547
     20          1           0        4.717368   -0.800784   -0.917187
     21          6           0        2.087137    0.938437   -2.130719
     22          6           0        2.317580    2.166219   -1.517290
     23          1           0        1.233312    0.819147   -2.784253
     24          6           0        3.416570    2.311999   -0.673157
     25          6           0        1.423618    3.283912   -1.776289
     26          1           0        3.577430    3.272139   -0.207279
     27          6           0        2.721093   -1.391384   -2.620466
     28          1           0        0.529800    3.047069   -2.377591
     29          1           0        5.532019    2.408841    0.901364
     30          1           0        1.838977   -1.416101   -3.279592
     31          6           0       -2.596201   -2.423703   -1.112307
     32          6           0       -3.497521   -1.936435   -2.148335
     33          6           0       -2.989132   -2.376153    0.224592
     34          6           0       -2.098078   -2.698697    1.241131
     35          1           0       -3.992993   -2.051075    0.447739
     36          6           0       -0.810841   -3.120451    0.911303
     37          6           0       -0.425992   -3.238352   -0.419859
     38          1           0       -0.128074   -3.362764    1.711344
     39          6           0       -1.317110   -2.867531   -1.427690
     40          6           0        0.899893   -3.743892   -0.749253
     41          1           0       -0.990338   -2.940459   -2.453890
     42          6           0       -2.507858   -2.526363    2.626384
     43          1           0        1.600758   -3.834732    0.094311
     44          1           0       -3.580185   -2.334192    2.779000
     45          6           0       -5.551419   -1.119806   -2.910327
     46          6           0       -6.321427    0.038060   -2.238179
     47          7           0       -4.721085   -1.732507   -1.924338
     48          7           0       -5.372535    0.909716   -1.615169
     49          6           0        7.147178   -0.343754    2.766748
     50          6           0        7.310151    0.643458    1.587010
     51          7           0        7.083372   -1.734737    2.381581
     52          7           0        6.223602    0.468882    0.682337
     53          6           0        0.029408    5.899763   -0.314629
     54          6           0        0.735734    5.497463   -1.625654
     55          7           0       -0.617191    4.768631    0.282247
     56          7           0        1.666161    4.450320   -1.363750
     57          6           0       -1.928091   -0.676495    5.089933
     58          6           0       -2.170897   -2.188113    4.885812
     59          7           0       -2.544654    0.019821    4.006978
     60          7           0       -1.689479   -2.547544    3.587287
     61          6           0        3.200718   -3.594875   -3.185390
     62          6           0        2.518077   -4.571213   -2.209455
     63          7           0        3.495685   -2.379165   -2.496787
     64          7           0        1.206722   -4.088447   -1.923051
     65          1           0        6.310946   -1.865461    1.736110
     66          1           0        7.932170   -2.000696    1.892105
     67          1           0       -3.032554   -1.723607   -3.123852
     68          1           0        6.223437   -0.102255    3.300106
     69          1           0        7.988071   -0.210493    3.452978
     70          1           0        8.230370    0.393277    1.047590
     71          1           0        7.388820    1.673762    1.974435
     72          1           0       -4.977196   -0.742552   -3.771065
     73          1           0       -6.280112   -1.857168   -3.261079
     74          1           0       -7.026296   -0.393379   -1.511705
     75          1           0       -6.866518    0.597361   -3.001254
     76          1           0        4.146027   -4.029989   -3.517855
     77          1           0        2.531302   -3.444059   -4.046242
     78          1           0        3.141799   -4.680453   -1.308223
     79          1           0        2.415033   -5.539837   -2.706781
     80          1           0        0.774473    6.257228    0.398913
     81          1           0       -0.679358    6.706632   -0.546324
     82          1           0       -3.248206   -2.382112    4.997297
     83          1           0       -1.609594   -2.746863    5.637276
     84          1           0       -2.414137   -0.373043    6.021772
     85          1           0       -0.847428   -0.475943    5.160283
     86          1           0        1.292101    6.361625   -1.998555
     87          1           0       -0.028413    5.204635   -2.367399
 ---------------------------------------------------------------------

 SCF Done:  E(RHF) =  -1969.03939070     a.u. after    7 cycles
 SCF Done:  E(RHF) =  -1969.03945446     A.U. after   18 cycles
 E2 =    -0.6779858894D+01 EUMP2 =    -0.19758193133517D+04

 The electronic state is 1-A.
 Alpha  occ. eigenvalues --  -15.56550 -15.56469 -15.56449 -15.56439 -15.56370
 Alpha  occ. eigenvalues --  -15.56284 -15.56243 -15.56227 -15.56122 -15.54443
 Alpha  occ. eigenvalues --  -11.29017 -11.28993 -11.28898 -11.28895 -11.28873
 Alpha  occ. eigenvalues --  -11.28799 -11.28788 -11.28776 -11.28695 -11.26066
 Alpha  occ. eigenvalues --  -11.26017 -11.25895 -11.25892 -11.25805 -11.25770
 Alpha  occ. eigenvalues --  -11.25713 -11.25627 -11.25620 -11.25616 -11.25596
 Alpha  occ. eigenvalues --  -11.25558 -11.25546 -11.25522 -11.25474 -11.25453
 Alpha  occ. eigenvalues --  -11.25333 -11.25312 -11.25309 -11.25293 -11.25290
 Alpha  occ. eigenvalues --  -11.25265 -11.25250 -11.25234 -11.25225 -11.25216
 Alpha  occ. eigenvalues --  -11.25198 -11.25011  -1.26635  -1.26380  -1.26347
 Alpha  occ. eigenvalues --   -1.26278  -1.25213  -1.23987  -1.23841  -1.23491
 Alpha  occ. eigenvalues --   -1.23328  -1.18251  -1.17738  -1.17023  -1.16984
 Alpha  occ. eigenvalues --   -1.07794  -1.07523  -1.07443  -1.06482  -1.05686
 Alpha  occ. eigenvalues --   -1.05569  -1.01848  -1.00282  -0.99723  -0.99654
 Alpha  occ. eigenvalues --   -0.98159  -0.91957  -0.91796  -0.91755  -0.91471
 Alpha  occ. eigenvalues --   -0.88688  -0.87891  -0.87784  -0.86818  -0.83774
 Alpha  occ. eigenvalues --   -0.83519  -0.83139  -0.82275  -0.80089  -0.79777
 Alpha  occ. eigenvalues --   -0.76684  -0.75454  -0.75235  -0.74829  -0.74417
 Alpha  occ. eigenvalues --   -0.73782  -0.71496  -0.71116  -0.70572  -0.69448
 Alpha  occ. eigenvalues --   -0.69196  -0.68443  -0.67563  -0.67347  -0.67177
 Alpha  occ. eigenvalues --   -0.66685  -0.66187  -0.65795  -0.65558  -0.65007
 Alpha  occ. eigenvalues --   -0.64856  -0.63918  -0.62790  -0.62484  -0.62029
 Alpha  occ. eigenvalues --   -0.61825  -0.61777  -0.61439  -0.61159  -0.60724
 Alpha  occ. eigenvalues --   -0.60232  -0.59698  -0.59638  -0.59122  -0.58954
 Alpha  occ. eigenvalues --   -0.58877  -0.56491  -0.56008  -0.55167  -0.54809
 Alpha  occ. eigenvalues --   -0.54786  -0.54740  -0.54489  -0.53997  -0.53779
 Alpha  occ. eigenvalues --   -0.53695  -0.53482  -0.52936  -0.52434  -0.51269
 Alpha  occ. eigenvalues --   -0.50719  -0.50425  -0.50387  -0.50068  -0.49696
 Alpha  occ. eigenvalues --   -0.49310  -0.46995  -0.46494  -0.45976  -0.45681
 Alpha  occ. eigenvalues --   -0.45450  -0.45073  -0.41789  -0.41437  -0.41355
 Alpha  occ. eigenvalues --   -0.41194  -0.41096  -0.40974  -0.40713  -0.40544
 Alpha  occ. eigenvalues --   -0.40519  -0.40017  -0.39873  -0.39583  -0.38282
 Alpha  occ. eigenvalues --   -0.33175  -0.32853  -0.32780  -0.32700  -0.32415
 Alpha  occ. eigenvalues --   -0.32008
 Alpha virt. eigenvalues --    0.03431   0.03567   0.03783   0.03904   0.04320
 Alpha virt. eigenvalues --    0.04347   0.04506   0.04653   0.04827   0.05186
 Alpha virt. eigenvalues --    0.05254   0.05333   0.05572   0.05671   0.05881

 Mulliken charges:
               1
     1  C    0.674584
     2  C    0.765436
     3  C    0.875648
     4  C    0.862551
     5  H   -0.888174
     6  C    0.133689
     7  C    0.645297
     8  H   -0.895609
     9  C    0.525748
    10  C    0.960392
    11  H   -1.037120
    12  C    0.735431
    13  H   -0.663186
    14  H   -0.604648
    15  H   -0.687871
    16  C    0.968191
    17  C    0.553644
    18  C   -0.361282
    19  C    1.350046
    20  H   -0.903561
    21  C    0.213803
    22  C    1.162106
    23  H   -0.774952
    24  C    0.250323
    25  C    0.980218
    26  H   -0.873735
    27  C    0.783441
    28  H   -0.699032
    29  H   -0.615091
    30  H   -0.703997
    31  C    0.873863
    32  C    0.656798
    33  C    0.210479
    34  C    1.018618
    35  H   -1.007554
    36  C    0.320550
    37  C    0.861519
    38  H   -0.875262
    39  C    0.335487
    40  C    0.896445
    41  H   -0.918918
    42  C    0.900067
    43  H   -0.666119
    44  H   -0.623176
    45  C    0.727007
    46  C    0.584625
    47  N   -0.692662
    48  N   -0.836226
    49  C    0.856766
    50  C    0.530212
    51  N   -0.489990
    52  N   -0.562335
    53  C    0.797833
    54  C    0.591591
    55  N   -0.589228
    56  N   -0.709630
    57  C    0.725021
    58  C    0.584245
    59  N   -0.756007
    60  N   -0.838691
    61  C    0.626216
    62  C    0.694462
    63  N   -0.749311
    64  N   -0.663689
    65  H    0.034616
    66  H    0.047171
    67  H   -0.655848
    68  H   -0.151265
    69  H   -0.134182
    70  H   -0.297097
    71  H   -0.112724
    72  H   -0.134851
    73  H   -0.229654
    74  H   -0.090877
    75  H   -0.309475
    76  H   -0.315660
    77  H   -0.133808
    78  H   -0.109425
    79  H   -0.275565
    80  H   -0.333704
    81  H   -0.089789
    82  H   -0.100851
    83  H   -0.322513
    84  H   -0.239735
    85  H   -0.124914
    86  H   -0.342155
    87  H   -0.122993
 Sum of Mulliken charges =   0.00000

 Dipole moment (field-independent basis, Debye):
    X=             -2.5184    Y=              2.8354    Z=             -2.8446  Tot=              4.7406
 Quadrupole moment (field-independent basis, Debye-Ang):
   XX=           -276.4139   YY=           -277.6163   ZZ=           -265.2880
   XY=              8.7938   XZ=              5.1521   YZ=              0.7435

 Normal termination of Gaussian 16 at Fri Nov  5 20:42:24 2021.
