 Gaussian 16, Revision C.01,
 Gaussian 16:  ES64L-G16RevC.01  3-Jul-2019

 ----------------------------------------------------------------------
 #P PBE1PBE/Def2TZVP SP SCF=(YQC,MaxCycle=900) int=(Grid=Superfinegrid)
  EmpiricalDispersion=GD3 SCRF=(PCM,Solvent=Chloroform)
 ----------------------------------------------------------------------

 -------------------------
 _3_alde1_6_ami2_1_opt_cfm
 -------------------------
 Symbolic Z-matrix:
 Charge =  0 Multiplicity = 1

                         Standard orientation:
 ---------------------------------------------------------------------
 Center     Atomic      Atomic             Coordinates (Angstroms)
 Number     Number       Type             X           Y           Z
 ---------------------------------------------------------------------
      1          6           0        4.601102   -0.057915   -0.219484
      2          6           0        5.467600   -1.197569   -0.691892
      3          6           0        3.919302   -0.163855    0.981758
      4          6           0        3.119191    0.878888    1.447400
      5          1           0        3.980413   -1.058114    1.581195
      6          6           0        2.996649    2.034451    0.684588
      7          6           0        3.663455    2.148776   -0.531246
      8          1           0        2.383855    2.860374    1.012689
      9          6           0        4.461916    1.096360   -0.975447
     10          6           0        3.515894    3.344655   -1.354205
     11          1           0        4.986122    1.187848   -1.916821
     12          6           0        2.445824    0.773847    2.737665
     13          1           0        3.788394    3.206178   -2.407009
     14          1           0        1.790149    1.616851    2.985539
     15          6           0       -3.072860   -2.532000    0.483351
     16          6           0       -3.400176   -3.474390   -0.639113
     17          6           0       -3.912377   -1.481303    0.816258
     18          6           0       -3.553836   -0.578186    1.819190
     19          1           0       -4.854140   -1.346100    0.309132
     20          6           0       -2.357251   -0.754312    2.501761
     21          6           0       -1.532617   -1.840165    2.216351
     22          1           0       -2.056299   -0.071050    3.281067
     23          6           0       -1.896892   -2.718505    1.198992
     24          6           0       -0.313930   -2.070985    2.977812
     25          1           0       -1.271632   -3.564023    0.955965
     26          6           0       -4.394780    0.572188    2.128854
     27          1           0        0.297854   -2.928759    2.657963
     28          1           0       -3.891561    1.352575    2.712563
     29          6           0       -1.221279    0.974591   -2.110405
     30          6           0       -0.593584   -0.237480   -2.764358
     31          6           0       -0.509963    2.144740   -1.906013
     32          6           0       -1.095461    3.219780   -1.236238
     33          1           0        0.504586    2.233608   -2.258111
     34          6           0       -2.406187    3.122133   -0.786723
     35          6           0       -3.148412    1.970091   -1.034317
     36          1           0       -2.882683    3.940684   -0.269264
     37          6           0       -2.540584    0.899823   -1.685550
     38          6           0       -4.536250    1.852844   -0.622241
     39          1           0       -3.106938   -0.004455   -1.860454
     40          6           0       -0.324162    4.433004   -0.990463
     41          1           0       -5.039223    0.925502   -0.934687
     42          1           0       -0.623957    5.016912   -0.104778
     43          6           0        6.827639   -2.902136    0.024405
     44          6           0        5.468030   -3.561817   -0.325089
     45          7           0        6.539053   -1.495335    0.239696
     46          1           0        7.306826   -3.343764    0.895700
     47          7           0        4.669358   -2.432097   -0.816595
     48          6           0        5.619247   -4.658917   -1.375674
     49          6           0        4.793845   -4.126100    0.930536
     50          6           0       -2.746218   -4.509567   -2.559068
     51          6           0       -4.027179   -3.669901   -2.885146
     52          7           0       -2.206194   -3.967271   -1.325362
     53          1           0       -2.010083   -4.472366   -3.360546
     54          7           0       -4.271735   -2.896735   -1.661344
     55          6           0       -5.231015   -4.575296   -3.146833
     56          6           0       -3.791421   -2.744395   -4.076296
     57          6           0        0.906978   -1.762709   -1.717360
     58          6           0        1.645637   -0.517254   -2.258041
     59          7           0       -0.507316   -1.361035   -1.801927
     60          6           0        1.327929   -2.107544   -0.297166
     61          6           0        1.125088   -2.970159   -2.636148
     62          7           0        0.748744    0.045701   -3.253314
     63          1           0        2.621744   -0.740039   -2.683426
     64          6           0        2.085302   -0.378707    4.800209
     65          6           0        1.178239   -1.631062    4.714813
     66          7           0        2.658558   -0.212253    3.492689
     67          6           0        3.264925   -0.690308    5.731564
     68          6           0        1.279741    0.801331    5.351057
     69          7           0       -0.000414   -1.351471    3.964984
     70          1           0        0.861551   -1.887129    5.730957
     71          1           0        0.961389    0.576129    6.365220
     72          6           0        2.889036    5.626269   -1.626898
     73          6           0        1.385070    5.950296   -1.437691
     74          7           0        3.110496    4.428745   -0.859627
     75          6           0        3.729413    6.731854   -0.977949
     76          6           0        3.194413    5.538756   -3.125804
     77          7           0        0.615954    4.788430   -1.748162
     78          1           0        1.111740    6.743528   -2.140346
     79          1           0        4.230637    5.251439   -3.294304
     80          6           0       -6.410332    1.809470    1.906605
     81          6           0       -6.464368    2.459326    0.487875
     82          7           0       -5.592830    0.640534    1.742766
     83          6           0       -7.813318    1.324081    2.282450
     84          6           0       -5.920608    2.852651    2.916579
     85          7           0       -5.137983    2.743034    0.043868
     86          1           0       -7.017781    3.397851    0.554520
     87          1           0       -1.605151   -3.167177   -1.536413
     88          1           0       -3.922797   -4.358073   -0.234645
     89          1           0       -4.008169   -1.927027   -1.811284
     90          1           0        0.897140   -0.407305   -4.147845
     91          1           0       -0.828745   -1.049633   -0.888823
     92          1           0       -1.235014   -0.543218   -3.605916
     93          1           0        4.360986   -2.574577   -1.769748
     94          1           0        6.207181   -1.347241    1.188030
     95          1           0        5.933936   -0.930150   -1.657227
     96          1           0       -3.023367   -5.553433   -2.381740
     97          1           0       -3.655808   -3.325721   -4.985667
     98          1           0       -2.900029   -2.138501   -3.915357
     99          1           0       -4.644472   -2.082311   -4.214005
    100          1           0        7.508565   -2.979732   -0.830232
    101          1           0        4.720348   -3.359976    1.698337
    102          1           0        5.363398   -4.965248    1.322764
    103          1           0        3.788535   -4.462702    0.689889
    104          1           0        1.771241    0.208802   -1.449129
    105          1           0        0.848298   -2.732768   -3.661480
    106          1           0        0.512790   -3.803847   -2.301803
    107          1           0        2.169106   -3.272114   -2.613533
    108          1           0        1.759382   -2.468555    4.295308
    109          1           0        1.889166    1.703030    5.369567
    110          1           0        0.394182    0.969351    4.744418
    111          1           0        1.203490    6.308125   -0.411825
    112          1           0        3.032506    6.511630   -3.582944
    113          1           0        2.531824    4.817729   -3.598044
    114          1           0       -6.986199    1.760316   -0.181727
    115          1           0       -6.107400   -3.971183   -3.366769
    116          1           0       -5.442664   -5.175987   -2.266429
    117          1           0       -5.034101   -5.235077   -3.988494
    118          1           0        4.649382   -5.094825   -1.607766
    119          1           0        6.271650   -5.445787   -1.004565
    120          1           0        6.051709   -4.257613   -2.291337
    121          1           0        0.815544   -3.007402    0.032850
    122          1           0        1.087804   -1.294449    0.386858
    123          1           0        2.402543   -2.275451   -0.266696
    124          1           0        2.909074   -0.942563    6.727066
    125          1           0        3.917982    0.176784    5.798999
    126          1           0        3.839594   -1.523409    5.335926
    127          1           0       -5.732509    2.386939    3.882563
    128          1           0       -6.684420    3.615432    3.042884
    129          1           0       -5.012492    3.332088    2.559984
    130          1           0       -8.114781    0.518769    1.618329
    131          1           0       -8.531717    2.136721    2.210728
    132          1           0       -7.808544    0.945162    3.301786
    133          1           0        3.463359    7.701857   -1.390519
    134          1           0        4.785801    6.547726   -1.159951
    135          1           0        3.562634    6.741198    0.095858
 ---------------------------------------------------------------------

 SCF Done:  E(RPBE1PBE) =  -2641.68594847     a.u. after    6 cycles
 SCF Done:  E(RPBE1PBE) =  -2641.68599128     A.U. after    9 cycles

 The electronic state is 1-A.
 Alpha  occ. eigenvalues --  -14.37724 -14.37716 -14.37544 -14.37417 -14.37378
 Alpha  occ. eigenvalues --  -14.37364 -14.37345 -14.37329 -14.37267 -14.36682
 Alpha  occ. eigenvalues --  -14.36599 -14.35849 -10.28272 -10.28053 -10.27463
 Alpha  occ. eigenvalues --  -10.26593 -10.26451 -10.26420 -10.26412 -10.26368
 Alpha  occ. eigenvalues --  -10.26319 -10.26276 -10.26157 -10.26146 -10.25783
 Alpha  occ. eigenvalues --  -10.25513 -10.25386 -10.24495 -10.24427 -10.24410
 Alpha  occ. eigenvalues --  -10.24252 -10.24100 -10.24074 -10.24028 -10.24010
 Alpha  occ. eigenvalues --  -10.23941 -10.23837 -10.23793 -10.23760 -10.23730
 Alpha  occ. eigenvalues --  -10.23649 -10.23643 -10.23440 -10.23418 -10.23394
 Alpha  occ. eigenvalues --  -10.23311 -10.23257 -10.23205 -10.23146 -10.22910
 Alpha  occ. eigenvalues --  -10.22849 -10.21060 -10.20950 -10.20673 -10.20659
 Alpha  occ. eigenvalues --  -10.20540 -10.20508 -10.20467 -10.20387 -10.20284
 Alpha  occ. eigenvalues --  -10.20212 -10.20010 -10.19630  -0.99508  -0.99466
 Alpha  occ. eigenvalues --   -0.99031  -0.97753  -0.97330  -0.97257  -0.95120
 Alpha  occ. eigenvalues --   -0.94856  -0.94507  -0.90093  -0.89669  -0.89586
 Alpha  occ. eigenvalues --   -0.88607  -0.88488  -0.87639  -0.83639  -0.83419
 Alpha  occ. eigenvalues --   -0.83059  -0.82130  -0.81924  -0.81016  -0.80158
 Alpha  occ. eigenvalues --   -0.78881  -0.78285  -0.77940  -0.77819  -0.77553
 Alpha  occ. eigenvalues --   -0.72252  -0.71977  -0.71599  -0.71308  -0.71235
 Alpha  occ. eigenvalues --   -0.71220  -0.71201  -0.71157  -0.71083  -0.70222
 Alpha  occ. eigenvalues --   -0.70034  -0.69811  -0.68023  -0.67703  -0.67457
 Alpha  occ. eigenvalues --   -0.66375  -0.65524  -0.65385  -0.64775  -0.64239
 Alpha  occ. eigenvalues --   -0.63353  -0.60608  -0.60495  -0.60251  -0.59066
 Alpha  occ. eigenvalues --   -0.58537  -0.58309  -0.57777  -0.57289  -0.56749
 Alpha  occ. eigenvalues --   -0.55836  -0.54435  -0.53881  -0.53847  -0.53565
 Alpha  occ. eigenvalues --   -0.53478  -0.53199  -0.52162  -0.51684  -0.51419
 Alpha  occ. eigenvalues --   -0.51135  -0.50974  -0.50604  -0.50080  -0.49686
 Alpha  occ. eigenvalues --   -0.49466  -0.49054  -0.48818  -0.48302  -0.48203
 Alpha  occ. eigenvalues --   -0.48074  -0.47794  -0.47755  -0.47483  -0.47167
 Alpha  occ. eigenvalues --   -0.46704  -0.46648  -0.46231  -0.46045  -0.45976
 Alpha  occ. eigenvalues --   -0.45699  -0.45369  -0.45328  -0.45204  -0.44991
 Alpha  occ. eigenvalues --   -0.44772  -0.44009  -0.43589  -0.43292  -0.42717
 Alpha  occ. eigenvalues --   -0.42611  -0.42291  -0.41946  -0.41778  -0.41560
 Alpha  occ. eigenvalues --   -0.41222  -0.40935  -0.40883  -0.40740  -0.40607
 Alpha  occ. eigenvalues --   -0.40578  -0.40504  -0.40305  -0.40134  -0.39930
 Alpha  occ. eigenvalues --   -0.39767  -0.39652  -0.39479  -0.39408  -0.39285
 Alpha  occ. eigenvalues --   -0.39170  -0.39136  -0.39004  -0.38475  -0.38041
 Alpha  occ. eigenvalues --   -0.37925  -0.37810  -0.37726  -0.37677  -0.37508
 Alpha  occ. eigenvalues --   -0.37198  -0.36991  -0.36889  -0.36815  -0.36421
 Alpha  occ. eigenvalues --   -0.36286  -0.36066  -0.35867  -0.35654  -0.35251
 Alpha  occ. eigenvalues --   -0.35137  -0.35079  -0.34651  -0.34504  -0.34459
 Alpha  occ. eigenvalues --   -0.34394  -0.34113  -0.34016  -0.33724  -0.33570
 Alpha  occ. eigenvalues --   -0.31844  -0.31474  -0.31053  -0.27276  -0.27017
 Alpha  occ. eigenvalues --   -0.26926  -0.26878  -0.26783  -0.26639  -0.26363
 Alpha  occ. eigenvalues --   -0.26348  -0.26126  -0.25980  -0.25859  -0.25687
 Alpha  occ. eigenvalues --   -0.25486  -0.25185  -0.24912  -0.24567  -0.23777
 Alpha  occ. eigenvalues --   -0.23666
 Alpha virt. eigenvalues --   -0.06003  -0.05535  -0.05469  -0.04320  -0.04179
 Alpha virt. eigenvalues --   -0.03789   0.01379   0.01577   0.01743   0.02755
 Alpha virt. eigenvalues --    0.03650   0.04186   0.04315   0.04975   0.05154

 Mulliken charges:
               1
     1  C    0.405390
     2  C   -0.138749
     3  C   -0.361330
     4  C    0.331358
     5  H    0.151559
     6  C   -0.367192
     7  C    0.336177
     8  H    0.118975
     9  C   -0.407443
    10  C   -0.173312
    11  H    0.117713
    12  C   -0.199119
    13  H    0.094859
    14  H    0.105449
    15  C    0.245466
    16  C   -0.012730
    17  C   -0.484726
    18  C    0.418996
    19  H    0.149164
    20  C   -0.375132
    21  C    0.385046
    22  H    0.141741
    23  C   -0.388082
    24  C   -0.182518
    25  H    0.143301
    26  C   -0.155223
    27  H    0.085388
    28  H    0.094659
    29  C    0.151154
    30  C    0.050384
    31  C   -0.326427
    32  C    0.361902
    33  H    0.186931
    34  C   -0.405394
    35  C    0.361889
    36  H    0.125848
    37  C   -0.309377
    38  C   -0.182960
    39  H    0.085570
    40  C   -0.187847
    41  H    0.092915
    42  H    0.085097
    43  C   -0.099797
    44  C    0.103492
    45  N   -0.273728
    46  H    0.137924
    47  N   -0.299609
    48  C   -0.426930
    49  C   -0.395974
    50  C   -0.126805
    51  C    0.116378
    52  N   -0.288618
    53  H    0.124565
    54  N   -0.256026
    55  C   -0.406208
    56  C   -0.432489
    57  C    0.068770
    58  C   -0.061775
    59  N   -0.345954
    60  C   -0.418919
    61  C   -0.392814
    62  N   -0.286555
    63  H    0.115427
    64  C    0.155453
    65  C   -0.094118
    66  N   -0.197807
    67  C   -0.362112
    68  C   -0.430091
    69  N   -0.193737
    70  H    0.125370
    71  H    0.132208
    72  C    0.192235
    73  C   -0.072824
    74  N   -0.199693
    75  C   -0.364780
    76  C   -0.446348
    77  N   -0.206524
    78  H    0.120410
    79  H    0.133752
    80  C    0.153656
    81  C   -0.068684
    82  N   -0.196710
    83  C   -0.366673
    84  C   -0.438907
    85  N   -0.212104
    86  H    0.120513
    87  H    0.176197
    88  H    0.087377
    89  H    0.168920
    90  H    0.207059
    91  H    0.224378
    92  H    0.099756
    93  H    0.211060
    94  H    0.211227
    95  H    0.087122
    96  H    0.097846
    97  H    0.132803
    98  H    0.126416
    99  H    0.135528
   100  H    0.083923
   101  H    0.118618
   102  H    0.123969
   103  H    0.126486
   104  H    0.071087
   105  H    0.111130
   106  H    0.137189
   107  H    0.111620
   108  H    0.084675
   109  H    0.134938
   110  H    0.146587
   111  H    0.085053
   112  H    0.133446
   113  H    0.145494
   114  H    0.094253
   115  H    0.118504
   116  H    0.127458
   117  H    0.118847
   118  H    0.136575
   119  H    0.132217
   120  H    0.129247
   121  H    0.111160
   122  H    0.134152
   123  H    0.159647
   124  H    0.122457
   125  H    0.129032
   126  H    0.126227
   127  H    0.138173
   128  H    0.134751
   129  H    0.144331
   130  H    0.129292
   131  H    0.121844
   132  H    0.127014
   133  H    0.123088
   134  H    0.127073
   135  H    0.128543
 Sum of Mulliken charges =   0.00000

 Dipole moment (field-independent basis, Debye):
    X=              3.2684    Y=             -1.5432    Z=             -1.9719  Tot=              4.1173
 Quadrupole moment (field-independent basis, Debye-Ang):
   XX=           -385.5120   YY=           -369.8166   ZZ=           -361.2640
   XY=            -20.5583   XZ=             -8.6216   YZ=             10.3961

 Normal termination of Gaussian 16 at Mon Oct 18 01:25:06 2021.
