 Gaussian 16, Revision C.01,
 Gaussian 16:  ES64L-G16RevC.01  3-Jul-2019

 ---------------------------------------------------------------------
 #P MP2/aug-cc-pVDZ SP SCF=(YQC,MaxCycle=900) int=(Grid=Superfinegrid)
 ---------------------------------------------------------------------

 -----------------------------
 _3_alde1_5_ami2_2_opt_gas_mp2
 -----------------------------
 Symbolic Z-matrix:
 Charge =  0 Multiplicity = 1

                         Standard orientation:
 ---------------------------------------------------------------------
 Center     Atomic      Atomic             Coordinates (Angstroms)
 Number     Number       Type             X           Y           Z
 ---------------------------------------------------------------------
      1          6           0       -3.722738    1.521424    1.575872
      2          6           0       -4.987054    1.895844    0.962304
      3          6           0       -2.617076    2.365433    1.537213
      4          6           0       -1.389969    1.949803    2.048639
      5          1           0       -2.709806    3.351715    1.113051
      6          6           0       -1.262833    0.658849    2.559139
      7          6           0       -2.361909   -0.193867    2.611021
      8          1           0       -0.302223    0.320106    2.924222
      9          6           0       -3.592503    0.256652    2.141320
     10          6           0       -2.218396   -1.569108    3.080281
     11          1           0       -4.434116   -0.414917    2.202749
     12          6           0       -0.255417    2.864180    2.057430
     13          1           0       -1.182546   -1.922585    3.149347
     14          1           0       -5.813256    1.185659    1.119205
     15          1           0        0.670626    2.491138    2.523185
     16          6           0        4.890111    0.604731    0.149066
     17          6           0        6.116295    0.663925    0.930860
     18          6           0        4.615994   -0.495842   -0.663184
     19          6           0        3.442554   -0.555491   -1.405648
     20          1           0        5.335342   -1.300129   -0.698883
     21          6           0        2.529422    0.498359   -1.330030
     22          6           0        2.798994    1.611128   -0.543033
     23          1           0        1.619675    0.432079   -1.907172
     24          6           0        3.982081    1.655475    0.195621
     25          6           0        1.880268    2.746646   -0.517900
     26          1           0        4.173767    2.530897    0.797177
     27          6           0        3.186449   -1.707411   -2.256794
     28          1           0        0.946534    2.610594   -1.076956
     29          1           0        6.255867    1.573885    1.535121
     30          1           0        3.993839   -2.455265   -2.299640
     31          6           0       -3.795963   -0.347203   -1.866223
     32          6           0       -4.370597    0.948353   -2.212222
     33          6           0       -4.384148   -1.139472   -0.883509
     34          6           0       -3.764496   -2.304700   -0.442588
     35          1           0       -5.312323   -0.802924   -0.448970
     36          6           0       -2.576039   -2.713169   -1.041445
     37          6           0       -1.992124   -1.951536   -2.048505
     38          1           0       -2.090687   -3.615552   -0.708511
     39          6           0       -2.594654   -0.757010   -2.437717
     40          6           0       -0.732241   -2.369133   -2.656076
     41          1           0       -2.124277   -0.142353   -3.193844
     42          6           0       -4.292492   -2.995368    0.723240
     43          1           0       -0.250461   -1.626889   -3.300066
     44          1           0       -5.248964   -2.611047    1.110565
     45          6           0       -6.076626    2.599446   -1.957909
     46          6           0       -6.332685    3.078071   -0.494740
     47          7           0       -5.514294    1.285013   -1.806241
     48          7           0       -5.120673    2.924209    0.242646
     49          6           0        9.392994   -0.250989    0.714235
     50          6           0        8.165080   -0.177060    1.670131
     51          7           0        9.345592   -1.423177   -0.141910
     52          7           0        6.959850   -0.274367    0.919351
     53          6           0        0.739858    4.928896    1.589762
     54          6           0        1.403254    4.984745    0.184282
     55          7           0       -0.360819    4.028226    1.583154
     56          7           0        2.207225    3.799269    0.092704
     57          6           0       -3.192257   -3.672726    3.665106
     58          6           0       -4.105111   -4.343705    2.592480
     59          7           0       -3.230269   -2.272485    3.338980
     60          7           0       -3.654622   -3.912451    1.310415
     61          6           0        1.875740   -2.995621   -3.690875
     62          6           0        0.971802   -4.017362   -2.935767
     63          7           0        2.113496   -1.829171   -2.911613
     64          7           0       -0.259994   -3.511145   -2.416141
     65          1           0        9.348601   -2.268634    0.418996
     66          1           0        8.482705   -1.413325   -0.675273
     67          1           0       -3.711095    1.594535   -2.804216
     68          6           0       10.670573   -0.315751    1.551837
     69          6           0        9.415436    0.987700   -0.183564
     70          6           0       -5.207727    3.633916   -2.678615
     71          6           0       -7.420959    2.440655   -2.675431
     72          1           0       -7.155358    2.479205   -0.074802
     73          1           0       -6.609102    4.133806   -0.509269
     74          1           0        2.805459   -3.522233   -3.959903
     75          1           0        1.363352   -2.686066   -4.606930
     76          6           0        1.730792   -4.594795   -1.734009
     77          6           0        0.611093   -5.152090   -3.904984
     78          1           0        1.517170    4.652891    2.319903
     79          1           0        0.347338    5.921379    1.824355
     80          1           0       -5.148663   -4.052724    2.790689
     81          1           0       -4.000564   -5.427956    2.664097
     82          6           0       -3.836421   -3.836593    5.045801
     83          6           0       -1.813516   -4.337924    3.637958
     84          6           0        2.387711    6.159869    0.149934
     85          6           0        0.333061    5.160934   -0.896999
     86          1           0       -4.291124    3.805966   -2.119659
     87          1           0       -5.751345    4.572208   -2.751044
     88          1           0       -4.965735    3.300779   -3.686404
     89          1           0       -8.000378    1.649020   -2.207939
     90          1           0       -7.253641    2.175305   -3.717026
     91          1           0       -7.984499    3.369213   -2.633401
     92          1           0       -1.141616   -3.865224    4.352137
     93          1           0       -1.389338   -4.273068    2.638942
     94          1           0       -1.913631   -5.386137    3.906884
     95          1           0       -4.016015   -4.887681    5.256486
     96          1           0       -4.779661   -3.298088    5.082293
     97          1           0       -3.178197   -3.429975    5.810446
     98          1           0        0.786658    5.090000   -1.884163
     99          1           0       -0.128478    6.138560   -0.790800
    100          1           0       -0.444147    4.407938   -0.797551
    101          1           0        1.870112    7.099610    0.322009
    102          1           0        2.876292    6.198260   -0.820731
    103          1           0        3.149946    6.026496    0.912674
    104          1           0       -0.017671   -5.875743   -3.393885
    105          1           0        1.510342   -5.648279   -4.260961
    106          1           0        0.061818   -4.759903   -4.758181
    107          1           0        2.016418   -3.796637   -1.051850
    108          1           0        2.623575   -5.121842   -2.062050
    109          1           0        1.083218   -5.285103   -1.201291
    110          1           0        9.530671    1.890641    0.410746
    111          1           0        8.490558    1.057930   -0.752225
    112          1           0       10.245084    0.912265   -0.880440
    113          1           0       10.661194   -1.190611    2.198910
    114          1           0       10.771054    0.572471    2.169951
    115          1           0       11.529717   -0.386546    0.890731
    116          1           0        8.220039    0.743000    2.276030
    117          1           0        8.201839   -1.044210    2.339138
 ---------------------------------------------------------------------

 SCF Done:  E(RHF) =  -2359.39254580     a.u. after    7 cycles
 SCF Done:  E(RHF) =  -2359.39260617     A.U. after   27 cycles
 E2 =    -0.8345146605D+01 EUMP2 =    -0.23677377527764D+04

 The electronic state is 1-A.
 Alpha  occ. eigenvalues --  -15.56664 -15.56523 -15.56015 -15.55767 -15.55545
 Alpha  occ. eigenvalues --  -15.55474 -15.55288 -15.55215 -15.55081 -15.53765
 Alpha  occ. eigenvalues --  -11.29244 -11.29236 -11.28856 -11.28653 -11.28283
 Alpha  occ. eigenvalues --  -11.28277 -11.28019 -11.27960 -11.27708 -11.26890
 Alpha  occ. eigenvalues --  -11.26840 -11.26710 -11.26692 -11.26299 -11.25847
 Alpha  occ. eigenvalues --  -11.25645 -11.25607 -11.25501 -11.25491 -11.25488
 Alpha  occ. eigenvalues --  -11.25467 -11.25419 -11.25368 -11.25294 -11.25204
 Alpha  occ. eigenvalues --  -11.25078 -11.25063 -11.24772 -11.24692 -11.24612
 Alpha  occ. eigenvalues --  -11.24605 -11.24463 -11.24450 -11.24289 -11.24269
 Alpha  occ. eigenvalues --  -11.24215 -11.23862 -11.21750 -11.21674 -11.21650
 Alpha  occ. eigenvalues --  -11.21595 -11.21590 -11.21508 -11.21461 -11.21423
 Alpha  occ. eigenvalues --  -11.21381 -11.21164  -1.26493  -1.26309  -1.26259
 Alpha  occ. eigenvalues --   -1.26093  -1.25692  -1.23658  -1.23537  -1.22855
 Alpha  occ. eigenvalues --   -1.22484  -1.19205  -1.17427  -1.16962  -1.16268
 Alpha  occ. eigenvalues --   -1.09251  -1.08951  -1.08752  -1.07126  -1.06118
 Alpha  occ. eigenvalues --   -1.05463  -1.04766  -1.03560  -1.02830  -1.02424
 Alpha  occ. eigenvalues --   -1.01928  -0.95784  -0.95142  -0.94754  -0.94366
 Alpha  occ. eigenvalues --   -0.94304  -0.94047  -0.93988  -0.93950  -0.93717
 Alpha  occ. eigenvalues --   -0.93604  -0.89864  -0.89678  -0.89324  -0.87794
 Alpha  occ. eigenvalues --   -0.86992  -0.85983  -0.85454  -0.84475  -0.83611
 Alpha  occ. eigenvalues --   -0.80086  -0.79549  -0.77478  -0.76565  -0.76056
 Alpha  occ. eigenvalues --   -0.75594  -0.75135  -0.74298  -0.73072  -0.72661
 Alpha  occ. eigenvalues --   -0.72187  -0.71264  -0.70157  -0.69668  -0.69123
 Alpha  occ. eigenvalues --   -0.68081  -0.67644  -0.67225  -0.66533  -0.66261
 Alpha  occ. eigenvalues --   -0.66053  -0.65729  -0.65560  -0.64887  -0.64613
 Alpha  occ. eigenvalues --   -0.64263  -0.63874  -0.63029  -0.62934  -0.62674
 Alpha  occ. eigenvalues --   -0.62500  -0.62421  -0.62213  -0.61684  -0.61569
 Alpha  occ. eigenvalues --   -0.60948  -0.60476  -0.60022  -0.59879  -0.59829
 Alpha  occ. eigenvalues --   -0.59580  -0.59001  -0.57770  -0.56904  -0.56202
 Alpha  occ. eigenvalues --   -0.56003  -0.55763  -0.55318  -0.55144  -0.55044
 Alpha  occ. eigenvalues --   -0.55014  -0.54616  -0.54206  -0.53661  -0.53588
 Alpha  occ. eigenvalues --   -0.53538  -0.53418  -0.53401  -0.53272  -0.53168
 Alpha  occ. eigenvalues --   -0.53078  -0.52954  -0.52732  -0.52528  -0.51847
 Alpha  occ. eigenvalues --   -0.51599  -0.51562  -0.51122  -0.50897  -0.50755
 Alpha  occ. eigenvalues --   -0.50453  -0.49937  -0.49577  -0.49483  -0.49405
 Alpha  occ. eigenvalues --   -0.48885  -0.48593  -0.48299  -0.48129  -0.47670
 Alpha  occ. eigenvalues --   -0.46927  -0.46188  -0.45659  -0.44697  -0.44577
 Alpha  occ. eigenvalues --   -0.44209  -0.43745  -0.41857  -0.41156  -0.40896
 Alpha  occ. eigenvalues --   -0.40281  -0.39948  -0.39820  -0.39607  -0.39348
 Alpha  occ. eigenvalues --   -0.39225  -0.38983  -0.38761  -0.38370  -0.37532
 Alpha  occ. eigenvalues --   -0.32806  -0.32525  -0.32341  -0.32015  -0.31259
 Alpha  occ. eigenvalues --   -0.30986
 Alpha virt. eigenvalues --    0.02836   0.03057   0.03232   0.03423   0.03784
 Alpha virt. eigenvalues --    0.03841   0.04049   0.04118   0.04372   0.04523
 Alpha virt. eigenvalues --    0.04726   0.04960   0.05077   0.05231   0.05321

 Mulliken charges:
               1
     1  C    1.599938
     2  C    0.478761
     3  C   -0.577996
     4  C    1.389209
     5  H   -1.080213
     6  C    0.634250
     7  C    0.462774
     8  H   -0.805321
     9  C    0.623706
    10  C    0.374972
    11  H   -1.073870
    12  C    0.834838
    13  H   -0.989908
    14  H   -0.660093
    15  H   -0.737950
    16  C    1.014256
    17  C    0.644597
    18  C   -0.128456
    19  C    0.787707
    20  H   -0.926003
    21  C    0.110937
    22  C    0.940609
    23  H   -0.779614
    24  C    0.215169
    25  C    0.615211
    26  H   -0.961089
    27  C    0.671903
    28  H   -0.918860
    29  H   -0.695164
    30  H   -0.672004
    31  C    0.806468
    32  C    0.072995
    33  C    0.322969
    34  C    1.593963
    35  H   -1.059107
    36  C    0.085297
    37  C    0.700512
    38  H   -1.081756
    39  C    1.099277
    40  C    0.494714
    41  H   -0.732090
    42  C    0.458953
    43  H   -1.055976
    44  H   -0.626887
    45  C   -3.309944
    46  C    1.227105
    47  N    0.019772
    48  N   -0.596236
    49  C   -3.647352
    50  C    1.666032
    51  N   -0.018289
    52  N   -0.459860
    53  C    1.434800
    54  C   -3.644578
    55  N   -0.494146
    56  N   -0.174765
    57  C   -3.295550
    58  C    1.291530
    59  N    0.077549
    60  N   -0.561819
    61  C    1.900447
    62  C   -3.835405
    63  N   -0.460936
    64  N    0.209352
    65  H   -0.014546
    66  H    0.017717
    67  H   -0.995873
    68  C    1.431332
    69  C    1.454741
    70  C    1.488619
    71  C    1.536467
    72  H   -0.147276
    73  H   -0.293225
    74  H   -0.225123
    75  H   -0.152915
    76  C    1.368949
    77  C    1.536858
    78  H   -0.152466
    79  H   -0.253902
    80  H   -0.144624
    81  H   -0.280283
    82  C    1.508285
    83  C    1.528495
    84  C    1.686590
    85  C    1.550603
    86  H    0.047065
    87  H   -0.179910
    88  H    0.040593
    89  H   -0.061588
    90  H   -0.054548
    91  H    0.005085
    92  H    0.049223
    93  H    0.059216
    94  H   -0.181911
    95  H    0.007151
    96  H   -0.063666
    97  H   -0.056553
    98  H    0.030418
    99  H   -0.157091
   100  H    0.098287
   101  H   -0.073913
   102  H   -0.027547
   103  H   -0.007859
   104  H   -0.002591
   105  H   -0.008953
   106  H   -0.090469
   107  H   -0.047454
   108  H   -0.023936
   109  H   -0.070722
   110  H   -0.010292
   111  H   -0.015414
   112  H   -0.026188
   113  H   -0.055424
   114  H    0.002553
   115  H    0.050868
   116  H   -0.157143
   117  H   -0.265044
 Sum of Mulliken charges =   0.00000

 Dipole moment (field-independent basis, Debye):
    X=              0.8776    Y=              0.4852    Z=              0.5770  Tot=              1.1570
 Quadrupole moment (field-independent basis, Debye-Ang):
   XX=           -357.6650   YY=           -346.5070   ZZ=           -337.4736
   XY=             -0.9636   XZ=             13.2354   YZ=             -7.6998

 Normal termination of Gaussian 16 at Tue Nov  9 11:17:52 2021.
