 Gaussian 16, Revision C.01,
 Gaussian 16:  ES64L-G16RevC.01  3-Jul-2019

 ----------------------------------------------------------------------
 #P PBE1PBE/Def2TZVP SP SCF=(YQC,MaxCycle=900) int=(Grid=Superfinegrid)
  EmpiricalDispersion=GD3 SCRF=(PCM,Solvent=Chloroform)
 ----------------------------------------------------------------------

 -------------------------
 _3_alde1_5_ami1_1_opt_cfm
 -------------------------
 Symbolic Z-matrix:
 Charge =  0 Multiplicity = 1

                         Standard orientation:
 ---------------------------------------------------------------------
 Center     Atomic      Atomic             Coordinates (Angstroms)
 Number     Number       Type             X           Y           Z
 ---------------------------------------------------------------------
      1          6           0       -1.202505   -2.021158    2.071857
      2          6           0       -0.877007   -1.403254    3.347430
      3          6           0       -0.253648   -2.684745    1.295562
      4          6           0       -0.606324   -3.229952    0.064508
      5          1           0        0.756093   -2.771744    1.666802
      6          6           0       -1.902556   -3.052784   -0.419674
      7          6           0       -2.857858   -2.390764    0.341498
      8          1           0       -2.143752   -3.453067   -1.392646
      9          6           0       -2.506375   -1.909224    1.600365
     10          6           0       -4.193792   -2.141011   -0.184465
     11          1           0       -3.266961   -1.418388    2.186535
     12          6           0        0.377479   -3.965311   -0.716526
     13          1           0       -4.303106   -2.250992   -1.274809
     14          1           0       -1.748971   -1.058604    3.923558
     15          1           0        1.374591   -4.053992   -0.261399
     16          6           0        2.594661    0.141657    0.055879
     17          6           0        3.058982   -0.159885    1.464193
     18          6           0        2.396516    1.444256   -0.373200
     19          6           0        1.926482    1.707466   -1.659576
     20          1           0        2.620220    2.258922    0.300091
     21          6           0        1.638783    0.646000   -2.513534
     22          6           0        1.856262   -0.662144   -2.099495
     23          1           0        1.262374    0.865272   -3.500935
     24          6           0        2.336410   -0.903659   -0.813461
     25          6           0        1.552545   -1.786609   -2.973607
     26          1           0        2.508545   -1.919503   -0.501933
     27          6           0        1.714525    3.084636   -2.072856
     28          1           0        0.843161   -1.584706   -3.792306
     29          1           0        1.969355    3.847734   -1.320565
     30          6           0       -1.214167    2.071543    1.619436
     31          6           0       -0.123142    1.812944    2.549998
     32          6           0       -2.484014    1.555148    1.871167
     33          6           0       -3.488019    1.632529    0.912779
     34          1           0       -2.654975    1.058695    2.813529
     35          6           0       -3.226317    2.273616   -0.296968
     36          6           0       -1.987583    2.858348   -0.532838
     37          1           0       -4.008734    2.310247   -1.039641
     38          6           0       -0.980817    2.742916    0.424579
     39          6           0       -1.724129    3.529867   -1.799960
     40          1           0       -0.014252    3.169299    0.208875
     41          6           0       -4.758141    0.965118    1.153549
     42          1           0       -2.374618    3.233257   -2.638319
     43          1           0       -4.897435    0.569059    2.170884
     44          6           0        0.771260    0.991052    4.547592
     45          6           0        0.461330   -0.468190    4.983136
     46          7           0       -0.329222    1.381609    3.716803
     47          1           0        1.712500    0.995483    3.972861
     48          6           0        0.923202    1.976927    5.723848
     49          7           0        0.298934   -1.222886    3.769406
     50          1           0       -0.489395   -0.431625    5.541366
     51          6           0        1.527170   -1.129590    5.872319
     52          1           0        1.720717    1.603722    6.374920
     53          6           0       -0.363422    2.113809    6.532564
     54          6           0        1.352786    3.341099    5.183398
     55          1           0        1.643807   -0.525392    6.777798
     56          6           0        2.874316   -1.245751    5.167464
     57          6           0        1.032205   -2.516483    6.283922
     58          1           0        0.571012    3.760812    4.554100
     59          1           0        2.261682    3.255067    4.590635
     60          1           0        1.541709    4.028888    6.004617
     61          1           0       -0.594242    1.194189    7.063787
     62          1           0       -1.189903    2.352479    5.868644
     63          1           0       -0.258759    2.910950    7.265477
     64          1           0        0.078061   -2.446855    6.802153
     65          1           0        1.749119   -2.995118    6.947265
     66          1           0        0.900092   -3.140154    5.402646
     67          1           0        3.561846   -1.841776    5.764695
     68          1           0        3.319916   -0.265615    5.017376
     69          1           0        2.731823   -1.729086    4.204544
     70          6           0        5.112544    0.874418    1.525334
     71          6           0        5.321563   -0.646613    1.214291
     72          7           0        3.747947    0.992891    2.031787
     73          1           0        5.137649    1.418954    0.573125
     74          6           0        6.164337    1.491602    2.456744
     75          7           0        4.016175   -1.264238    1.447620
     76          1           0        6.068520   -1.083660    1.885803
     77          6           0        5.783659   -0.901680   -0.230477
     78          1           0        7.144212    1.237791    2.038275
     79          6           0        6.108395    0.954594    3.888576
     80          6           0        6.018599    3.012844    2.468150
     81          1           0        5.056812   -0.441611   -0.907008
     82          6           0        5.814730   -2.402915   -0.506935
     83          6           0        7.161826   -0.297176   -0.485635
     84          1           0        6.747009    3.460978    3.140325
     85          1           0        5.020445    3.290300    2.798778
     86          1           0        6.172855    3.419793    1.471587
     87          1           0        5.259297    1.367901    4.430944
     88          1           0        7.009191    1.245788    4.424204
     89          1           0        6.042525   -0.131379    3.907861
     90          1           0        7.892818   -0.713031    0.205990
     91          1           0        7.151644    0.783548   -0.369748
     92          1           0        7.484384   -0.525234   -1.498948
     93          1           0        6.543908   -2.893128    0.135689
     94          1           0        6.087491   -2.589601   -1.542838
     95          1           0        4.837052   -2.834517   -0.318049
     96          6           0        1.149302   -5.107406   -2.586562
     97          6           0        1.673686   -4.040127   -3.586796
     98          7           0        0.102968   -4.474263   -1.837694
     99          1           0        1.994317   -5.367504   -1.927458
    100          6           0        0.606903   -6.388382   -3.241937
    101          7           0        2.062512   -2.922046   -2.782906
    102          1           0        0.849400   -3.769590   -4.269616
    103          6           0        2.873337   -4.517477   -4.430144
    104          1           0        1.416006   -6.850612   -3.816463
    105          6           0       -0.571834   -6.103208   -4.168062
    106          6           0        0.184955   -7.362335   -2.141405
    107          1           0        2.563900   -5.410760   -4.981967
    108          6           0        4.086220   -4.849756   -3.565467
    109          6           0        3.236011   -3.434349   -5.446448
    110          1           0       -0.619826   -6.928548   -1.552363
    111          1           0        1.019660   -7.579396   -1.477687
    112          1           0       -0.162910   -8.297749   -2.573891
    113          1           0       -0.253485   -5.562218   -5.055406
    114          1           0       -1.311774   -5.508686   -3.640095
    115          1           0       -1.030983   -7.036457   -4.486951
    116          1           0        4.038147   -3.779565   -6.094865
    117          1           0        3.567924   -2.533713   -4.934341
    118          1           0        2.378150   -3.182961   -6.067343
    119          1           0        4.955129   -5.027111   -4.195866
    120          1           0        3.913624   -5.742681   -2.970593
    121          1           0        4.297088   -4.018885   -2.898028
    122          6           0       -6.416641   -1.439824   -0.006703
    123          6           0       -6.761687   -0.022737    0.532302
    124          7           0       -5.146015   -1.783317    0.558677
    125          1           0       -6.353227   -1.385383   -1.106653
    126          6           0       -7.461875   -2.511679    0.367816
    127          7           0       -5.620977    0.799515    0.248793
    128          1           0       -6.907557   -0.119773    1.621480
    129          6           0       -8.019434    0.607048   -0.089013
    130          1           0       -8.439099   -2.162532    0.019368
    131          6           0       -7.523561   -2.758718    1.872691
    132          6           0       -7.135585   -3.814387   -0.362473
    133          1           0       -8.871532   -0.050053    0.113632
    134          6           0       -7.879305    0.801957   -1.596175
    135          6           0       -8.279821    1.951567    0.590687
    136          1           0       -7.098976   -3.656787   -1.438649
    137          1           0       -7.895476   -4.563704   -0.152428
    138          1           0       -6.171959   -4.200092   -0.035991
    139          1           0       -7.911208   -1.890937    2.399417
    140          1           0       -6.529011   -2.981828    2.249732
    141          1           0       -8.178041   -3.601745    2.083653
    142          1           0       -8.391294    1.825666    1.665864
    143          1           0       -9.188711    2.405038    0.201912
    144          1           0       -7.446431    2.625965    0.407329
    145          1           0       -6.943902    1.310830   -1.810444
    146          1           0       -8.703621    1.403584   -1.972762
    147          1           0       -7.889892   -0.150271   -2.120059
    148          6           0        0.972261    4.776717   -3.474529
    149          6           0       -0.544095    4.974473   -3.202856
    150          7           0        1.257577    3.396611   -3.206599
    151          1           0        1.514468    5.427740   -2.767668
    152          6           0        1.408162    5.123047   -4.908499
    153          7           0       -0.808493    4.384435   -1.924315
    154          1           0       -1.109195    4.456177   -3.996056
    155          6           0       -0.975609    6.456522   -3.189019
    156          1           0        1.122521    6.159500   -5.117024
    157          6           0        0.762785    4.204673   -5.942616
    158          6           0        2.930859    5.017530   -4.996192
    159          1           0       -0.625403    6.916167   -4.118764
    160          6           0       -0.391412    7.218417   -2.002252
    161          6           0       -2.501623    6.540810   -3.161722
    162          1           0        3.242339    3.996931   -4.785792
    163          1           0        3.406222    5.679373   -4.274749
    164          1           0        3.275202    5.290154   -5.991173
    165          1           0        1.215937    4.365137   -6.918477
    166          1           0       -0.303507    4.395857   -6.030845
    167          1           0        0.911058    3.169458   -5.649426
    168          1           0       -2.934170    6.019037   -4.013187
    169          1           0       -2.822085    7.579572   -3.198887
    170          1           0       -2.888505    6.093900   -2.248088
    171          1           0       -0.638118    6.704572   -1.076998
    172          1           0       -0.803150    8.224810   -1.968709
    173          1           0        0.689573    7.298705   -2.078276
    174          1           0        0.888598    1.961833    2.146011
    175          1           0        4.005448   -1.746237    2.339873
    176          1           0        2.176340   -0.424127    2.061010
    177          1           0        3.758327    0.906209    3.043817
 ---------------------------------------------------------------------

 SCF Done:  E(RPBE1PBE) =  -3158.31880390     a.u. after    7 cycles
 SCF Done:  E(RPBE1PBE) =  -3158.31882304     A.U. after    8 cycles

 The electronic state is 1-A.
 Alpha  occ. eigenvalues --  -14.37595 -14.37593 -14.37586 -14.37496 -14.37224
 Alpha  occ. eigenvalues --  -14.37139 -14.37075 -14.36919 -14.36793 -14.36440
 Alpha  occ. eigenvalues --  -10.27381 -10.26590 -10.26544 -10.26474 -10.26434
 Alpha  occ. eigenvalues --  -10.26243 -10.26140 -10.26102 -10.25837 -10.25305
 Alpha  occ. eigenvalues --  -10.25059 -10.25007 -10.24888 -10.24787 -10.24760
 Alpha  occ. eigenvalues --  -10.24577 -10.24541 -10.24273 -10.24268 -10.24222
 Alpha  occ. eigenvalues --  -10.24194 -10.24187 -10.24161 -10.24126 -10.24068
 Alpha  occ. eigenvalues --  -10.23889 -10.23756 -10.23733 -10.23720 -10.23702
 Alpha  occ. eigenvalues --  -10.23696 -10.23376 -10.23359 -10.23045 -10.22830
 Alpha  occ. eigenvalues --  -10.22783 -10.22771 -10.22672 -10.22667 -10.22656
 Alpha  occ. eigenvalues --  -10.22570 -10.22423 -10.22280 -10.22216 -10.22165
 Alpha  occ. eigenvalues --  -10.22141 -10.21332 -10.21065 -10.20597 -10.20389
 Alpha  occ. eigenvalues --  -10.20320 -10.20311 -10.20291 -10.20241 -10.20139
 Alpha  occ. eigenvalues --  -10.20099 -10.20071 -10.20065 -10.20014 -10.19972
 Alpha  occ. eigenvalues --  -10.19963 -10.19903 -10.19812 -10.19751 -10.19745
 Alpha  occ. eigenvalues --  -10.19663 -10.19186  -0.99323  -0.97981  -0.97807
 Alpha  occ. eigenvalues --   -0.97611  -0.97578  -0.95132  -0.94732  -0.94673
 Alpha  occ. eigenvalues --   -0.94457  -0.90366  -0.89654  -0.89178  -0.88286
 Alpha  occ. eigenvalues --   -0.84901  -0.84495  -0.84404  -0.83775  -0.83362
 Alpha  occ. eigenvalues --   -0.82415  -0.82152  -0.81695  -0.81643  -0.80711
 Alpha  occ. eigenvalues --   -0.80064  -0.79866  -0.79662  -0.79485  -0.79064
 Alpha  occ. eigenvalues --   -0.78879  -0.74902  -0.74169  -0.74041  -0.73886
 Alpha  occ. eigenvalues --   -0.73052  -0.70870  -0.70688  -0.70397  -0.70353
 Alpha  occ. eigenvalues --   -0.70290  -0.70227  -0.70040  -0.69928  -0.69902
 Alpha  occ. eigenvalues --   -0.69771  -0.69168  -0.68957  -0.68901  -0.68653
 Alpha  occ. eigenvalues --   -0.66857  -0.66679  -0.65905  -0.65850  -0.64429
 Alpha  occ. eigenvalues --   -0.63982  -0.63925  -0.63462  -0.62621  -0.62301
 Alpha  occ. eigenvalues --   -0.60134  -0.59682  -0.59526  -0.59082  -0.58623
 Alpha  occ. eigenvalues --   -0.57867  -0.57689  -0.57509  -0.56852  -0.56564
 Alpha  occ. eigenvalues --   -0.56152  -0.55699  -0.55498  -0.55172  -0.54992
 Alpha  occ. eigenvalues --   -0.54424  -0.53502  -0.53325  -0.53044  -0.52782
 Alpha  occ. eigenvalues --   -0.51961  -0.51817  -0.51659  -0.50771  -0.50461
 Alpha  occ. eigenvalues --   -0.50191  -0.50079  -0.49875  -0.49700  -0.49502
 Alpha  occ. eigenvalues --   -0.49323  -0.48926  -0.48663  -0.48470  -0.48263
 Alpha  occ. eigenvalues --   -0.48104  -0.47674  -0.47060  -0.46799  -0.46730
 Alpha  occ. eigenvalues --   -0.46433  -0.46248  -0.46014  -0.45781  -0.45216
 Alpha  occ. eigenvalues --   -0.45099  -0.45079  -0.44967  -0.44917  -0.44704
 Alpha  occ. eigenvalues --   -0.44447  -0.44295  -0.44060  -0.43635  -0.43421
 Alpha  occ. eigenvalues --   -0.43165  -0.43130  -0.43089  -0.42941  -0.42901
 Alpha  occ. eigenvalues --   -0.42704  -0.42610  -0.42509  -0.42465  -0.42110
 Alpha  occ. eigenvalues --   -0.41912  -0.41888  -0.41633  -0.41535  -0.40829
 Alpha  occ. eigenvalues --   -0.40480  -0.40207  -0.40177  -0.40086  -0.40013
 Alpha  occ. eigenvalues --   -0.39987  -0.39736  -0.39684  -0.39606  -0.39494
 Alpha  occ. eigenvalues --   -0.39259  -0.39125  -0.39022  -0.38939  -0.38881
 Alpha  occ. eigenvalues --   -0.38806  -0.38584  -0.38548  -0.38160  -0.38074
 Alpha  occ. eigenvalues --   -0.37994  -0.37879  -0.37740  -0.37589  -0.37348
 Alpha  occ. eigenvalues --   -0.37078  -0.36763  -0.36641  -0.36556  -0.36317
 Alpha  occ. eigenvalues --   -0.35949  -0.35717  -0.35618  -0.35254  -0.35147
 Alpha  occ. eigenvalues --   -0.34991  -0.34967  -0.34905  -0.34760  -0.34674
 Alpha  occ. eigenvalues --   -0.34630  -0.34574  -0.34526  -0.34461  -0.34266
 Alpha  occ. eigenvalues --   -0.34067  -0.33943  -0.33863  -0.33731  -0.33680
 Alpha  occ. eigenvalues --   -0.33598  -0.33465  -0.33053  -0.33024  -0.32842
 Alpha  occ. eigenvalues --   -0.32804  -0.32630  -0.32405  -0.32281  -0.32200
 Alpha  occ. eigenvalues --   -0.32069  -0.31871  -0.30233  -0.30027  -0.29438
 Alpha  occ. eigenvalues --   -0.27568  -0.27115  -0.26915  -0.26858  -0.26813
 Alpha  occ. eigenvalues --   -0.26521  -0.26437  -0.26187  -0.26168  -0.25868
 Alpha  occ. eigenvalues --   -0.25715  -0.25417  -0.25396  -0.25206  -0.24721
 Alpha  occ. eigenvalues --   -0.23712
 Alpha virt. eigenvalues --   -0.06350  -0.06192  -0.05536  -0.05231  -0.04941
 Alpha virt. eigenvalues --   -0.03842  -0.02276  -0.01291   0.01767   0.02907
 Alpha virt. eigenvalues --    0.03974   0.04172   0.04290   0.04519   0.04534

 Mulliken charges:
               1
     1  C    0.371441
     2  C   -0.195311
     3  C   -0.363368
     4  C    0.402672
     5  H    0.142356
     6  C   -0.372313
     7  C    0.338901
     8  H    0.142729
     9  C   -0.294379
    10  C   -0.185713
    11  H    0.135861
    12  C   -0.217755
    13  H    0.089774
    14  H    0.103755
    15  H    0.100218
    16  C    0.168802
    17  C    0.199528
    18  C   -0.435453
    19  C    0.415127
    20  H    0.159843
    21  C   -0.411427
    22  C    0.420317
    23  H    0.134587
    24  C   -0.428395
    25  C   -0.196880
    26  H    0.140079
    27  C   -0.189387
    28  H    0.086460
    29  H    0.085324
    30  C    0.321182
    31  C   -0.173572
    32  C   -0.315362
    33  C    0.381667
    34  H    0.138468
    35  C   -0.384223
    36  C    0.372056
    37  H    0.142901
    38  C   -0.321298
    39  C   -0.174379
    40  H    0.124179
    41  C   -0.189885
    42  H    0.091606
    43  H    0.094296
    44  C    0.165795
    45  C    0.134141
    46  N   -0.273280
    47  H   -0.003591
    48  C   -0.033162
    49  N   -0.277757
    50  H    0.089964
    51  C    0.018197
    52  H    0.086066
    53  C   -0.420316
    54  C   -0.396075
    55  H    0.088948
    56  C   -0.431566
    57  C   -0.403436
    58  H    0.127605
    59  H    0.124597
    60  H    0.129921
    61  H    0.127261
    62  H    0.133743
    63  H    0.126052
    64  H    0.121324
    65  H    0.128085
    66  H    0.129420
    67  H    0.132345
    68  H    0.116191
    69  H    0.117488
    70  C   -0.052032
    71  C   -0.030483
    72  N   -0.331946
    73  H    0.096994
    74  C   -0.022578
    75  N   -0.325344
    76  H    0.096431
    77  C   -0.024635
    78  H    0.094657
    79  C   -0.437281
    80  C   -0.379595
    81  H    0.086768
    82  C   -0.405633
    83  C   -0.395319
    84  H    0.126872
    85  H    0.127961
    86  H    0.122371
    87  H    0.128662
    88  H    0.138829
    89  H    0.136403
    90  H    0.117340
    91  H    0.128997
    92  H    0.129458
    93  H    0.107193
    94  H    0.121259
    95  H    0.134582
    96  C    0.090596
    97  C    0.089681
    98  N   -0.256062
    99  H    0.088869
   100  C    0.004734
   101  N   -0.262568
   102  H    0.087177
   103  C   -0.018557
   104  H    0.086108
   105  C   -0.426139
   106  C   -0.403457
   107  H    0.087162
   108  C   -0.425988
   109  C   -0.395492
   110  H    0.128432
   111  H    0.118866
   112  H    0.126612
   113  H    0.125795
   114  H    0.133952
   115  H    0.122559
   116  H    0.128100
   117  H    0.127774
   118  H    0.118353
   119  H    0.120768
   120  H    0.123940
   121  H    0.141452
   122  C    0.088645
   123  C    0.103325
   124  N   -0.259911
   125  H    0.089442
   126  C   -0.020039
   127  N   -0.260966
   128  H    0.082594
   129  C    0.003991
   130  H    0.084889
   131  C   -0.418177
   132  C   -0.396577
   133  H    0.083137
   134  C   -0.425363
   135  C   -0.402347
   136  H    0.120454
   137  H    0.129462
   138  H    0.127389
   139  H    0.124464
   140  H    0.132664
   141  H    0.124182
   142  H    0.118656
   143  H    0.127070
   144  H    0.128208
   145  H    0.134337
   146  H    0.122768
   147  H    0.124654
   148  C    0.120535
   149  C    0.094262
   150  N   -0.258718
   151  H    0.073223
   152  C    0.010027
   153  N   -0.266325
   154  H    0.082145
   155  C   -0.013971
   156  H    0.077872
   157  C   -0.422769
   158  C   -0.401762
   159  H    0.080184
   160  C   -0.414444
   161  C   -0.398974
   162  H    0.128540
   163  H    0.117908
   164  H    0.126063
   165  H    0.121139
   166  H    0.121927
   167  H    0.135146
   168  H    0.120632
   169  H    0.128779
   170  H    0.127685
   171  H    0.132693
   172  H    0.123007
   173  H    0.122037
   174  H    0.105471
   175  H    0.195087
   176  H    0.143766
   177  H    0.156297
 Sum of Mulliken charges =   0.00000

 Dipole moment (field-independent basis, Debye):
    X=              0.9827    Y=              0.1469    Z=              2.1200  Tot=              2.3413
 Quadrupole moment (field-independent basis, Debye-Ang):
   XX=           -453.3357   YY=           -476.1437   ZZ=           -452.7709
   XY=              4.4605   XZ=             17.8118   YZ=             -1.0703

 Normal termination of Gaussian 16 at Mon Oct 18 07:14:29 2021.
