 Gaussian 16, Revision C.01,
 Gaussian 16:  ES64L-G16RevC.01  3-Jul-2019

 ----------------------------------------------------------------------
 #P PBE1PBE/Def2TZVP SP SCF=(YQC,MaxCycle=900) int=(Grid=Superfinegrid)
  EmpiricalDispersion=GD3
 ----------------------------------------------------------------------

 -------------------------
 _3_alde1_4_ami2_1_opt_gas
 -------------------------
 Symbolic Z-matrix:
 Charge =  0 Multiplicity = 1

                         Standard orientation:
 ---------------------------------------------------------------------
 Center     Atomic      Atomic             Coordinates (Angstroms)
 Number     Number       Type             X           Y           Z
 ---------------------------------------------------------------------
      1          6           0        1.283584    1.946405    1.736278
      2          6           0        0.790153    1.367774    2.984207
      3          6           0        0.498902    2.830213    1.007513
      4          6           0        0.948321    3.345344   -0.210153
      5          1           0       -0.467680    3.143945    1.370133
      6          6           0        2.167523    2.919847   -0.724529
      7          6           0        2.956995    2.016823   -0.013588
      8          1           0        2.519352    3.267056   -1.684230
      9          6           0        2.525370    1.567189    1.228957
     10          6           0        4.180531    1.470972   -0.581011
     11          1           0        3.125555    0.886885    1.811494
     12          6           0        0.117187    4.277256   -0.959713
     13          1           0        4.811442    0.899995    0.116164
     14          1           0       -0.288594    1.480265    3.147512
     15          1           0        0.565400    4.706168   -1.868766
     16          6           0       -3.396101   -0.083847    1.791214
     17          6           0       -3.464707   -0.352947    3.233300
     18          6           0       -3.383565   -1.127769    0.871689
     19          6           0       -3.295785   -0.859096   -0.493138
     20          1           0       -3.434875   -2.156049    1.195369
     21          6           0       -3.227493    0.462145   -0.921614
     22          6           0       -3.259724    1.519723   -0.013119
     23          1           0       -3.152532    0.702481   -1.971442
     24          6           0       -3.337126    1.237662    1.344464
     25          6           0       -3.154227    2.898305   -0.480308
     26          1           0       -3.352704    2.031457    2.077800
     27          6           0       -3.255057   -1.936154   -1.478428
     28          1           0       -3.127992    3.658907    0.305325
     29          1           0       -3.514757   -1.430276    3.485985
     30          1           0       -2.957525   -1.616025   -2.483272
     31          6           0        2.044168   -2.244435    1.408862
     32          6           0        2.411136   -1.798010    2.743668
     33          6           0        2.817770   -1.869641    0.317735
     34          6           0        2.408958   -2.160495   -0.983205
     35          1           0        3.734777   -1.317366    0.448272
     36          6           0        1.239209   -2.884822   -1.182491
     37          6           0        0.475217   -3.309495   -0.094101
     38          1           0        0.900042   -3.134351   -2.176529
     39          6           0        0.872167   -2.966965    1.193590
     40          6           0       -0.744218   -4.080328   -0.276857
     41          1           0        0.280394   -3.249049    2.051062
     42          6           0        3.164196   -1.632230   -2.115836
     43          1           0       -1.287223   -4.320958    0.650250
     44          1           0        2.653980   -1.710340   -3.083816
     45          6           0        1.957192   -1.247951    4.943593
     46          6           0        1.169066    0.095634    4.973995
     47          7           0        1.628190   -1.914370    3.726869
     48          7           0        1.573079    0.772561    3.770132
     49          8           0       -3.466524    0.488296    4.096073
     50          6           0       -1.936608    5.359124   -1.335391
     51          6           0       -2.844435    4.462329   -2.241392
     52          7           0       -1.051055    4.548233   -0.569852
     53          7           0       -3.066907    3.142885   -1.713946
     54          6           0        5.587425    0.851973   -2.306917
     55          6           0        5.062039   -0.453961   -2.973452
     56          7           0        4.472043    1.587592   -1.803779
     57          7           0        4.292273   -1.099731   -1.944615
     58          6           0       -3.485559   -4.230086   -2.078077
     59          6           0       -2.395552   -5.165043   -1.485318
     60          7           0       -3.552921   -3.119106   -1.167347
     61          7           0       -1.155380   -4.462656   -1.406974
     62          1           0        3.389709   -1.303160    2.830277
     63          1           0       -1.414392    6.073875   -1.988026
     64          1           0       -2.560460    5.912266   -0.627324
     65          1           0       -2.264658   -6.016992   -2.156543
     66          1           0       -2.738398   -5.516482   -0.499601
     67          1           0        1.644443   -1.868690    5.785216
     68          1           0        3.031255   -1.020422    5.020514
     69          6           0       -3.136246   -3.904341   -3.532772
     70          1           0       -3.845836   -3.191374   -3.948728
     71          1           0       -3.178902   -4.815563   -4.123344
     72          1           0       -2.129459   -3.499305   -3.596768
     73          6           0       -4.842699   -4.938705   -2.004287
     74          1           0       -4.801903   -5.892226   -2.524332
     75          1           0       -5.607330   -4.317187   -2.464742
     76          1           0       -5.116736   -5.108698   -0.966679
     77          6           0       -2.158132    4.245892   -3.595535
     78          1           0       -1.182250    3.789170   -3.447525
     79          1           0       -2.038394    5.187810   -4.124943
     80          1           0       -2.760030    3.571820   -4.198823
     81          6           0       -4.197228    5.152781   -2.449682
     82          1           0       -4.051559    6.139828   -2.881752
     83          1           0       -4.720219    5.254019   -1.500960
     84          1           0       -4.812453    4.558867   -3.121241
     85          6           0       -0.325794   -0.202511    5.105979
     86          1           0       -0.913568    0.711130    5.154408
     87          1           0       -0.504662   -0.767202    6.016926
     88          1           0       -0.657899   -0.796261    4.257056
     89          6           0        1.654887    0.936529    6.159522
     90          1           0        2.704173    1.191026    6.033518
     91          1           0        1.529925    0.384629    7.087446
     92          1           0        1.079644    1.857967    6.215756
     93          6           0        6.254033   -1.362743   -3.295917
     94          1           0        6.759601   -1.655897   -2.379464
     95          1           0        6.957998   -0.844415   -3.941727
     96          1           0        5.906379   -2.261961   -3.800105
     97          1           0        6.291742    0.569053   -1.509829
     98          1           0        6.098927    1.457478   -3.057698
     99          6           0        4.302092   -0.101086   -4.255163
    100          1           0        3.449693    0.530553   -4.015787
    101          1           0        3.958190   -0.998903   -4.764808
    102          1           0        4.960119    0.440731   -4.929101
 ---------------------------------------------------------------------

 SCF Done:  E(RPBE1PBE) =  -2180.11133281     a.u. after    7 cycles
 SCF Done:  E(RPBE1PBE) =  -2180.11134128     A.U. after    9 cycles

 The electronic state is 1-A.
 Alpha  occ. eigenvalues --  -19.20520 -14.37905 -14.37876 -14.37570 -14.37560
 Alpha  occ. eigenvalues --  -14.37258 -14.37253 -14.37253 -14.37077 -10.31113
 Alpha  occ. eigenvalues --  -10.26986 -10.26962 -10.26859 -10.26782 -10.26736
 Alpha  occ. eigenvalues --  -10.26655 -10.26595 -10.26506 -10.26268 -10.26243
 Alpha  occ. eigenvalues --  -10.26198 -10.26096 -10.25163 -10.24848 -10.24788
 Alpha  occ. eigenvalues --  -10.24716 -10.24708 -10.24667 -10.24599 -10.24399
 Alpha  occ. eigenvalues --  -10.24349 -10.24090 -10.24056 -10.24050 -10.24021
 Alpha  occ. eigenvalues --  -10.23956 -10.23919 -10.23908 -10.23646 -10.23597
 Alpha  occ. eigenvalues --  -10.23515 -10.23483 -10.23472 -10.23459 -10.21650
 Alpha  occ. eigenvalues --  -10.21314 -10.21119 -10.20919 -10.20844 -10.20836
 Alpha  occ. eigenvalues --  -10.20826 -10.19880  -1.08203  -0.97955  -0.97778
 Alpha  occ. eigenvalues --   -0.97560  -0.97294  -0.95125  -0.95060  -0.94694
 Alpha  occ. eigenvalues --   -0.94375  -0.90737  -0.89942  -0.89330  -0.84066
 Alpha  occ. eigenvalues --   -0.83701  -0.83422  -0.82373  -0.80474  -0.80430
 Alpha  occ. eigenvalues --   -0.79909  -0.78969  -0.78729  -0.78134  -0.73030
 Alpha  occ. eigenvalues --   -0.72247  -0.71885  -0.71749  -0.71717  -0.71671
 Alpha  occ. eigenvalues --   -0.71533  -0.70886  -0.68708  -0.68462  -0.68109
 Alpha  occ. eigenvalues --   -0.67744  -0.67303  -0.65688  -0.65482  -0.64373
 Alpha  occ. eigenvalues --   -0.63055  -0.61119  -0.60500  -0.59792  -0.59140
 Alpha  occ. eigenvalues --   -0.56615  -0.55971  -0.55747  -0.54961  -0.54610
 Alpha  occ. eigenvalues --   -0.54476  -0.54135  -0.53829  -0.53509  -0.52304
 Alpha  occ. eigenvalues --   -0.51775  -0.51496  -0.50583  -0.50377  -0.50019
 Alpha  occ. eigenvalues --   -0.49450  -0.49259  -0.48650  -0.48557  -0.48531
 Alpha  occ. eigenvalues --   -0.48056  -0.47974  -0.47625  -0.47154  -0.47048
 Alpha  occ. eigenvalues --   -0.46954  -0.46120  -0.45923  -0.45626  -0.45330
 Alpha  occ. eigenvalues --   -0.44836  -0.44712  -0.44653  -0.44293  -0.43726
 Alpha  occ. eigenvalues --   -0.43544  -0.42530  -0.42211  -0.41908  -0.41643
 Alpha  occ. eigenvalues --   -0.41499  -0.41326  -0.41153  -0.40917  -0.40759
 Alpha  occ. eigenvalues --   -0.40603  -0.40020  -0.39972  -0.39900  -0.39847
 Alpha  occ. eigenvalues --   -0.39662  -0.39572  -0.39208  -0.38987  -0.38798
 Alpha  occ. eigenvalues --   -0.38379  -0.38038  -0.38019  -0.37696  -0.37399
 Alpha  occ. eigenvalues --   -0.36980  -0.36753  -0.36731  -0.36282  -0.36201
 Alpha  occ. eigenvalues --   -0.35814  -0.35715  -0.35314  -0.34748  -0.34451
 Alpha  occ. eigenvalues --   -0.34295  -0.33807  -0.33486  -0.32323  -0.30497
 Alpha  occ. eigenvalues --   -0.29968  -0.27909  -0.27676  -0.27219  -0.27000
 Alpha  occ. eigenvalues --   -0.26869  -0.26716  -0.26552  -0.26467  -0.26320
 Alpha  occ. eigenvalues --   -0.26055  -0.25842  -0.25486  -0.25314  -0.25247
 Alpha  occ. eigenvalues --   -0.24684
 Alpha virt. eigenvalues --   -0.07330  -0.06362  -0.06076  -0.05672  -0.05515
 Alpha virt. eigenvalues --   -0.05041  -0.02595  -0.02166  -0.01238   0.03895
 Alpha virt. eigenvalues --    0.04237   0.04384   0.04640   0.05056   0.05220

 Mulliken charges:
               1
     1  C    0.340593
     2  C   -0.151911
     3  C   -0.361886
     4  C    0.389380
     5  H    0.115846
     6  C   -0.370877
     7  C    0.383149
     8  H    0.119936
     9  C   -0.288857
    10  C   -0.173815
    11  H    0.113718
    12  C   -0.169500
    13  H    0.081143
    14  H    0.094706
    15  H    0.087734
    16  C    0.301977
    17  C    0.034699
    18  C   -0.337928
    19  C    0.343389
    20  H    0.120284
    21  C   -0.343623
    22  C    0.388972
    23  H    0.127152
    24  C   -0.355839
    25  C   -0.142198
    26  H    0.137111
    27  C   -0.124795
    28  H    0.088660
    29  H    0.083459
    30  H    0.088551
    31  C    0.370847
    32  C   -0.179793
    33  C   -0.285500
    34  C    0.333043
    35  H    0.119691
    36  C   -0.377650
    37  C    0.367093
    38  H    0.129003
    39  C   -0.340226
    40  C   -0.156880
    41  H    0.123587
    42  C   -0.144281
    43  H    0.065770
    44  H    0.080560
    45  C   -0.039349
    46  C    0.139528
    47  N   -0.200777
    48  N   -0.183495
    49  O   -0.289306
    50  C   -0.136540
    51  C    0.171588
    52  N   -0.197539
    53  N   -0.185210
    54  C   -0.042216
    55  C    0.122683
    56  N   -0.199922
    57  N   -0.184202
    58  C    0.139325
    59  C   -0.059268
    60  N   -0.188879
    61  N   -0.185791
    62  H    0.081437
    63  H    0.095585
    64  H    0.125181
    65  H    0.113111
    66  H    0.077779
    67  H    0.110819
    68  H    0.074394
    69  C   -0.424369
    70  H    0.129252
    71  H    0.125460
    72  H    0.148834
    73  C   -0.348354
    74  H    0.115125
    75  H    0.122178
    76  H    0.129460
    77  C   -0.380538
    78  H    0.125617
    79  H    0.114150
    80  H    0.124958
    81  C   -0.382543
    82  H    0.122276
    83  H    0.125349
    84  H    0.129645
    85  C   -0.453459
    86  H    0.146781
    87  H    0.123010
    88  H    0.140421
    89  C   -0.357447
    90  H    0.129250
    91  H    0.117948
    92  H    0.123977
    93  C   -0.360023
    94  H    0.131282
    95  H    0.118689
    96  H    0.122554
    97  H    0.076608
    98  H    0.110794
    99  C   -0.428130
   100  H    0.151771
   101  H    0.123621
   102  H    0.122422
 Sum of Mulliken charges =   0.00000

 Dipole moment (field-independent basis, Debye):
    X=              0.2072    Y=              0.3439    Z=             -3.1159  Tot=              3.1416
 Quadrupole moment (field-independent basis, Debye-Ang):
   XX=           -304.4841   YY=           -296.8606   ZZ=           -303.1340
   XY=              1.0624   XZ=              6.4048   YZ=             -5.1857

 Normal termination of Gaussian 16 at Mon Oct 18 00:46:01 2021.
