 Gaussian 16, Revision C.01,
 Gaussian 16:  ES64L-G16RevC.01  3-Jul-2019

 ----------------------------------------------------------------------
 #P PBE1PBE/Def2TZVP SP SCF=(YQC,MaxCycle=900) int=(Grid=Superfinegrid)
  EmpiricalDispersion=GD3 SCRF=(PCM,Solvent=Chloroform)
 ----------------------------------------------------------------------

 -------------------------
 _3_alde1_4_ami2_1_opt_cfm
 -------------------------
 Symbolic Z-matrix:
 Charge =  0 Multiplicity = 1

                         Standard orientation:
 ---------------------------------------------------------------------
 Center     Atomic      Atomic             Coordinates (Angstroms)
 Number     Number       Type             X           Y           Z
 ---------------------------------------------------------------------
      1          6           0        1.283584    1.946405    1.736278
      2          6           0        0.790153    1.367774    2.984207
      3          6           0        0.498902    2.830213    1.007513
      4          6           0        0.948321    3.345344   -0.210153
      5          1           0       -0.467680    3.143945    1.370133
      6          6           0        2.167523    2.919847   -0.724529
      7          6           0        2.956995    2.016823   -0.013588
      8          1           0        2.519352    3.267056   -1.684230
      9          6           0        2.525370    1.567189    1.228957
     10          6           0        4.180531    1.470972   -0.581011
     11          1           0        3.125555    0.886885    1.811494
     12          6           0        0.117187    4.277256   -0.959713
     13          1           0        4.811442    0.899995    0.116164
     14          1           0       -0.288594    1.480265    3.147512
     15          1           0        0.565400    4.706168   -1.868766
     16          6           0       -3.396101   -0.083847    1.791214
     17          6           0       -3.464707   -0.352947    3.233300
     18          6           0       -3.383565   -1.127769    0.871689
     19          6           0       -3.295785   -0.859096   -0.493138
     20          1           0       -3.434875   -2.156049    1.195369
     21          6           0       -3.227493    0.462145   -0.921614
     22          6           0       -3.259724    1.519723   -0.013119
     23          1           0       -3.152532    0.702481   -1.971442
     24          6           0       -3.337126    1.237662    1.344464
     25          6           0       -3.154227    2.898305   -0.480308
     26          1           0       -3.352704    2.031457    2.077800
     27          6           0       -3.255057   -1.936154   -1.478428
     28          1           0       -3.127992    3.658907    0.305325
     29          1           0       -3.514757   -1.430276    3.485985
     30          1           0       -2.957525   -1.616025   -2.483272
     31          6           0        2.044168   -2.244435    1.408862
     32          6           0        2.411136   -1.798010    2.743668
     33          6           0        2.817770   -1.869641    0.317735
     34          6           0        2.408958   -2.160495   -0.983205
     35          1           0        3.734777   -1.317366    0.448272
     36          6           0        1.239209   -2.884822   -1.182491
     37          6           0        0.475217   -3.309495   -0.094101
     38          1           0        0.900042   -3.134351   -2.176529
     39          6           0        0.872167   -2.966965    1.193590
     40          6           0       -0.744218   -4.080328   -0.276857
     41          1           0        0.280394   -3.249049    2.051062
     42          6           0        3.164196   -1.632230   -2.115836
     43          1           0       -1.287223   -4.320958    0.650250
     44          1           0        2.653980   -1.710340   -3.083816
     45          6           0        1.957192   -1.247951    4.943593
     46          6           0        1.169066    0.095634    4.973995
     47          7           0        1.628190   -1.914370    3.726869
     48          7           0        1.573079    0.772561    3.770132
     49          8           0       -3.466524    0.488296    4.096073
     50          6           0       -1.936608    5.359124   -1.335391
     51          6           0       -2.844435    4.462329   -2.241392
     52          7           0       -1.051055    4.548233   -0.569852
     53          7           0       -3.066907    3.142885   -1.713946
     54          6           0        5.587425    0.851973   -2.306917
     55          6           0        5.062039   -0.453961   -2.973452
     56          7           0        4.472043    1.587592   -1.803779
     57          7           0        4.292273   -1.099731   -1.944615
     58          6           0       -3.485559   -4.230086   -2.078077
     59          6           0       -2.395552   -5.165043   -1.485318
     60          7           0       -3.552921   -3.119106   -1.167347
     61          7           0       -1.155380   -4.462656   -1.406974
     62          1           0        3.389709   -1.303160    2.830277
     63          1           0       -1.414392    6.073875   -1.988026
     64          1           0       -2.560460    5.912266   -0.627324
     65          1           0       -2.264658   -6.016992   -2.156543
     66          1           0       -2.738398   -5.516482   -0.499601
     67          1           0        1.644443   -1.868690    5.785216
     68          1           0        3.031255   -1.020422    5.020514
     69          6           0       -3.136246   -3.904341   -3.532772
     70          1           0       -3.845836   -3.191374   -3.948728
     71          1           0       -3.178902   -4.815563   -4.123344
     72          1           0       -2.129459   -3.499305   -3.596768
     73          6           0       -4.842699   -4.938705   -2.004287
     74          1           0       -4.801903   -5.892226   -2.524332
     75          1           0       -5.607330   -4.317187   -2.464742
     76          1           0       -5.116736   -5.108698   -0.966679
     77          6           0       -2.158132    4.245892   -3.595535
     78          1           0       -1.182250    3.789170   -3.447525
     79          1           0       -2.038394    5.187810   -4.124943
     80          1           0       -2.760030    3.571820   -4.198823
     81          6           0       -4.197228    5.152781   -2.449682
     82          1           0       -4.051559    6.139828   -2.881752
     83          1           0       -4.720219    5.254019   -1.500960
     84          1           0       -4.812453    4.558867   -3.121241
     85          6           0       -0.325794   -0.202511    5.105979
     86          1           0       -0.913568    0.711130    5.154408
     87          1           0       -0.504662   -0.767202    6.016926
     88          1           0       -0.657899   -0.796261    4.257056
     89          6           0        1.654887    0.936529    6.159522
     90          1           0        2.704173    1.191026    6.033518
     91          1           0        1.529925    0.384629    7.087446
     92          1           0        1.079644    1.857967    6.215756
     93          6           0        6.254033   -1.362743   -3.295917
     94          1           0        6.759601   -1.655897   -2.379464
     95          1           0        6.957998   -0.844415   -3.941727
     96          1           0        5.906379   -2.261961   -3.800105
     97          1           0        6.291742    0.569053   -1.509829
     98          1           0        6.098927    1.457478   -3.057698
     99          6           0        4.302092   -0.101086   -4.255163
    100          1           0        3.449693    0.530553   -4.015787
    101          1           0        3.958190   -0.998903   -4.764808
    102          1           0        4.960119    0.440731   -4.929101
 ---------------------------------------------------------------------

 SCF Done:  E(RPBE1PBE) =  -2180.12332233     a.u. after    7 cycles
 SCF Done:  E(RPBE1PBE) =  -2180.12332747     A.U. after    8 cycles

 The electronic state is 1-A.
 Alpha  occ. eigenvalues --  -19.21071 -14.37909 -14.37870 -14.37750 -14.37708
 Alpha  occ. eigenvalues --  -14.37614 -14.37533 -14.37463 -14.37291 -10.31542
 Alpha  occ. eigenvalues --  -10.26861 -10.26822 -10.26756 -10.26716 -10.26683
 Alpha  occ. eigenvalues --  -10.26658 -10.26622 -10.26577 -10.26566 -10.26462
 Alpha  occ. eigenvalues --  -10.26453 -10.26419 -10.24955 -10.24889 -10.24825
 Alpha  occ. eigenvalues --  -10.24815 -10.24797 -10.24717 -10.24600 -10.24511
 Alpha  occ. eigenvalues --  -10.24339 -10.24319 -10.24316 -10.24315 -10.24253
 Alpha  occ. eigenvalues --  -10.24243 -10.24220 -10.24212 -10.23898 -10.23835
 Alpha  occ. eigenvalues --  -10.23803 -10.23761 -10.23738 -10.23714 -10.21238
 Alpha  occ. eigenvalues --  -10.21108 -10.20937 -10.20892 -10.20640 -10.20637
 Alpha  occ. eigenvalues --  -10.20538 -10.20195  -1.08808  -0.97921  -0.97813
 Alpha  occ. eigenvalues --   -0.97728  -0.97606  -0.95242  -0.95163  -0.94820
 Alpha  occ. eigenvalues --   -0.94692  -0.90867  -0.90203  -0.89608  -0.84031
 Alpha  occ. eigenvalues --   -0.83831  -0.83468  -0.82477  -0.80667  -0.80655
 Alpha  occ. eigenvalues --   -0.80036  -0.79107  -0.78753  -0.78332  -0.72939
 Alpha  occ. eigenvalues --   -0.72321  -0.71960  -0.71842  -0.71526  -0.71439
 Alpha  occ. eigenvalues --   -0.71347  -0.71161  -0.68780  -0.68541  -0.68271
 Alpha  occ. eigenvalues --   -0.67966  -0.67316  -0.65862  -0.65623  -0.64490
 Alpha  occ. eigenvalues --   -0.63213  -0.61093  -0.60645  -0.59839  -0.59243
 Alpha  occ. eigenvalues --   -0.56688  -0.56049  -0.55855  -0.55089  -0.54637
 Alpha  occ. eigenvalues --   -0.54555  -0.54265  -0.53979  -0.53640  -0.52364
 Alpha  occ. eigenvalues --   -0.51803  -0.51563  -0.50722  -0.50491  -0.49998
 Alpha  occ. eigenvalues --   -0.49553  -0.49299  -0.48812  -0.48606  -0.48451
 Alpha  occ. eigenvalues --   -0.48051  -0.48010  -0.47732  -0.47375  -0.47163
 Alpha  occ. eigenvalues --   -0.47034  -0.46298  -0.45943  -0.45727  -0.45449
 Alpha  occ. eigenvalues --   -0.45045  -0.44871  -0.44760  -0.44435  -0.43980
 Alpha  occ. eigenvalues --   -0.43500  -0.42739  -0.42365  -0.41760  -0.41708
 Alpha  occ. eigenvalues --   -0.41609  -0.41278  -0.41065  -0.41029  -0.40955
 Alpha  occ. eigenvalues --   -0.40729  -0.39959  -0.39938  -0.39818  -0.39738
 Alpha  occ. eigenvalues --   -0.39662  -0.39498  -0.39378  -0.38959  -0.38634
 Alpha  occ. eigenvalues --   -0.38439  -0.38100  -0.37982  -0.37775  -0.37462
 Alpha  occ. eigenvalues --   -0.37105  -0.36793  -0.36735  -0.36466  -0.36311
 Alpha  occ. eigenvalues --   -0.35815  -0.35725  -0.35455  -0.34722  -0.34485
 Alpha  occ. eigenvalues --   -0.34298  -0.33973  -0.33674  -0.32386  -0.30696
 Alpha  occ. eigenvalues --   -0.30158  -0.28425  -0.27788  -0.27319  -0.27238
 Alpha  occ. eigenvalues --   -0.27121  -0.26837  -0.26800  -0.26650  -0.26521
 Alpha  occ. eigenvalues --   -0.26361  -0.26054  -0.25730  -0.25628  -0.25523
 Alpha  occ. eigenvalues --   -0.24788
 Alpha virt. eigenvalues --   -0.07590  -0.06497  -0.06332  -0.05902  -0.05792
 Alpha virt. eigenvalues --   -0.05314  -0.02721  -0.02378  -0.01432   0.04129
 Alpha virt. eigenvalues --    0.04471   0.04705   0.04926   0.05139   0.05202

 Mulliken charges:
               1
     1  C    0.331356
     2  C   -0.149011
     3  C   -0.370879
     4  C    0.380408
     5  H    0.125984
     6  C   -0.377403
     7  C    0.379119
     8  H    0.123008
     9  C   -0.302569
    10  C   -0.178355
    11  H    0.123610
    12  C   -0.175285
    13  H    0.096718
    14  H    0.100507
    15  H    0.103718
    16  C    0.297391
    17  C    0.050451
    18  C   -0.344590
    19  C    0.332126
    20  H    0.127533
    21  C   -0.347857
    22  C    0.380714
    23  H    0.130399
    24  C   -0.348903
    25  C   -0.143016
    26  H    0.138100
    27  C   -0.126985
    28  H    0.096782
    29  H    0.100769
    30  H    0.102776
    31  C    0.364561
    32  C   -0.183072
    33  C   -0.296044
    34  C    0.323877
    35  H    0.129489
    36  C   -0.383511
    37  C    0.361076
    38  H    0.134094
    39  C   -0.347021
    40  C   -0.160256
    41  H    0.125649
    42  C   -0.149504
    43  H    0.081044
    44  H    0.095973
    45  C   -0.049986
    46  C    0.150012
    47  N   -0.215511
    48  N   -0.191248
    49  O   -0.322035
    50  C   -0.140095
    51  C    0.176293
    52  N   -0.207683
    53  N   -0.197586
    54  C   -0.052176
    55  C    0.129822
    56  N   -0.215188
    57  N   -0.191787
    58  C    0.150743
    59  C   -0.069875
    60  N   -0.199699
    61  N   -0.198649
    62  H    0.097518
    63  H    0.107351
    64  H    0.132262
    65  H    0.123521
    66  H    0.086527
    67  H    0.121444
    68  H    0.083593
    69  C   -0.437850
    70  H    0.136897
    71  H    0.134820
    72  H    0.146854
    73  C   -0.363895
    74  H    0.124331
    75  H    0.128476
    76  H    0.128951
    77  C   -0.392905
    78  H    0.129773
    79  H    0.122837
    80  H    0.125903
    81  C   -0.396661
    82  H    0.130780
    83  H    0.132207
    84  H    0.131160
    85  C   -0.467974
    86  H    0.142693
    87  H    0.133071
    88  H    0.141461
    89  C   -0.371260
    90  H    0.130430
    91  H    0.127084
    92  H    0.129817
    93  C   -0.373676
    94  H    0.131195
    95  H    0.127756
    96  H    0.129698
    97  H    0.085273
    98  H    0.121696
    99  C   -0.441964
   100  H    0.146897
   101  H    0.133299
   102  H    0.132283
 Sum of Mulliken charges =   0.00000

 Dipole moment (field-independent basis, Debye):
    X=              0.1976    Y=              0.4735    Z=             -3.8558  Tot=              3.8898
 Quadrupole moment (field-independent basis, Debye-Ang):
   XX=           -302.4577   YY=           -292.8305   ZZ=           -300.8376
   XY=              1.0392   XZ=              7.0852   YZ=             -5.9759

 Normal termination of Gaussian 16 at Mon Oct 18 05:37:43 2021.
