 Gaussian 16, Revision C.01,
 Gaussian 16:  ES64L-G16RevC.01  3-Jul-2019

 ----------------------------------------------------------------------
 #P MP2/aug-cc-pVDZ SP SCF=(YQC,MaxCycle=900) int=(Grid=Superfinegrid)
 SCRF=(PCM,Solvent=Chloroform)
 ----------------------------------------------------------------------

 -----------------------------
 _3_alde1_6_ami2_2_opt_cfm_mp2
 -----------------------------
 Symbolic Z-matrix:
 Charge =  0 Multiplicity = 1

                         Standard orientation:
 ---------------------------------------------------------------------
 Center     Atomic      Atomic             Coordinates (Angstroms)
 Number     Number       Type             X           Y           Z
 ---------------------------------------------------------------------
      1          6           0        6.007506   -0.696158   -0.526610
      2          6           0        7.210270   -1.458970   -0.827473
      3          6           0        4.852591   -1.336495   -0.086355
      4          6           0        3.696662   -0.610201    0.189984
      5          1           0        4.852174   -2.405385    0.049349
      6          6           0        3.703755    0.769288    0.020310
      7          6           0        4.857475    1.427884   -0.403788
      8          1           0        2.823513    1.361778    0.221202
      9          6           0        6.004753    0.690011   -0.676098
     10          6           0        4.854261    2.878267   -0.532656
     11          1           0        6.901791    1.196193   -1.007290
     12          6           0        2.493958   -1.274332    0.683699
     13          1           0        5.821784    3.353639   -0.764014
     14          1           0        8.074585   -0.876796   -1.187256
     15          1           0        1.619892   -0.630352    0.822500
     16          6           0       -4.550098   -1.120169   -1.388822
     17          6           0       -5.912933   -1.571234   -1.629007
     18          6           0       -4.009526   -0.094527   -2.154996
     19          6           0       -2.699563    0.337452   -1.945271
     20          1           0       -4.587479    0.384479   -2.930864
     21          6           0       -1.930722   -0.262910   -0.954363
     22          6           0       -2.456570   -1.300594   -0.183024
     23          1           0       -0.916190    0.057243   -0.771102
     24          6           0       -3.764072   -1.719443   -0.404740
     25          6           0       -1.656650   -1.978718    0.824695
     26          1           0       -4.194811   -2.518455    0.179567
     27          6           0       -2.156297    1.428971   -2.740909
     28          1           0       -2.148482   -2.835924    1.311895
     29          1           0       -6.461482   -1.038494   -2.421455
     30          1           0       -1.112699    1.703793   -2.531040
     31          6           0       -1.941813    2.274347    2.158989
     32          6           0       -2.604452    1.533349    3.221080
     33          6           0       -0.636096    2.739221    2.317251
     34          6           0       -0.044778    3.536767    1.343236
     35          1           0       -0.108974    2.485742    3.224765
     36          6           0       -0.760901    3.848891    0.190742
     37          6           0       -2.052502    3.368054    0.003819
     38          1           0       -0.307707    4.467981   -0.565564
     39          6           0       -2.638402    2.582674    0.993523
     40          6           0       -2.779283    3.650254   -1.228180
     41          1           0       -3.645737    2.211337    0.857415
     42          6           0        1.311462    4.051447    1.521464
     43          1           0       -3.800005    3.248452   -1.266912
     44          1           0       -3.664496    1.290425    3.042243
     45          1           0        1.884560    3.587422    2.333792
     46          6           0        8.079515   -4.511892   -2.104420
     47          6           0        8.423061   -3.447302   -1.019929
     48          7           0        6.961954   -5.349460   -1.707876
     49          7           0        7.253801   -2.710989   -0.684279
     50          6           0       -7.698009   -4.456283   -1.735321
     51          6           0       -7.743625   -2.971880   -1.261772
     52          7           0       -6.996199   -5.307838   -0.791695
     53          7           0       -6.427008   -2.517257   -0.970998
     54          6           0       -2.191245   -0.899422    5.494138
     55          6           0       -2.716077    0.559887    5.341497
     56          7           0       -0.739949   -0.963403    5.515504
     57          6           0       -2.684538   -1.734396    4.311916
     58          7           0       -2.020017    1.239264    4.300406
     59          6           0        1.382519   -3.235863    1.443691
     60          6           0        0.251417   -2.378389    2.083008
     61          7           0        2.505908   -2.508249    0.936634
     62          7           0       -0.482102   -1.623051    1.123942
     63          6           0        0.828212   -4.074273    0.284232
     64          6           0        3.759635    4.950619   -0.450195
     65          6           0        3.062319    5.515094    0.816759
     66          7           0        3.789251    3.532694   -0.377415
     67          7           0        1.734586    4.973896    0.777612
     68          6           0        2.920470    7.034341    0.671799
     69          6           0       -2.338078    3.172056   -4.257803
     70          6           0       -2.819251    4.434780   -3.462465
     71          7           0       -2.851489    2.008774   -3.626047
     72          7           0       -2.231742    4.296823   -2.164934
     73          6           0       -2.208632    5.684179   -4.101142
     74          1           0       -0.376277   -0.532063    4.671875
     75          1           0       -0.379818   -0.435627    6.303690
     76          1           0        7.181614   -5.846245   -0.850904
     77          1           0        6.154061   -4.764439   -1.521715
     78          1           0       -7.458211   -5.288684    0.111477
     79          1           0       -6.052755   -4.958846   -0.660743
     80          1           0       -2.363905   -1.283686    3.374696
     81          1           0       -3.769790   -1.802320    4.315516
     82          1           0       -2.266783   -2.735113    4.380361
     83          1           0       -3.806421    0.534834    5.181159
     84          1           0       -2.503963    1.102680    6.268963
     85          1           0       -8.251987   -2.356206   -2.022525
     86          1           0       -8.317076   -2.929666   -0.329022
     87          6           0       -6.970803   -4.541786   -3.078646
     88          1           0       -7.505013   -3.980534   -3.841175
     89          1           0       -6.902475   -5.581585   -3.385185
     90          1           0       -5.963404   -4.140750   -2.989414
     91          1           0        0.718867   -1.676633    2.780585
     92          1           0       -0.396621   -3.064716    2.649953
     93          6           0        1.938090   -4.167001    2.530278
     94          1           0        2.264592   -3.587713    3.390568
     95          1           0        2.791897   -4.708557    2.133233
     96          1           0        1.181976   -4.878495    2.851282
     97          1           0        0.013336   -4.705140    0.631267
     98          1           0        1.618065   -4.702042   -0.119183
     99          1           0        0.461164   -3.424162   -0.507110
    100          6           0        9.299632   -5.406403   -2.327537
    101          6           0        7.699714   -3.806078   -3.407644
    102          1           0        4.759655    5.403725   -0.560447
    103          1           0        3.143384    5.221543   -1.312783
    104          6           0        3.901978    5.181593    2.056133
    105          1           0        3.379540    5.490348    2.959542
    106          1           0        4.850073    5.711673    2.005581
    107          1           0        4.107338    4.114454    2.108872
    108          1           0        2.268561    7.263597   -0.166232
    109          1           0        3.890530    7.497380    0.509299
    110          1           0        2.479264    7.450128    1.574425
    111          1           0       -2.460503    5.740568   -5.156919
    112          1           0       -1.128257    5.662247   -3.990826
    113          1           0       -2.587072    6.571385   -3.599580
    114          6           0       -4.349781    4.507416   -3.504901
    115          1           0       -4.705062    5.251149   -2.793774
    116          1           0       -4.788695    3.542434   -3.267287
    117          1           0       -4.673020    4.793737   -4.502206
    118          1           0       -1.238979    3.194025   -4.286177
    119          1           0       -2.744194    3.228401   -5.269312
    120          1           0        7.421189   -4.547617   -4.150828
    121          1           0        8.534297   -3.220219   -3.785085
    122          1           0        6.851565   -3.144926   -3.243459
    123          1           0        8.745151   -3.976106   -0.115695
    124          1           0        9.250644   -2.807400   -1.371143
    125          6           0       -9.129668   -4.973713   -1.880111
    126          6           0       -2.719862   -1.483663    6.804678
    127          1           0        9.580053   -5.909159   -1.404272
    128          1           0       10.147194   -4.822092   -2.676210
    129          1           0        9.060124   -6.161534   -3.070868
    130          1           0       -3.806766   -1.486815    6.813409
    131          1           0       -2.367145   -0.901966    7.653754
    132          1           0       -2.361049   -2.503293    6.914457
    133          1           0       -9.675201   -4.394926   -2.620902
    134          1           0       -9.658292   -4.910822   -0.931189
    135          1           0       -9.104792   -6.014200   -2.191466
 ---------------------------------------------------------------------

 SCF Done:  E(RHF) =  -2626.81080909     a.u. after    7 cycles
 SCF Done:  E(RHF) =  -2626.81086674     A.U. after   44 cycles
 E2 =    -0.9325235401D+01 EUMP2 =    -0.26361361021381D+04

 The electronic state is 1-A.
 Alpha  occ. eigenvalues --  -15.56534 -15.56341 -15.56187 -15.56121 -15.56042
 Alpha  occ. eigenvalues --  -15.55887 -15.55425 -15.55401 -15.55339 -15.54062
 Alpha  occ. eigenvalues --  -15.54025 -15.53724 -11.29080 -11.28934 -11.28900
 Alpha  occ. eigenvalues --  -11.28857 -11.28747 -11.28704 -11.28529 -11.28103
 Alpha  occ. eigenvalues --  -11.27704 -11.26689 -11.26596 -11.26544 -11.26287
 Alpha  occ. eigenvalues --  -11.26265 -11.26013 -11.25744 -11.25715 -11.25665
 Alpha  occ. eigenvalues --  -11.25636 -11.25582 -11.25448 -11.25417 -11.25409
 Alpha  occ. eigenvalues --  -11.25354 -11.25336 -11.25230 -11.25220 -11.25165
 Alpha  occ. eigenvalues --  -11.25059 -11.25023 -11.24982 -11.24974 -11.24962
 Alpha  occ. eigenvalues --  -11.24892 -11.24788 -11.24767 -11.24695 -11.24492
 Alpha  occ. eigenvalues --  -11.24420 -11.21545 -11.21450 -11.21442 -11.21418
 Alpha  occ. eigenvalues --  -11.21361 -11.21315 -11.21261 -11.21231 -11.21168
 Alpha  occ. eigenvalues --  -11.21156 -11.21115 -11.20920  -1.26923  -1.26244
 Alpha  occ. eigenvalues --   -1.26134  -1.25612  -1.25335  -1.25255  -1.23754
 Alpha  occ. eigenvalues --   -1.23536  -1.23008  -1.19343  -1.19228  -1.19020
 Alpha  occ. eigenvalues --   -1.17455  -1.16900  -1.16728  -1.09186  -1.08837
 Alpha  occ. eigenvalues --   -1.08114  -1.06426  -1.05992  -1.05736  -1.04256
 Alpha  occ. eigenvalues --   -1.03359  -1.02975  -1.02514  -1.02269  -1.02193
 Alpha  occ. eigenvalues --   -0.95651  -0.95450  -0.94999  -0.94787  -0.94688
 Alpha  occ. eigenvalues --   -0.94408  -0.93915  -0.93857  -0.93726  -0.93640
 Alpha  occ. eigenvalues --   -0.93447  -0.93332  -0.89578  -0.89221  -0.88744
 Alpha  occ. eigenvalues --   -0.87406  -0.86966  -0.86891  -0.84853  -0.83137
 Alpha  occ. eigenvalues --   -0.82506  -0.79646  -0.79054  -0.77997  -0.76141
 Alpha  occ. eigenvalues --   -0.75817  -0.75408  -0.75129  -0.75012  -0.74649
 Alpha  occ. eigenvalues --   -0.74286  -0.72624  -0.72251  -0.71287  -0.70160
 Alpha  occ. eigenvalues --   -0.69767  -0.69359  -0.68608  -0.67553  -0.67172
 Alpha  occ. eigenvalues --   -0.66672  -0.66535  -0.66237  -0.65984  -0.65852
 Alpha  occ. eigenvalues --   -0.65622  -0.65494  -0.65224  -0.64969  -0.64693
 Alpha  occ. eigenvalues --   -0.64502  -0.63712  -0.63606  -0.63092  -0.62860
 Alpha  occ. eigenvalues --   -0.62508  -0.62354  -0.62205  -0.62040  -0.61771
 Alpha  occ. eigenvalues --   -0.61045  -0.60862  -0.60456  -0.60129  -0.59905
 Alpha  occ. eigenvalues --   -0.59636  -0.59479  -0.59292  -0.59053  -0.57424
 Alpha  occ. eigenvalues --   -0.56858  -0.56787  -0.56539  -0.56379  -0.56010
 Alpha  occ. eigenvalues --   -0.55125  -0.54918  -0.54790  -0.54594  -0.54250
 Alpha  occ. eigenvalues --   -0.54051  -0.53483  -0.53373  -0.53279  -0.53192
 Alpha  occ. eigenvalues --   -0.52969  -0.52924  -0.52893  -0.52807  -0.52718
 Alpha  occ. eigenvalues --   -0.52661  -0.52474  -0.52248  -0.51793  -0.51527
 Alpha  occ. eigenvalues --   -0.51439  -0.51381  -0.51173  -0.50905  -0.50555
 Alpha  occ. eigenvalues --   -0.50524  -0.50356  -0.49995  -0.49836  -0.49629
 Alpha  occ. eigenvalues --   -0.49447  -0.49182  -0.49066  -0.48366  -0.48148
 Alpha  occ. eigenvalues --   -0.47966  -0.46874  -0.46632  -0.46530  -0.45882
 Alpha  occ. eigenvalues --   -0.45435  -0.45338  -0.44987  -0.44640  -0.43962
 Alpha  occ. eigenvalues --   -0.42033  -0.41057  -0.40998  -0.40738  -0.40654
 Alpha  occ. eigenvalues --   -0.40548  -0.40307  -0.40113  -0.39754  -0.39172
 Alpha  occ. eigenvalues --   -0.39139  -0.38629  -0.37948  -0.37825  -0.37554
 Alpha  occ. eigenvalues --   -0.33121  -0.32637  -0.32450  -0.32098  -0.31810
 Alpha  occ. eigenvalues --   -0.31574
 Alpha virt. eigenvalues --    0.03084   0.03308   0.03517   0.03671   0.03913
 Alpha virt. eigenvalues --    0.04006   0.04140   0.04267   0.04445   0.04545
 Alpha virt. eigenvalues --    0.04750   0.04861   0.04957   0.05039   0.05245

 Mulliken charges:
               1
     1  C    0.534029
     2  C    0.531938
     3  C   -0.258463
     4  C    0.905382
     5  H   -1.020339
     6  C    0.541937
     7  C    0.441616
     8  H   -0.864180
     9  C    0.926112
    10  C    0.299703
    11  H   -0.717896
    12  C    0.568430
    13  H   -0.719507
    14  H   -0.674575
    15  H   -1.022778
    16  C    0.737897
    17  C    0.812911
    18  C   -0.099532
    19  C    1.874861
    20  H   -0.932094
    21  C    0.296206
    22  C    1.946244
    23  H   -1.380575
    24  C   -0.616103
    25  C    0.392869
    26  H   -0.950121
    27  C    0.773128
    28  H   -0.710683
    29  H   -0.676443
    30  H   -0.543112
    31  C    1.932974
    32  C    0.503866
    33  C   -0.161167
    34  C    1.136982
    35  H   -0.942313
    36  C   -0.341148
    37  C    1.611749
    38  H   -1.154771
    39  C    0.283434
    40  C    0.223310
    41  H   -1.114919
    42  C    0.504774
    43  H   -0.761262
    44  H   -0.846033
    45  H   -0.840306
    46  C   -3.679714
    47  C    1.662880
    48  N   -0.056364
    49  N   -0.320629
    50  C   -3.614404
    51  C    1.626373
    52  N   -0.085007
    53  N   -0.433756
    54  C   -3.855822
    55  C    1.684230
    56  N    0.071301
    57  C    1.240259
    58  N   -0.575849
    59  C   -2.136804
    60  C    0.234607
    61  N   -0.270790
    62  N    0.065378
    63  C    1.566000
    64  C    1.641509
    65  C   -4.027223
    66  N    0.060209
    67  N   -0.035572
    68  C    1.697599
    69  C    1.380524
    70  C   -3.560373
    71  N   -0.733214
    72  N   -0.059698
    73  C    1.589539
    74  H    0.105447
    75  H   -0.028384
    76  H   -0.000886
    77  H    0.039736
    78  H    0.001640
    79  H    0.020632
    80  H   -0.107525
    81  H   -0.056875
    82  H    0.000467
    83  H   -0.116604
    84  H   -0.275771
    85  H   -0.159169
    86  H   -0.268338
    87  C    1.448029
    88  H   -0.010303
    89  H   -0.042007
    90  H    0.006998
    91  H   -0.381627
    92  H   -0.369016
    93  C    1.398444
    94  H    0.024837
    95  H   -0.117478
    96  H   -0.055977
    97  H    0.048629
    98  H   -0.189764
    99  H    0.063456
   100  C    1.466421
   101  C    1.459468
   102  H   -0.189634
   103  H   -0.217663
   104  C    1.763165
   105  H    0.013452
   106  H   -0.163480
   107  H    0.074513
   108  H   -0.037727
   109  H   -0.021589
   110  H   -0.049459
   111  H   -0.055025
   112  H   -0.023813
   113  H   -0.020359
   114  C    1.470209
   115  H    0.035683
   116  H   -0.028136
   117  H   -0.094955
   118  H   -0.157169
   119  H   -0.305368
   120  H   -0.039472
   121  H   -0.003279
   122  H   -0.026722
   123  H   -0.258431
   124  H   -0.153936
   125  C    1.465000
   126  C    1.575285
   127  H   -0.049935
   128  H    0.000462
   129  H    0.039367
   130  H    0.065815
   131  H   -0.064379
   132  H    0.044256
   133  H    0.009189
   134  H   -0.048577
   135  H    0.041014
 Sum of Mulliken charges =   0.00000

 Dipole moment (field-independent basis, Debye):
    X=             -1.1053    Y=              4.6858    Z=              1.2149  Tot=              4.9653
 Quadrupole moment (field-independent basis, Debye-Ang):
   XX=           -324.0632   YY=           -425.4155   ZZ=           -385.2809
   XY=             17.5632   XZ=             -4.0779   YZ=            -12.0329

 Normal termination of Gaussian 16 at Thu Nov 11 04:47:45 2021.
