 Gaussian 16, Revision C.01,
 Gaussian 16:  ES64L-G16RevC.01  3-Jul-2019

 ---------------------------------------------------------------------
 #P MP2/aug-cc-pVDZ SP SCF=(YQC,MaxCycle=900) int=(Grid=Superfinegrid)
 ---------------------------------------------------------------------

 -----------------------------
 _3_alde1_5_ami4_2_opt_gas_mp2
 -----------------------------
 Symbolic Z-matrix:
 Charge =  0 Multiplicity = 1

                         Standard orientation:
 ---------------------------------------------------------------------
 Center     Atomic      Atomic             Coordinates (Angstroms)
 Number     Number       Type             X           Y           Z
 ---------------------------------------------------------------------
      1          6           0       -4.025328    1.412035    0.289217
      2          6           0       -5.104719    0.717570   -0.396229
      3          6           0       -3.399625    2.523488   -0.274341
      4          6           0       -2.307079    3.110466    0.354291
      5          1           0       -3.779043    2.908103   -1.209083
      6          6           0       -1.807732    2.550443    1.531429
      7          6           0       -2.433271    1.455142    2.113206
      8          1           0       -0.934064    2.999744    1.978091
      9          6           0       -3.560833    0.910799    1.499890
     10          6           0       -1.880021    0.832106    3.308853
     11          1           0       -4.040882    0.068124    1.971656
     12          6           0       -1.670934    4.288848   -0.218934
     13          1           0       -0.837243    1.096551    3.542377
     14          1           0       -5.640553   -0.030232    0.206523
     15          1           0       -2.175092    4.720045   -1.098314
     16          6           0        4.279166    1.244300   -0.442744
     17          6           0        5.418297    1.410637    0.449828
     18          6           0        4.044564    0.025625   -1.077014
     19          6           0        2.953240   -0.133691   -1.925547
     20          1           0        4.717368   -0.800784   -0.917187
     21          6           0        2.087137    0.938437   -2.130719
     22          6           0        2.317580    2.166219   -1.517290
     23          1           0        1.233312    0.819147   -2.784253
     24          6           0        3.416570    2.311999   -0.673157
     25          6           0        1.423618    3.283912   -1.776289
     26          1           0        3.577430    3.272139   -0.207279
     27          6           0        2.721093   -1.391384   -2.620466
     28          1           0        0.529800    3.047069   -2.377591
     29          1           0        5.532019    2.408841    0.901364
     30          1           0        1.838977   -1.416101   -3.279592
     31          6           0       -2.596201   -2.423703   -1.112307
     32          6           0       -3.497521   -1.936435   -2.148335
     33          6           0       -2.989132   -2.376153    0.224592
     34          6           0       -2.098078   -2.698697    1.241131
     35          1           0       -3.992993   -2.051075    0.447739
     36          6           0       -0.810841   -3.120451    0.911303
     37          6           0       -0.425992   -3.238352   -0.419859
     38          1           0       -0.128074   -3.362764    1.711344
     39          6           0       -1.317110   -2.867531   -1.427690
     40          6           0        0.899893   -3.743892   -0.749253
     41          1           0       -0.990338   -2.940459   -2.453890
     42          6           0       -2.507858   -2.526363    2.626384
     43          1           0        1.600758   -3.834732    0.094311
     44          1           0       -3.580185   -2.334192    2.779000
     45          6           0       -5.551419   -1.119806   -2.910327
     46          6           0       -6.321427    0.038060   -2.238179
     47          7           0       -4.721085   -1.732507   -1.924338
     48          7           0       -5.372535    0.909716   -1.615169
     49          6           0        7.147178   -0.343754    2.766748
     50          6           0        7.310151    0.643458    1.587010
     51          7           0        7.083372   -1.734737    2.381581
     52          7           0        6.223602    0.468882    0.682337
     53          6           0        0.029408    5.899763   -0.314629
     54          6           0        0.735734    5.497463   -1.625654
     55          7           0       -0.617191    4.768631    0.282247
     56          7           0        1.666161    4.450320   -1.363750
     57          6           0       -1.928091   -0.676495    5.089933
     58          6           0       -2.170897   -2.188113    4.885812
     59          7           0       -2.544654    0.019821    4.006978
     60          7           0       -1.689479   -2.547544    3.587287
     61          6           0        3.200718   -3.594875   -3.185390
     62          6           0        2.518077   -4.571213   -2.209455
     63          7           0        3.495685   -2.379165   -2.496787
     64          7           0        1.206722   -4.088447   -1.923051
     65          1           0        6.310946   -1.865461    1.736110
     66          1           0        7.932170   -2.000696    1.892105
     67          1           0       -3.032554   -1.723607   -3.123852
     68          1           0        6.223437   -0.102255    3.300106
     69          1           0        7.988071   -0.210493    3.452978
     70          1           0        8.230370    0.393277    1.047590
     71          1           0        7.388820    1.673762    1.974435
     72          1           0       -4.977196   -0.742552   -3.771065
     73          1           0       -6.280112   -1.857168   -3.261079
     74          1           0       -7.026296   -0.393379   -1.511705
     75          1           0       -6.866518    0.597361   -3.001254
     76          1           0        4.146027   -4.029989   -3.517855
     77          1           0        2.531302   -3.444059   -4.046242
     78          1           0        3.141799   -4.680453   -1.308223
     79          1           0        2.415033   -5.539837   -2.706781
     80          1           0        0.774473    6.257228    0.398913
     81          1           0       -0.679358    6.706632   -0.546324
     82          1           0       -3.248206   -2.382112    4.997297
     83          1           0       -1.609594   -2.746863    5.637276
     84          1           0       -2.414137   -0.373043    6.021772
     85          1           0       -0.847428   -0.475943    5.160283
     86          1           0        1.292101    6.361625   -1.998555
     87          1           0       -0.028413    5.204635   -2.367399
 ---------------------------------------------------------------------

 SCF Done:  E(RHF) =  -1969.01586205     a.u. after    6 cycles
 SCF Done:  E(RHF) =  -1969.01602112     A.U. after   21 cycles
 E2 =    -0.6784366610D+01 EUMP2 =    -0.19758003877292D+04

 The electronic state is 1-A.
 Alpha  occ. eigenvalues --  -15.56514 -15.56303 -15.56293 -15.56271 -15.56193
 Alpha  occ. eigenvalues --  -15.56168 -15.56001 -15.55906 -15.55785 -15.53612
 Alpha  occ. eigenvalues --  -11.29078 -11.29040 -11.28843 -11.28792 -11.28708
 Alpha  occ. eigenvalues --  -11.28647 -11.28633 -11.28518 -11.28411 -11.26456
 Alpha  occ. eigenvalues --  -11.26321 -11.26077 -11.26020 -11.25923 -11.25775
 Alpha  occ. eigenvalues --  -11.25763 -11.25673 -11.25601 -11.25408 -11.25357
 Alpha  occ. eigenvalues --  -11.25338 -11.25319 -11.25267 -11.25228 -11.25211
 Alpha  occ. eigenvalues --  -11.25151 -11.25095 -11.25090 -11.25040 -11.25016
 Alpha  occ. eigenvalues --  -11.25002 -11.24971 -11.24953 -11.24928 -11.24890
 Alpha  occ. eigenvalues --  -11.24865 -11.24542  -1.26502  -1.26294  -1.26193
 Alpha  occ. eigenvalues --   -1.26027  -1.24989  -1.23824  -1.23636  -1.23293
 Alpha  occ. eigenvalues --   -1.23100  -1.17745  -1.17414  -1.16751  -1.16573
 Alpha  occ. eigenvalues --   -1.07628  -1.07315  -1.07268  -1.06233  -1.05441
 Alpha  occ. eigenvalues --   -1.05296  -1.01835  -1.00215  -0.99606  -0.99568
 Alpha  occ. eigenvalues --   -0.97960  -0.91878  -0.91646  -0.91520  -0.91348
 Alpha  occ. eigenvalues --   -0.88458  -0.87720  -0.87587  -0.86681  -0.83659
 Alpha  occ. eigenvalues --   -0.83443  -0.83054  -0.82063  -0.80060  -0.79765
 Alpha  occ. eigenvalues --   -0.76560  -0.75393  -0.75237  -0.74810  -0.74311
 Alpha  occ. eigenvalues --   -0.73767  -0.71347  -0.70927  -0.70360  -0.69348
 Alpha  occ. eigenvalues --   -0.69071  -0.68317  -0.67325  -0.67202  -0.67100
 Alpha  occ. eigenvalues --   -0.66654  -0.66115  -0.65772  -0.65474  -0.64947
 Alpha  occ. eigenvalues --   -0.64739  -0.63786  -0.62651  -0.62323  -0.61867
 Alpha  occ. eigenvalues --   -0.61703  -0.61647  -0.61312  -0.61068  -0.60615
 Alpha  occ. eigenvalues --   -0.60194  -0.59604  -0.59288  -0.59020  -0.58789
 Alpha  occ. eigenvalues --   -0.58702  -0.56272  -0.56012  -0.55093  -0.54698
 Alpha  occ. eigenvalues --   -0.54570  -0.54436  -0.54283  -0.53752  -0.53596
 Alpha  occ. eigenvalues --   -0.53565  -0.53313  -0.52805  -0.52476  -0.51112
 Alpha  occ. eigenvalues --   -0.50576  -0.50315  -0.50265  -0.49969  -0.49618
 Alpha  occ. eigenvalues --   -0.49123  -0.46783  -0.46230  -0.45749  -0.45520
 Alpha  occ. eigenvalues --   -0.45292  -0.44905  -0.41560  -0.41167  -0.41141
 Alpha  occ. eigenvalues --   -0.40953  -0.40829  -0.40773  -0.40479  -0.40287
 Alpha  occ. eigenvalues --   -0.40203  -0.39856  -0.39611  -0.39346  -0.37602
 Alpha  occ. eigenvalues --   -0.32864  -0.32543  -0.32465  -0.32357  -0.32024
 Alpha  occ. eigenvalues --   -0.31621
 Alpha virt. eigenvalues --    0.02915   0.03348   0.03553   0.03691   0.04033
 Alpha virt. eigenvalues --    0.04080   0.04354   0.04425   0.04835   0.05033
 Alpha virt. eigenvalues --    0.05162   0.05272   0.05503   0.05715   0.05755

 Mulliken charges:
               1
     1  C    0.664847
     2  C    0.736179
     3  C    0.880623
     4  C    0.843726
     5  H   -0.886954
     6  C    0.142893
     7  C    0.606941
     8  H   -0.889420
     9  C    0.547504
    10  C    0.940766
    11  H   -1.035844
    12  C    0.730961
    13  H   -0.676931
    14  H   -0.612980
    15  H   -0.708611
    16  C    0.967046
    17  C    0.538483
    18  C   -0.394448
    19  C    1.349998
    20  H   -0.888314
    21  C    0.243457
    22  C    1.134117
    23  H   -0.782089
    24  C    0.252663
    25  C    0.966525
    26  H   -0.868756
    27  C    0.756001
    28  H   -0.717031
    29  H   -0.628417
    30  H   -0.723103
    31  C    0.841647
    32  C    0.637102
    33  C    0.228673
    34  C    1.011081
    35  H   -1.006823
    36  C    0.321408
    37  C    0.843119
    38  H   -0.870704
    39  C    0.344424
    40  C    0.871899
    41  H   -0.919774
    42  C    0.882459
    43  H   -0.680052
    44  H   -0.630843
    45  C    0.738159
    46  C    0.585108
    47  N   -0.656111
    48  N   -0.791050
    49  C    0.850508
    50  C    0.541253
    51  N   -0.449111
    52  N   -0.524863
    53  C    0.800795
    54  C    0.605460
    55  N   -0.549071
    56  N   -0.666079
    57  C    0.736783
    58  C    0.584495
    59  N   -0.716204
    60  N   -0.796215
    61  C    0.627906
    62  C    0.701790
    63  N   -0.698899
    64  N   -0.620896
    65  H    0.028484
    66  H    0.031247
    67  H   -0.669811
    68  H   -0.152195
    69  H   -0.140174
    70  H   -0.303477
    71  H   -0.126213
    72  H   -0.136349
    73  H   -0.236503
    74  H   -0.091616
    75  H   -0.314800
    76  H   -0.320080
    77  H   -0.132409
    78  H   -0.108053
    79  H   -0.280226
    80  H   -0.326137
    81  H   -0.104034
    82  H   -0.101663
    83  H   -0.327073
    84  H   -0.246059
    85  H   -0.125397
    86  H   -0.346926
    87  H   -0.137741
 Sum of Mulliken charges =   0.00000

 Dipole moment (field-independent basis, Debye):
    X=             -1.7355    Y=              2.1019    Z=             -2.0127  Tot=              3.3883
 Quadrupole moment (field-independent basis, Debye-Ang):
   XX=           -277.5920   YY=           -278.5284   ZZ=           -269.2001
   XY=              6.9898   XZ=              3.5612   YZ=              1.3459

 Normal termination of Gaussian 16 at Sat Oct 30 17:43:51 2021.
