 Gaussian 16, Revision C.01,
 Gaussian 16:  ES64L-G16RevC.01  3-Jul-2019

 ---------------------------------------------------------------------
 #P MP2/aug-cc-pVDZ SP SCF=(YQC,MaxCycle=900) int=(Grid=Superfinegrid)
 ---------------------------------------------------------------------

 -----------------------------
 _3_alde1_4_ami3_1_opt_gas_mp2
 -----------------------------
 Symbolic Z-matrix:
 Charge =  0 Multiplicity = 1

                         Standard orientation:
 ---------------------------------------------------------------------
 Center     Atomic      Atomic             Coordinates (Angstroms)
 Number     Number       Type             X           Y           Z
 ---------------------------------------------------------------------
      1          6           0       -3.415786   -1.635382    0.544088
      2          6           0       -3.594363   -2.874555   -0.194150
      3          6           0       -3.736992   -0.394367   -0.003949
      4          6           0       -3.467426    0.775407    0.698424
      5          1           0       -4.191140   -0.364782   -0.982512
      6          6           0       -2.837472    0.706138    1.942546
      7          6           0       -2.489747   -0.522783    2.489631
      8          1           0       -2.610720    1.630155    2.452296
      9          6           0       -2.813289   -1.688161    1.794128
     10          6           0       -1.667031   -0.614982    3.688705
     11          1           0       -2.549984   -2.634549    2.240696
     12          6           0       -3.799834    2.065291    0.112583
     13          1           0       -1.379308    0.340055    4.148086
     14          1           0       -3.341057   -3.787592    0.366484
     15          1           0       -4.177020    2.037213   -0.921527
     16          6           0        1.088407    2.752603   -3.311670
     17          6           0        0.906190    2.686335   -4.769189
     18          6           0        2.264499    2.273369   -2.736720
     19          6           0        2.437432    2.305360   -1.356810
     20          1           0        3.048762    1.879097   -3.363919
     21          6           0        1.418874    2.820799   -0.557657
     22          6           0        0.257126    3.343953   -1.121706
     23          1           0        1.545841    2.841859    0.516109
     24          6           0        0.094961    3.299177   -2.504500
     25          6           0       -0.744265    3.976457   -0.273125
     26          1           0       -0.811831    3.702054   -2.928982
     27          6           0        3.673135    1.832547   -0.745327
     28          1           0       -0.559175    3.917821    0.810287
     29          1           0       -0.042882    3.140949   -5.117524
     30          1           0        3.631007    1.649781    0.339335
     31          6           0        0.488826   -2.804299   -1.260142
     32          6           0       -0.561630   -3.180412   -2.198065
     33          6           0        0.286645   -2.910816    0.113586
     34          6           0        1.234879   -2.425937    1.011587
     35          1           0       -0.644425   -3.327901    0.463733
     36          6           0        2.430278   -1.903239    0.527172
     37          6           0        2.662957   -1.826124   -0.843276
     38          1           0        3.174790   -1.536642    1.214587
     39          6           0        1.674032   -2.246306   -1.729908
     40          6           0        3.897532   -1.257296   -1.361458
     41          1           0        1.834128   -2.147226   -2.794961
     42          6           0        0.890279   -2.360062    2.428047
     43          1           0        3.916730   -1.071765   -2.446887
     44          1           0       -0.016285   -2.906123    2.709086
     45          6           0       -2.538493   -4.225158   -2.844993
     46          6           0       -3.874682   -4.186241   -2.068297
     47          7           0       -1.479644   -3.993857   -1.909530
     48          7           0       -3.942588   -2.919104   -1.406517
     49          8           0        1.679418    2.190683   -5.547352
     50          6           0       -3.968727    4.393222    0.128554
     51          6           0       -2.672930    5.234188    0.106314
     52          7           0       -3.661611    3.144363    0.749947
     53          7           0       -1.732433    4.591571   -0.757325
     54          6           0       -0.231046   -1.937949    5.048681
     55          6           0        1.118727   -1.338917    4.561069
     56          7           0       -1.250948   -1.748648    4.063575
     57          7           0        1.526438   -1.615602    3.222294
     58          6           0        5.902826    1.166981   -0.788341
     59          6           0        6.019341   -0.331835   -1.172711
     60          7           0        4.728448    1.678075   -1.417911
     61          7           0        4.881606   -0.991710   -0.618158
     62          1           0       -0.513593   -2.675090   -3.176813
     63          6           0        7.130899    1.924509   -1.289741
     64          6           0       -2.964705    6.632748   -0.439665
     65          6           0       -5.032128   -4.380237   -3.042512
     66          6           0        2.228380   -1.737980    5.538766
     67          1           0        1.022414   -0.242520    4.588628
     68          6           0        1.917764   -1.217376    6.938381
     69          1           0        3.174816   -1.332073    5.179420
     70          1           0        2.312015   -2.826888    5.552153
     71          6           0        0.560719   -1.725974    7.418405
     72          1           0        1.910436   -0.124833    6.923450
     73          1           0        2.698829   -1.536585    7.631088
     74          6           0       -0.539935   -1.352110    6.431104
     75          1           0        0.596677   -2.813045    7.521064
     76          1           0        0.332688   -1.305196    8.399889
     77          1           0       -0.621499   -0.265081    6.361072
     78          1           0       -1.502373   -1.740153    6.772492
     79          1           0       -0.114174   -3.026543    5.149869
     80          1           0       -2.301324    5.295787    1.144584
     81          6           0       -4.035982    7.332462    0.387575
     82          1           0       -3.292778    6.534659   -1.475804
     83          1           0       -2.039407    7.212451   -0.434790
     84          6           0       -5.316031    6.504001    0.405076
     85          1           0       -4.234762    8.320941   -0.030905
     86          1           0       -3.676475    7.466597    1.410416
     87          6           0       -5.037393    5.111265    0.956653
     88          1           0       -5.709000    6.421188   -0.610817
     89          1           0       -6.072979    6.995771    1.019161
     90          1           0       -5.948170    4.508695    0.950369
     91          1           0       -4.686411    5.177451    1.987894
     92          1           0       -4.318328    4.265422   -0.911976
     93          1           0       -3.851628   -5.016488   -1.339743
     94          6           0       -4.898010   -5.724861   -3.750690
     95          1           0       -5.023522   -3.564814   -3.767572
     96          1           0       -5.974799   -4.332544   -2.494048
     97          6           0       -3.558863   -5.826606   -4.476542
     98          1           0       -4.970758   -6.528128   -3.013685
     99          1           0       -5.715508   -5.849884   -4.463487
    100          6           0       -2.397208   -5.593473   -3.515512
    101          1           0       -3.521947   -5.079346   -5.272730
    102          1           0       -3.460235   -6.811723   -4.937243
    103          1           0       -1.446430   -5.631434   -4.052338
    104          1           0       -2.379589   -6.365605   -2.744403
    105          1           0       -2.560061   -3.443606   -3.625272
    106          1           0        5.837520    1.220996    0.312806
    107          6           0        8.409968    1.328608   -0.713450
    108          1           0        7.037917    2.974408   -1.004786
    109          1           0        7.146553    1.873403   -2.379519
    110          6           0        8.523908   -0.147426   -1.080905
    111          1           0        8.400248    1.431390    0.374249
    112          1           0        9.273741    1.876709   -1.094579
    113          6           0        7.303250   -0.915244   -0.587210
    114          1           0        9.428081   -0.573484   -0.641620
    115          1           0        8.599636   -0.245541   -2.166295
    116          1           0        7.373374   -1.966650   -0.872870
    117          1           0        7.239490   -0.867288    0.500991
    118          1           0        6.036452   -0.390697   -2.275644
 ---------------------------------------------------------------------

 SCF Done:  E(RHF) =  -2475.73834066     a.u. after    7 cycles
 SCF Done:  E(RHF) =  -2475.73840636     A.U. after   21 cycles
 E2 =    -0.8673137385D+01 EUMP2 =    -0.24844115437483D+04

 The electronic state is 1-A.
 Alpha  occ. eigenvalues --  -20.56573 -15.56371 -15.56154 -15.56105 -15.55901
 Alpha  occ. eigenvalues --  -15.55875 -15.55580 -15.55368 -15.55327 -11.34088
 Alpha  occ. eigenvalues --  -11.29172 -11.29121 -11.28792 -11.28622 -11.28473
 Alpha  occ. eigenvalues --  -11.28193 -11.28104 -11.27674 -11.26795 -11.26419
 Alpha  occ. eigenvalues --  -11.26222 -11.26139 -11.26024 -11.25961 -11.25868
 Alpha  occ. eigenvalues --  -11.25778 -11.25616 -11.25601 -11.25492 -11.25465
 Alpha  occ. eigenvalues --  -11.25376 -11.25359 -11.25331 -11.25302 -11.25287
 Alpha  occ. eigenvalues --  -11.25178 -11.25086 -11.25057 -11.24909 -11.24835
 Alpha  occ. eigenvalues --  -11.24672 -11.24539 -11.24411 -11.24142 -11.23053
 Alpha  occ. eigenvalues --  -11.22766 -11.22572 -11.22414 -11.22361 -11.22343
 Alpha  occ. eigenvalues --  -11.22322 -11.22245 -11.22240 -11.22186 -11.22128
 Alpha  occ. eigenvalues --  -11.21869 -11.21856 -11.21794 -11.21696 -11.21604
 Alpha  occ. eigenvalues --   -1.40101  -1.26802  -1.26536  -1.26475  -1.26278
 Alpha  occ. eigenvalues --   -1.23997  -1.23454  -1.23053  -1.22882  -1.18210
 Alpha  occ. eigenvalues --   -1.17406  -1.16592  -1.12036  -1.11875  -1.11497
 Alpha  occ. eigenvalues --   -1.10937  -1.06827  -1.06280  -1.06089  -1.05988
 Alpha  occ. eigenvalues --   -1.05785  -1.05353  -1.01102  -1.00838  -1.00476
 Alpha  occ. eigenvalues --   -1.00385  -1.00086  -0.99351  -0.99141  -0.98691
 Alpha  occ. eigenvalues --   -0.91300  -0.91028  -0.90140  -0.89785  -0.89758
 Alpha  occ. eigenvalues --   -0.88617  -0.87927  -0.87587  -0.86363  -0.83617
 Alpha  occ. eigenvalues --   -0.83425  -0.83196  -0.82782  -0.82447  -0.81007
 Alpha  occ. eigenvalues --   -0.80229  -0.79545  -0.78482  -0.78107  -0.77084
 Alpha  occ. eigenvalues --   -0.76920  -0.76529  -0.75566  -0.75095  -0.74721
 Alpha  occ. eigenvalues --   -0.74283  -0.73144  -0.71194  -0.70868  -0.69840
 Alpha  occ. eigenvalues --   -0.69748  -0.69649  -0.68691  -0.67587  -0.67320
 Alpha  occ. eigenvalues --   -0.66859  -0.66667  -0.66338  -0.65934  -0.65333
 Alpha  occ. eigenvalues --   -0.64915  -0.64505  -0.63249  -0.63097  -0.62896
 Alpha  occ. eigenvalues --   -0.62834  -0.62606  -0.62486  -0.61991  -0.61307
 Alpha  occ. eigenvalues --   -0.61104  -0.60847  -0.60407  -0.60138  -0.59845
 Alpha  occ. eigenvalues --   -0.59542  -0.59261  -0.59126  -0.58765  -0.58309
 Alpha  occ. eigenvalues --   -0.58246  -0.57646  -0.57129  -0.56486  -0.56345
 Alpha  occ. eigenvalues --   -0.56115  -0.55576  -0.55399  -0.55333  -0.54078
 Alpha  occ. eigenvalues --   -0.53880  -0.53830  -0.53754  -0.53449  -0.53362
 Alpha  occ. eigenvalues --   -0.52545  -0.52448  -0.52313  -0.51976  -0.51388
 Alpha  occ. eigenvalues --   -0.51236  -0.50886  -0.50213  -0.49520  -0.49310
 Alpha  occ. eigenvalues --   -0.49154  -0.48988  -0.48799  -0.48698  -0.47758
 Alpha  occ. eigenvalues --   -0.47492  -0.47384  -0.47209  -0.47102  -0.47057
 Alpha  occ. eigenvalues --   -0.46841  -0.46519  -0.46462  -0.45983  -0.45517
 Alpha  occ. eigenvalues --   -0.45441  -0.44654  -0.43796  -0.43515  -0.43081
 Alpha  occ. eigenvalues --   -0.42857  -0.42786  -0.41333  -0.41031  -0.40773
 Alpha  occ. eigenvalues --   -0.40643  -0.40575  -0.40274  -0.39877  -0.39744
 Alpha  occ. eigenvalues --   -0.39049  -0.38608  -0.37508  -0.34706  -0.32557
 Alpha  occ. eigenvalues --   -0.32366  -0.32166  -0.31725  -0.31491
 Alpha virt. eigenvalues --    0.02666   0.03081   0.03315   0.03465   0.03578
 Alpha virt. eigenvalues --    0.03739   0.03997   0.04024   0.04107   0.04414
 Alpha virt. eigenvalues --    0.04613   0.04689   0.04922   0.05080   0.05203

 Mulliken charges:
               1
     1  C    1.116745
     2  C    0.680012
     3  C    0.306590
     4  C    1.305781
     5  H   -0.920177
     6  C    0.198255
     7  C    0.745635
     8  H   -0.907698
     9  C    0.463967
    10  C    0.367150
    11  H   -1.074466
    12  C    0.402256
    13  H   -0.776055
    14  H   -0.770980
    15  H   -0.838928
    16  C    0.678114
    17  C    1.060738
    18  C   -0.162462
    19  C    1.828618
    20  H   -1.014811
    21  C    0.080517
    22  C    1.467088
    23  H   -0.779625
    24  C    0.472941
    25  C    0.630578
    26  H   -0.872241
    27  C    0.457754
    28  H   -0.843832
    29  H   -0.354539
    30  H   -0.868936
    31  C    0.648047
    32  C    0.379024
    33  C    0.591667
    34  C    0.916960
    35  H   -0.975266
    36  C    0.353684
    37  C    1.500070
    38  H   -1.017708
    39  C    0.603305
    40  C    0.425716
    41  H   -0.796775
    42  C    0.208085
    43  H   -0.793534
    44  H   -0.853649
    45  C   -0.292225
    46  C   -0.139519
    47  N   -0.417207
    48  N   -0.536770
    49  O   -0.802463
    50  C   -0.344757
    51  C   -0.340058
    52  N   -0.051629
    53  N   -0.511666
    54  C    0.510675
    55  C   -0.201941
    56  N   -0.609181
    57  N   -0.352225
    58  C   -0.460108
    59  C   -0.465562
    60  N   -0.490402
    61  N   -0.354310
    62  H   -0.763548
    63  C    0.821452
    64  C    0.904252
    65  C    0.837783
    66  C    0.826575
    67  H   -0.486121
    68  C    0.620941
    69  H   -0.167454
    70  H   -0.129045
    71  C    0.472531
    72  H   -0.083595
    73  H   -0.156704
    74  C    0.839595
    75  H   -0.097984
    76  H   -0.156731
    77  H   -0.130596
    78  H   -0.235990
    79  H   -0.453288
    80  H   -0.350466
    81  C    0.497266
    82  H   -0.139425
    83  H   -0.202885
    84  C    0.569605
    85  H   -0.143563
    86  H   -0.091423
    87  C    0.908275
    88  H   -0.089953
    89  H   -0.139430
    90  H   -0.227510
    91  H   -0.155455
    92  H   -0.368663
    93  H   -0.362850
    94  C    0.516009
    95  H   -0.099049
    96  H   -0.194858
    97  C    0.513354
    98  H   -0.076824
    99  H   -0.150618
   100  C    0.714299
   101  H   -0.084743
   102  H   -0.146629
   103  H   -0.234939
   104  H   -0.111921
   105  H   -0.282169
   106  H   -0.316757
   107  C    0.550436
   108  H   -0.212441
   109  H   -0.130377
   110  C    0.581232
   111  H   -0.088049
   112  H   -0.140314
   113  C    0.759328
   114  H   -0.144360
   115  H   -0.089956
   116  H   -0.217257
   117  H   -0.137004
   118  H   -0.350253
 Sum of Mulliken charges =   0.00000

 Dipole moment (field-independent basis, Debye):
    X=             -1.9654    Y=              0.9184    Z=              3.6039  Tot=              4.2065
 Quadrupole moment (field-independent basis, Debye-Ang):
   XX=           -361.4854   YY=           -351.6773   ZZ=           -360.7156
   XY=             -2.7424   XZ=             15.5493   YZ=             13.3592

 Normal termination of Gaussian 16 at Thu Oct 28 06:31:13 2021.
