 Gaussian 16, Revision C.01,
 Gaussian 16:  ES64L-G16RevC.01  3-Jul-2019

 ----------------------------------------------------------------------
 #P PBE1PBE/Def2TZVP SP SCF=(YQC,MaxCycle=900) int=(Grid=Superfinegrid)
  EmpiricalDispersion=GD3 SCRF=(PCM,Solvent=Chloroform)
 ----------------------------------------------------------------------

 -------------------------
 _3_alde1_5_ami1_2_opt_cfm
 -------------------------
 Symbolic Z-matrix:
 Charge =  0 Multiplicity = 1

                         Standard orientation:
 ---------------------------------------------------------------------
 Center     Atomic      Atomic             Coordinates (Angstroms)
 Number     Number       Type             X           Y           Z
 ---------------------------------------------------------------------
      1          6           0        1.439018   -3.011577    0.131277
      2          6           0        0.799034   -3.634888   -1.016272
      3          6           0        0.728471   -2.721118    1.294628
      4          6           0        1.340480   -2.053065    2.349526
      5          1           0       -0.304833   -3.026747    1.357305
      6          6           0        2.659904   -1.619325    2.213426
      7          6           0        3.378927   -1.897050    1.057319
      8          1           0        3.106087   -1.070641    3.028824
      9          6           0        2.769995   -2.623871    0.035712
     10          6           0        4.722662   -1.368538    0.863962
     11          1           0        3.350571   -2.846583   -0.845535
     12          6           0        0.603051   -1.813625    3.581369
     13          1           0        5.021187   -0.561918    1.551980
     14          1           0        1.472826   -3.890391   -1.848134
     15          1           0       -0.448461   -2.139033    3.576951
     16          6           0       -3.333893    0.821095    1.192592
     17          6           0       -4.476643   -0.054816    0.969680
     18          6           0       -3.076775    1.869536    0.308943
     19          6           0       -2.006669    2.730201    0.518242
     20          1           0       -3.741258    2.007664   -0.530956
     21          6           0       -1.163866    2.516955    1.608615
     22          6           0       -1.408596    1.478533    2.499628
     23          1           0       -0.331265    3.188429    1.752093
     24          6           0       -2.500812    0.636697    2.289559
     25          6           0       -0.544062    1.293204    3.657461
     26          1           0       -2.682190   -0.156853    2.998510
     27          6           0       -1.796209    3.853514   -0.383640
     28          1           0        0.421088    1.822140    3.624256
     29          1           0       -4.625361   -0.859462    1.707892
     30          1           0       -2.410517    3.851722   -1.297470
     31          6           0        0.716911   -0.047311   -2.522033
     32          6           0       -0.458236   -0.906588   -2.611543
     33          6           0        1.989815   -0.605777   -2.632102
     34          6           0        3.127245    0.155025   -2.388452
     35          1           0        2.065391   -1.653816   -2.875060
     36          6           0        2.986399    1.507030   -2.081519
     37          6           0        1.727864    2.095497   -2.042655
     38          1           0        3.876419    2.085976   -1.886748
     39          6           0        0.593508    1.308837   -2.241662
     40          6           0        1.608335    3.522524   -1.772994
     41          1           0       -0.377120    1.775233   -2.165711
     42          6           0        4.432927   -0.486708   -2.378106
     43          1           0        2.479989    3.989674   -1.286615
     44          1           0        4.449350   -1.529177   -2.729656
     45          6           0       -1.519714   -2.952064   -3.030810
     46          6           0       -1.002011   -4.245983   -2.339931
     47          7           0       -0.391545   -2.070989   -3.087226
     48          1           0       -2.320293   -2.522762   -2.407676
     49          6           0       -2.085808   -3.185668   -4.446045
     50          7           0       -0.447038   -3.813625   -1.089913
     51          1           0       -0.215589   -4.665445   -2.990643
     52          6           0       -2.071573   -5.321223   -2.090060
     53          1           0       -2.848780   -3.967017   -4.375535
     54          6           0       -1.007422   -3.625256   -5.432421
     55          6           0       -2.765920   -1.906559   -4.933452
     56          1           0       -2.486187   -5.626668   -3.055990
     57          6           0       -3.198470   -4.809702   -1.198728
     58          6           0       -1.403498   -6.539081   -1.450695
     59          1           0       -2.039787   -1.100133   -5.014995
     60          1           0       -3.551902   -1.603654   -4.243808
     61          1           0       -3.208888   -2.069629   -5.913404
     62          1           0       -0.611128   -4.603507   -5.172836
     63          1           0       -0.191696   -2.907175   -5.431547
     64          1           0       -1.424042   -3.683987   -6.435592
     65          1           0       -2.128456   -7.336548   -1.303605
     66          1           0       -0.982187   -6.267209   -0.485496
     67          1           0       -0.601694   -6.915926   -2.082595
     68          1           0       -3.847945   -5.632791   -0.907855
     69          1           0       -3.798577   -4.071879   -1.722745
     70          1           0       -2.778092   -4.358547   -0.303908
     71          6           0       -6.245386   -1.360811   -1.662803
     72          6           0       -6.372503   -0.730425   -0.237193
     73          7           0       -4.899207   -1.236749   -2.208457
     74          1           0       -6.905182   -0.823712   -2.352295
     75          6           0       -6.639976   -2.848577   -1.673022
     76          7           0       -5.242896    0.116792   -0.015268
     77          1           0       -6.400084   -1.547136    0.509149
     78          6           0       -7.652010    0.123532   -0.080507
     79          1           0       -5.963525   -3.378750   -0.991649
     80          6           0       -6.461436   -3.420459   -3.079238
     81          6           0       -8.076009   -3.082973   -1.211530
     82          1           0       -8.484594   -0.442815   -0.507564
     83          6           0       -7.532310    1.454152   -0.819787
     84          6           0       -7.939451    0.370979    1.399102
     85          1           0       -8.771487   -2.532395   -1.841533
     86          1           0       -8.224358   -2.778363   -0.179028
     87          1           0       -8.315488   -4.141656   -1.287348
     88          1           0       -7.178301   -2.967310   -3.759999
     89          1           0       -6.622002   -4.496110   -3.072236
     90          1           0       -5.462486   -3.212648   -3.449292
     91          1           0       -8.837910    0.973107    1.513544
     92          1           0       -7.109572    0.901891    1.862407
     93          1           0       -8.087619   -0.568468    1.928579
     94          1           0       -8.472858    1.997417   -0.761467
     95          1           0       -7.288916    1.299080   -1.867483
     96          1           0       -6.749104    2.060642   -0.372592
     97          6           0        0.370122   -1.071490    5.779525
     98          6           0       -0.025752    0.429264    5.764136
     99          7           0        1.144205   -1.295928    4.595320
    100          1           0       -0.568445   -1.651824    5.754497
    101          6           0        1.200462   -1.504146    7.001215
    102          7           0       -0.900004    0.595034    4.643808
    103          1           0        0.899300    1.019739    5.638828
    104          6           0       -0.752545    0.904924    7.037657
    105          1           0        0.608073   -1.323870    7.903434
    106          6           0        2.515159   -0.735886    7.095356
    107          6           0        1.475657   -3.005073    6.905076
    108          1           0       -0.086130    0.742908    7.890172
    109          6           0       -2.058758    0.150038    7.265145
    110          6           0       -1.025192    2.405450    6.928996
    111          1           0        0.544726   -3.564743    6.838606
    112          1           0        2.020552   -3.347130    7.782022
    113          1           0        2.069945   -3.218351    6.019455
    114          1           0        3.049303   -0.814665    6.152924
    115          1           0        3.134607   -1.151475    7.887220
    116          1           0        2.342881    0.314742    7.314179
    117          1           0       -1.704385    2.605868    6.103318
    118          1           0       -0.101561    2.954766    6.757208
    119          1           0       -1.477368    2.773445    7.847211
    120          1           0       -2.675591    0.211288    6.372974
    121          1           0       -2.601776    0.589014    8.099312
    122          1           0       -1.873982   -0.896468    7.492913
    123          6           0        6.724128   -1.135810   -0.321200
    124          6           0        6.673316   -0.676567   -1.806647
    125          7           0        5.468418   -1.774892   -0.066447
    126          1           0        6.843726   -0.240545    0.312587
    127          6           0        7.880622   -2.109321   -0.014955
    128          7           0        5.468128    0.089244   -1.945015
    129          1           0        6.624460   -1.589726   -2.423435
    130          6           0        7.877366    0.168933   -2.253509
    131          1           0        8.815637   -1.623542   -0.311242
    132          6           0        7.739247   -3.430355   -0.766078
    133          6           0        7.936127   -2.367611    1.490921
    134          1           0        8.786613   -0.425372   -2.116601
    135          6           0        7.996273    1.465040   -1.456679
    136          6           0        7.729901    0.481441   -3.742983
    137          1           0        7.025597   -2.862055    1.823013
    138          1           0        8.043384   -1.434328    2.040397
    139          1           0        8.783037   -3.005836    1.732380
    140          1           0        8.495094   -4.134134   -0.424325
    141          1           0        7.867487   -3.291351   -1.836225
    142          1           0        6.755438   -3.853746   -0.582522
    143          1           0        8.589348    1.043615   -4.100810
    144          1           0        6.831768    1.071602   -3.909935
    145          1           0        7.652714   -0.435405   -4.324128
    146          1           0        8.295260    1.270952   -0.429813
    147          1           0        7.038656    1.977608   -1.453266
    148          1           0        8.743007    2.114064   -1.908919
    149          6           0       -0.808129    5.847125   -1.057092
    150          6           0        0.515504    5.580461   -1.822228
    151          7           0       -0.988116    4.782273   -0.116890
    152          1           0       -1.622867    5.850220   -1.801581
    153          6           0       -0.808935    7.194597   -0.310406
    154          7           0        0.584156    4.177902   -2.097511
    155          1           0        1.357565    5.898197   -1.183219
    156          6           0        0.592800    6.364497   -3.151720
    157          1           0       -0.444358    7.966928   -0.996336
    158          6           0        0.086299    7.165020    0.925492
    159          6           0       -2.240684    7.542659    0.095227
    160          1           0        0.275465    7.393715   -2.952807
    161          6           0       -0.311267    5.766096   -4.226426
    162          6           0        2.038276    6.391823   -3.645663
    163          1           0       -2.885124    7.613319   -0.778838
    164          1           0       -2.266725    8.495870    0.618148
    165          1           0       -2.636376    6.773969    0.755836
    166          1           0       -0.239579    6.373967    1.594336
    167          1           0        0.030528    8.117689    1.447428
    168          1           0        1.123826    6.984320    0.657899
    169          1           0        2.690477    6.863387   -2.913078
    170          1           0        2.108260    6.950959   -4.575932
    171          1           0        2.393492    5.379004   -3.826461
    172          1           0       -1.353646    5.784525   -3.920727
    173          1           0       -0.028886    4.734118   -4.416837
    174          1           0       -0.217180    6.335458   -5.148535
    175          1           0       -4.240972   -1.690289   -1.579460
    176          1           0       -4.646496   -0.253842   -2.234969
    177          1           0       -1.386352   -0.488402   -2.189999
 ---------------------------------------------------------------------

 SCF Done:  E(RPBE1PBE) =  -3158.29579753     a.u. after    6 cycles
 SCF Done:  E(RPBE1PBE) =  -3158.29584520     A.U. after    8 cycles

 The electronic state is 1-A.
 Alpha  occ. eigenvalues --  -14.37732 -14.37612 -14.37607 -14.37597 -14.37479
 Alpha  occ. eigenvalues --  -14.37419 -14.37351 -14.37292 -14.37281 -14.35377
 Alpha  occ. eigenvalues --  -10.26740 -10.26629 -10.26623 -10.26544 -10.26503
 Alpha  occ. eigenvalues --  -10.26436 -10.26371 -10.26294 -10.26265 -10.25093
 Alpha  occ. eigenvalues --  -10.25059 -10.25051 -10.24901 -10.24890 -10.24818
 Alpha  occ. eigenvalues --  -10.24815 -10.24721 -10.24616 -10.24477 -10.24405
 Alpha  occ. eigenvalues --  -10.24384 -10.24307 -10.24270 -10.24264 -10.24248
 Alpha  occ. eigenvalues --  -10.24225 -10.24196 -10.24148 -10.23929 -10.23851
 Alpha  occ. eigenvalues --  -10.23813 -10.23812 -10.23808 -10.23792 -10.23748
 Alpha  occ. eigenvalues --  -10.23711 -10.23695 -10.22678 -10.22667 -10.22548
 Alpha  occ. eigenvalues --  -10.22416 -10.22361 -10.22351 -10.22318 -10.22284
 Alpha  occ. eigenvalues --  -10.22268 -10.22185 -10.20409 -10.20351 -10.20301
 Alpha  occ. eigenvalues --  -10.20249 -10.20203 -10.20180 -10.20094 -10.20091
 Alpha  occ. eigenvalues --  -10.20087 -10.20021 -10.19985 -10.19960 -10.19957
 Alpha  occ. eigenvalues --  -10.19916 -10.19870 -10.19862 -10.19771 -10.19769
 Alpha  occ. eigenvalues --  -10.19502 -10.19267  -0.97970  -0.97859  -0.97804
 Alpha  occ. eigenvalues --   -0.97763  -0.97061  -0.95182  -0.95142  -0.94822
 Alpha  occ. eigenvalues --   -0.94660  -0.91236  -0.90402  -0.89772  -0.89666
 Alpha  occ. eigenvalues --   -0.84793  -0.84708  -0.84581  -0.83717  -0.83135
 Alpha  occ. eigenvalues --   -0.82331  -0.82229  -0.81860  -0.81550  -0.81146
 Alpha  occ. eigenvalues --   -0.79987  -0.79960  -0.79911  -0.79655  -0.79434
 Alpha  occ. eigenvalues --   -0.79394  -0.74910  -0.74289  -0.74214  -0.73926
 Alpha  occ. eigenvalues --   -0.73101  -0.70418  -0.70379  -0.70373  -0.70326
 Alpha  occ. eigenvalues --   -0.70260  -0.70072  -0.70069  -0.70034  -0.69866
 Alpha  occ. eigenvalues --   -0.69775  -0.69218  -0.69177  -0.69135  -0.68890
 Alpha  occ. eigenvalues --   -0.67477  -0.66701  -0.66361  -0.66149  -0.64655
 Alpha  occ. eigenvalues --   -0.63842  -0.63809  -0.63553  -0.62495  -0.62201
 Alpha  occ. eigenvalues --   -0.59973  -0.59746  -0.59716  -0.58980  -0.58396
 Alpha  occ. eigenvalues --   -0.58165  -0.57766  -0.57723  -0.57024  -0.56563
 Alpha  occ. eigenvalues --   -0.55833  -0.55645  -0.55424  -0.55243  -0.54850
 Alpha  occ. eigenvalues --   -0.54511  -0.53618  -0.53574  -0.53370  -0.52031
 Alpha  occ. eigenvalues --   -0.51876  -0.51781  -0.50847  -0.50742  -0.50558
 Alpha  occ. eigenvalues --   -0.50254  -0.50201  -0.49956  -0.49824  -0.49555
 Alpha  occ. eigenvalues --   -0.49431  -0.49207  -0.48759  -0.48518  -0.48423
 Alpha  occ. eigenvalues --   -0.48372  -0.48167  -0.47020  -0.46841  -0.46810
 Alpha  occ. eigenvalues --   -0.46724  -0.46483  -0.46277  -0.46149  -0.45364
 Alpha  occ. eigenvalues --   -0.45228  -0.44985  -0.44871  -0.44767  -0.44645
 Alpha  occ. eigenvalues --   -0.44543  -0.44320  -0.44043  -0.43895  -0.43571
 Alpha  occ. eigenvalues --   -0.43424  -0.43343  -0.43282  -0.43105  -0.43074
 Alpha  occ. eigenvalues --   -0.43025  -0.42790  -0.42675  -0.42341  -0.42246
 Alpha  occ. eigenvalues --   -0.42145  -0.42019  -0.41955  -0.41660  -0.40423
 Alpha  occ. eigenvalues --   -0.40346  -0.40226  -0.40107  -0.40021  -0.39948
 Alpha  occ. eigenvalues --   -0.39907  -0.39743  -0.39568  -0.39422  -0.39205
 Alpha  occ. eigenvalues --   -0.39097  -0.39046  -0.39015  -0.38934  -0.38841
 Alpha  occ. eigenvalues --   -0.38778  -0.38691  -0.38675  -0.38385  -0.38133
 Alpha  occ. eigenvalues --   -0.38078  -0.38009  -0.37909  -0.37789  -0.37679
 Alpha  occ. eigenvalues --   -0.37486  -0.36767  -0.36704  -0.36495  -0.36424
 Alpha  occ. eigenvalues --   -0.36258  -0.35730  -0.35524  -0.35296  -0.34990
 Alpha  occ. eigenvalues --   -0.34979  -0.34819  -0.34793  -0.34738  -0.34686
 Alpha  occ. eigenvalues --   -0.34650  -0.34627  -0.34442  -0.34415  -0.34321
 Alpha  occ. eigenvalues --   -0.34132  -0.34088  -0.33952  -0.33844  -0.33697
 Alpha  occ. eigenvalues --   -0.33561  -0.33471  -0.33166  -0.33074  -0.32898
 Alpha  occ. eigenvalues --   -0.32822  -0.32582  -0.32472  -0.32439  -0.32264
 Alpha  occ. eigenvalues --   -0.32198  -0.31824  -0.30103  -0.29980  -0.29287
 Alpha  occ. eigenvalues --   -0.27412  -0.27241  -0.27049  -0.26888  -0.26879
 Alpha  occ. eigenvalues --   -0.26715  -0.26554  -0.26550  -0.26399  -0.26052
 Alpha  occ. eigenvalues --   -0.25729  -0.25655  -0.25589  -0.25370  -0.25174
 Alpha  occ. eigenvalues --   -0.24696
 Alpha virt. eigenvalues --   -0.06404  -0.06227  -0.06022  -0.05749  -0.05500
 Alpha virt. eigenvalues --   -0.05103  -0.02333  -0.02003  -0.01244   0.02978
 Alpha virt. eigenvalues --    0.03980   0.04074   0.04209   0.04391   0.04500

 Mulliken charges:
               1
     1  C    0.369116
     2  C   -0.195129
     3  C   -0.370791
     4  C    0.381766
     5  H    0.137678
     6  C   -0.373965
     7  C    0.334144
     8  H    0.139915
     9  C   -0.288062
    10  C   -0.179117
    11  H    0.141287
    12  C   -0.186551
    13  H    0.086732
    14  H    0.094883
    15  H    0.084120
    16  C    0.397809
    17  C   -0.235881
    18  C   -0.353453
    19  C    0.353864
    20  H    0.144523
    21  C   -0.359476
    22  C    0.381051
    23  H    0.134079
    24  C   -0.359447
    25  C   -0.184531
    26  H    0.132426
    27  C   -0.168029
    28  H    0.088483
    29  H    0.087795
    30  H    0.081439
    31  C    0.353555
    32  C   -0.184339
    33  C   -0.293859
    34  C    0.370051
    35  H    0.136230
    36  C   -0.372272
    37  C    0.370943
    38  H    0.143100
    39  C   -0.382731
    40  C   -0.169581
    41  H    0.135723
    42  C   -0.190717
    43  H    0.095215
    44  H    0.096397
    45  C    0.119961
    46  C    0.139747
    47  N   -0.268574
    48  H    0.035024
    49  C   -0.022532
    50  N   -0.267294
    51  H    0.084021
    52  C    0.013177
    53  H    0.087235
    54  C   -0.408390
    55  C   -0.409938
    56  H    0.087435
    57  C   -0.441710
    58  C   -0.401624
    59  H    0.119340
    60  H    0.147917
    61  H    0.117418
    62  H    0.122644
    63  H    0.130942
    64  H    0.123781
    65  H    0.126820
    66  H    0.127110
    67  H    0.120106
    68  H    0.123717
    69  H    0.101248
    70  H    0.133586
    71  C   -0.031345
    72  C    0.152137
    73  N   -0.499895
    74  H    0.083184
    75  C   -0.075813
    76  N   -0.258381
    77  H    0.068223
    78  C   -0.042930
    79  H    0.096021
    80  C   -0.372310
    81  C   -0.401786
    82  H    0.094186
    83  C   -0.393074
    84  C   -0.396755
    85  H    0.125391
    86  H    0.134087
    87  H    0.131198
    88  H    0.111387
    89  H    0.118336
    90  H    0.149844
    91  H    0.126912
    92  H    0.126856
    93  H    0.121594
    94  H    0.124530
    95  H    0.119464
    96  H    0.128798
    97  C    0.081549
    98  C    0.102275
    99  N   -0.245641
   100  H    0.090416
   101  C   -0.008382
   102  N   -0.250259
   103  H    0.088122
   104  C   -0.023800
   105  H    0.090568
   106  C   -0.421516
   107  C   -0.400598
   108  H    0.091661
   109  C   -0.420373
   110  C   -0.394552
   111  H    0.118547
   112  H    0.127519
   113  H    0.130603
   114  H    0.134132
   115  H    0.123733
   116  H    0.126228
   117  H    0.128724
   118  H    0.119079
   119  H    0.128628
   120  H    0.133149
   121  H    0.124887
   122  H    0.127061
   123  C    0.090587
   124  C    0.097765
   125  N   -0.258333
   126  H    0.089063
   127  C   -0.023485
   128  N   -0.262163
   129  H    0.085114
   130  C    0.003230
   131  H    0.086152
   132  C   -0.419289
   133  C   -0.394764
   134  H    0.084433
   135  C   -0.425780
   136  C   -0.402425
   137  H    0.127074
   138  H    0.119571
   139  H    0.129477
   140  H    0.124420
   141  H    0.125294
   142  H    0.132969
   143  H    0.127252
   144  H    0.128274
   145  H    0.118945
   146  H    0.125113
   147  H    0.133641
   148  H    0.123200
   149  C    0.141295
   150  C    0.099156
   151  N   -0.249308
   152  H    0.055631
   153  C    0.002397
   154  N   -0.256447
   155  H    0.057817
   156  C   -0.014497
   157  H    0.070427
   158  C   -0.405943
   159  C   -0.395458
   160  H    0.074421
   161  C   -0.404539
   162  C   -0.397450
   163  H    0.120942
   164  H    0.126348
   165  H    0.125784
   166  H    0.132196
   167  H    0.121737
   168  H    0.116892
   169  H    0.122801
   170  H    0.128118
   171  H    0.127870
   172  H    0.117394
   173  H    0.132876
   174  H    0.123310
   175  H    0.216126
   176  H    0.234488
   177  H    0.103100
 Sum of Mulliken charges =   0.00000

 Dipole moment (field-independent basis, Debye):
    X=             -0.2441    Y=              0.8018    Z=              1.5672  Tot=              1.7773
 Quadrupole moment (field-independent basis, Debye-Ang):
   XX=           -452.1569   YY=           -465.9362   ZZ=           -478.3905
   XY=              7.1678   XZ=             -1.2002   YZ=             -2.7628

 Normal termination of Gaussian 16 at Mon Oct 18 04:23:18 2021.
