 Gaussian 16, Revision C.01,
 Gaussian 16:  ES64L-G16RevC.01  3-Jul-2019

 ----------------------------------------------------------------------
 #P PBE1PBE/Def2TZVP SP SCF=(YQC,MaxCycle=900) int=(Grid=Superfinegrid)
  EmpiricalDispersion=GD3 SCRF=(PCM,Solvent=Chloroform)
 ----------------------------------------------------------------------

 -------------------------
 _3_alde1_5_ami3_2_opt_cfm
 -------------------------
 Symbolic Z-matrix:
 Charge =  0 Multiplicity = 1

                         Standard orientation:
 ---------------------------------------------------------------------
 Center     Atomic      Atomic             Coordinates (Angstroms)
 Number     Number       Type             X           Y           Z
 ---------------------------------------------------------------------
      1          6           0        0.727597   -2.972786   -0.649754
      2          6           0       -0.118204   -3.095539   -1.825646
      3          6           0        0.197633   -2.957553    0.639250
      4          6           0        1.023971   -2.757391    1.740375
      5          1           0       -0.865508   -3.099684    0.759807
      6          6           0        2.384113   -2.516131    1.543852
      7          6           0        2.926141   -2.528564    0.264287
      8          1           0        2.999671   -2.327873    2.410215
      9          6           0        2.094858   -2.789117   -0.823574
     10          6           0        4.321674   -2.176631    0.038197
     11          1           0        2.536366   -2.807412   -1.807471
     12          6           0        0.460092   -2.772277    3.081381
     13          1           0        4.813524   -1.639378    0.864563
     14          1           0        0.424526   -3.186654   -2.778871
     15          1           0       -0.622369   -2.961729    3.136298
     16          6           0       -2.734780    0.659471    1.291395
     17          6           0       -3.786133   -0.176463    0.724408
     18          6           0       -2.458365    1.921515    0.766909
     19          6           0       -1.462329    2.719706    1.318150
     20          1           0       -3.040730    2.268610   -0.073796
     21          6           0       -0.714228    2.235661    2.390896
     22          6           0       -0.979855    0.981232    2.926640
     23          1           0        0.063982    2.863412    2.796960
     24          6           0       -1.997788    0.202766    2.377667
     25          6           0       -0.180574    0.464816    4.029152
     26          1           0       -2.191805   -0.765726    2.812167
     27          6           0       -1.191814    4.030464    0.748764
     28          1           0        0.785691    0.966387    4.194869
     29          1           0       -3.933314   -1.135478    1.233570
     30          1           0       -1.748889    4.267963   -0.171205
     31          6           0        0.441693    0.773621   -2.482727
     32          6           0       -0.881529    0.174873   -2.602780
     33          6           0        1.568209    0.055490   -2.879039
     34          6           0        2.847452    0.522951   -2.598047
     35          1           0        1.420553   -0.894288   -3.368455
     36          6           0        2.999373    1.747594   -1.949830
     37          6           0        1.885832    2.508620   -1.614479
     38          1           0        3.997642    2.088024   -1.720808
     39          6           0        0.609205    2.009913   -1.869766
     40          6           0        2.037558    3.775548   -0.908804
     41          1           0       -0.243333    2.594472   -1.560797
     42          6           0        3.991098   -0.327241   -2.886773
     43          1           0        2.946989    3.871297   -0.293966
     44          1           0        3.764124   -1.236775   -3.463578
     45          6           0       -2.369833   -1.474155   -3.313205
     46          6           0       -2.081142   -2.969937   -3.032422
     47          7           0       -1.106245   -0.807386   -3.360620
     48          7           0       -1.379058   -3.039487   -1.786445
     49          6           0       -6.785661    0.383377   -0.833480
     50          6           0       -5.527622   -0.531100   -0.862943
     51          7           0       -6.555781    1.706893   -1.375172
     52          7           0       -4.452526    0.206716   -0.276130
     53          6           0        0.515542   -2.535040    5.389968
     54          6           0        0.285727   -1.045827    5.743471
     55          7           0        1.160861   -2.584986    4.114100
     56          7           0       -0.568878   -0.503347    4.736514
     57          6           0        6.216774   -1.897398   -1.291629
     58          6           0        6.152567   -1.098473   -2.617603
     59          7           0        4.907821   -2.417787   -1.051470
     60          7           0        5.152586   -0.088190   -2.453868
     61          6           0       -0.080415    6.047813    0.542838
     62          6           0        1.285004    5.848425   -0.153806
     63          7           0       -0.370956    4.843110    1.256623
     64          7           0        1.167334    4.683315   -0.974167
     65          1           0       -5.788902    2.143501   -0.874777
     66          1           0       -6.280689    1.638261   -2.350501
     67          1           0       -1.654381    0.598850   -1.942667
     68          6           0       -5.862508   -1.899835   -0.265577
     69          6           0       -3.100209   -1.349532   -4.651571
     70          6           0        1.604112    7.092858   -0.983218
     71          6           0        7.244116   -3.020485   -1.439060
     72          6           0       -0.382769   -0.949274    7.115750
     73          1           0        1.266568   -0.536768    5.768800
     74          6           0        0.481796   -1.614071    8.181165
     75          1           0       -0.543012    0.103629    7.357801
     76          1           0       -1.358957   -1.434244    7.062783
     77          6           0        0.741541   -3.075708    7.828871
     78          1           0       -0.015771   -1.546501    9.150757
     79          1           0        1.434713   -1.084787    8.255487
     80          6           0        1.392556   -3.188520    6.454714
     81          1           0       -0.205283   -3.620873    7.826262
     82          1           0        1.388259   -3.531044    8.581375
     83          1           0        2.365721   -2.694908    6.454518
     84          1           0        1.548130   -4.236639    6.191793
     85          1           0       -0.476978   -3.018240    5.361698
     86          1           0       -3.003258   -1.078917   -2.499712
     87          6           0       -4.400974   -2.145789   -4.632021
     88          1           0       -2.444092   -1.717046   -5.442613
     89          1           0       -3.303517   -0.294238   -4.847545
     90          6           0       -4.138924   -3.612852   -4.303349
     91          1           0       -4.894777   -2.064012   -5.602701
     92          1           0       -5.072215   -1.722542   -3.880655
     93          6           0       -3.392708   -3.746013   -2.979840
     94          1           0       -3.540885   -4.059583   -5.101048
     95          1           0       -5.084517   -4.156728   -4.250352
     96          1           0       -3.179235   -4.795728   -2.768515
     97          1           0       -3.999222   -3.355343   -2.162312
     98          1           0       -1.457028   -3.339429   -3.865716
     99          1           0        2.063234    5.719649    0.619860
    100          6           0       -0.001324    7.252619    1.475416
    101          1           0       -0.827669    6.233526   -0.249708
    102          6           0        0.349400    8.505212    0.678034
    103          1           0        0.756007    7.060537    2.237149
    104          1           0       -0.961065    7.380030    1.980054
    105          6           0        1.662426    8.320356   -0.078949
    106          1           0        0.427926    9.360967    1.351338
    107          1           0       -0.451752    8.712935   -0.035261
    108          1           0        2.478322    8.200251    0.637833
    109          1           0        1.872325    9.207892   -0.679340
    110          1           0        0.833473    7.217253   -1.745896
    111          1           0        2.560605    6.948572   -1.490749
    112          1           0        6.535183   -1.213061   -0.484445
    113          6           0        7.520905   -0.492245   -2.911487
    114          1           0        5.875496   -1.812948   -3.413226
    115          6           0        8.568689   -1.594607   -3.030639
    116          1           0        7.781490    0.195450   -2.105363
    117          1           0        7.466356    0.081671   -3.838543
    118          6           0        8.617096   -2.437781   -1.759063
    119          1           0        9.548979   -1.152988   -3.219866
    120          1           0        8.321043   -2.236129   -3.879825
    121          1           0        9.339789   -3.247602   -1.877607
    122          1           0        8.946538   -1.814227   -0.924617
    123          1           0        6.920443   -3.692390   -2.235702
    124          1           0        7.281485   -3.593205   -0.509691
    125          1           0       -5.250454   -0.655554   -1.920779
    126          6           0       -7.923181   -0.292748   -1.597894
    127          1           0       -7.079053    0.515538    0.215524
    128          6           0       -8.239513   -1.668649   -1.022815
    129          1           0       -7.635150   -0.391131   -2.648064
    130          1           0       -8.801143    0.352707   -1.552792
    131          6           0       -6.997916   -2.554584   -1.045221
    132          1           0       -9.040379   -2.134774   -1.600153
    133          1           0       -8.588318   -1.559564    0.006547
    134          1           0       -6.685299   -2.718037   -2.079784
    135          1           0       -7.227122   -3.529935   -0.610137
    136          1           0       -6.166053   -1.773125    0.777081
    137          1           0       -4.975864   -2.539626   -0.288298
 ---------------------------------------------------------------------

 SCF Done:  E(RPBE1PBE) =  -2759.53930673     a.u. after    8 cycles
 SCF Done:  E(RPBE1PBE) =  -2759.53930750     A.U. after    7 cycles

 The electronic state is 1-A.
 Alpha  occ. eigenvalues --  -14.37808 -14.37807 -14.37796 -14.37749 -14.37692
 Alpha  occ. eigenvalues --  -14.37606 -14.37560 -14.37544 -14.37504 -14.35376
 Alpha  occ. eigenvalues --  -10.26714 -10.26688 -10.26669 -10.26645 -10.26577
 Alpha  occ. eigenvalues --  -10.26455 -10.26453 -10.26420 -10.26402 -10.25202
 Alpha  occ. eigenvalues --  -10.25199 -10.25141 -10.25137 -10.24977 -10.24963
 Alpha  occ. eigenvalues --  -10.24939 -10.24884 -10.24844 -10.24628 -10.24361
 Alpha  occ. eigenvalues --  -10.24340 -10.24332 -10.24324 -10.24309 -10.24307
 Alpha  occ. eigenvalues --  -10.24283 -10.24241 -10.24238 -10.23883 -10.23860
 Alpha  occ. eigenvalues --  -10.23849 -10.23843 -10.23843 -10.23841 -10.23819
 Alpha  occ. eigenvalues --  -10.23790 -10.23785 -10.21705 -10.21667 -10.21647
 Alpha  occ. eigenvalues --  -10.21617 -10.21588 -10.21549 -10.21518 -10.21484
 Alpha  occ. eigenvalues --  -10.21457 -10.21441 -10.21401 -10.21397 -10.21377
 Alpha  occ. eigenvalues --  -10.21361 -10.21336 -10.21325 -10.21306 -10.21289
 Alpha  occ. eigenvalues --  -10.21284 -10.21145  -0.97942  -0.97825  -0.97804
 Alpha  occ. eigenvalues --   -0.97755  -0.96570  -0.95265  -0.95161  -0.94881
 Alpha  occ. eigenvalues --   -0.94798  -0.91314  -0.90480  -0.89769  -0.89727
 Alpha  occ. eigenvalues --   -0.85911  -0.85742  -0.85695  -0.85104  -0.84276
 Alpha  occ. eigenvalues --   -0.80986  -0.80975  -0.80954  -0.80863  -0.80758
 Alpha  occ. eigenvalues --   -0.80746  -0.76899  -0.76807  -0.76641  -0.76312
 Alpha  occ. eigenvalues --   -0.76246  -0.75926  -0.75500  -0.75434  -0.75287
 Alpha  occ. eigenvalues --   -0.74164  -0.68641  -0.68593  -0.68481  -0.68126
 Alpha  occ. eigenvalues --   -0.67951  -0.67254  -0.66818  -0.66689  -0.65741
 Alpha  occ. eigenvalues --   -0.63327  -0.62976  -0.62843  -0.62709  -0.62357
 Alpha  occ. eigenvalues --   -0.62317  -0.61753  -0.61361  -0.60657  -0.60504
 Alpha  occ. eigenvalues --   -0.58921  -0.58338  -0.58297  -0.58185  -0.58118
 Alpha  occ. eigenvalues --   -0.56323  -0.56289  -0.56140  -0.56026  -0.55816
 Alpha  occ. eigenvalues --   -0.55278  -0.54055  -0.53571  -0.53273  -0.52706
 Alpha  occ. eigenvalues --   -0.52604  -0.52532  -0.51321  -0.51169  -0.50928
 Alpha  occ. eigenvalues --   -0.50430  -0.49770  -0.49712  -0.49607  -0.49199
 Alpha  occ. eigenvalues --   -0.49093  -0.48964  -0.48293  -0.47693  -0.47526
 Alpha  occ. eigenvalues --   -0.47485  -0.47323  -0.47234  -0.47173  -0.46732
 Alpha  occ. eigenvalues --   -0.46265  -0.46077  -0.45814  -0.45546  -0.45105
 Alpha  occ. eigenvalues --   -0.45011  -0.44762  -0.44619  -0.44345  -0.44201
 Alpha  occ. eigenvalues --   -0.44081  -0.43713  -0.43621  -0.43589  -0.43400
 Alpha  occ. eigenvalues --   -0.43198  -0.42397  -0.42290  -0.42173  -0.42087
 Alpha  occ. eigenvalues --   -0.42068  -0.41576  -0.41418  -0.41356  -0.40871
 Alpha  occ. eigenvalues --   -0.40136  -0.40094  -0.39984  -0.39918  -0.39579
 Alpha  occ. eigenvalues --   -0.38637  -0.38462  -0.38373  -0.38075  -0.37919
 Alpha  occ. eigenvalues --   -0.37562  -0.37251  -0.36944  -0.36600  -0.36414
 Alpha  occ. eigenvalues --   -0.36206  -0.36126  -0.36094  -0.36023  -0.35950
 Alpha  occ. eigenvalues --   -0.35757  -0.35658  -0.35635  -0.35570  -0.35499
 Alpha  occ. eigenvalues --   -0.35462  -0.35205  -0.34395  -0.34025  -0.33998
 Alpha  occ. eigenvalues --   -0.33882  -0.33725  -0.33650  -0.33557  -0.33332
 Alpha  occ. eigenvalues --   -0.32945  -0.32382  -0.32346  -0.32153  -0.32030
 Alpha  occ. eigenvalues --   -0.31906  -0.31673  -0.29995  -0.29950  -0.29182
 Alpha  occ. eigenvalues --   -0.27760  -0.27588  -0.27486  -0.27451  -0.27128
 Alpha  occ. eigenvalues --   -0.27018  -0.26908  -0.26846  -0.26215  -0.26061
 Alpha  occ. eigenvalues --   -0.25879  -0.25711  -0.25615  -0.25469  -0.25300
 Alpha  occ. eigenvalues --   -0.24506
 Alpha virt. eigenvalues --   -0.06422  -0.06332  -0.06097  -0.05607  -0.05498
 Alpha virt. eigenvalues --   -0.05203  -0.02416  -0.02056  -0.01108   0.03293
 Alpha virt. eigenvalues --    0.03820   0.04206   0.04473   0.04692   0.04935

 Mulliken charges:
               1
     1  C    0.355556
     2  C   -0.190863
     3  C   -0.360833
     4  C    0.371338
     5  H    0.126911
     6  C   -0.375257
     7  C    0.324377
     8  H    0.123159
     9  C   -0.284091
    10  C   -0.165199
    11  H    0.130026
    12  C   -0.166215
    13  H    0.085225
    14  H    0.098926
    15  H    0.091990
    16  C    0.364433
    17  C   -0.154076
    18  C   -0.364333
    19  C    0.372177
    20  H    0.136116
    21  C   -0.361857
    22  C    0.362641
    23  H    0.120138
    24  C   -0.362643
    25  C   -0.172493
    26  H    0.122014
    27  C   -0.184213
    28  H    0.087749
    29  H    0.109687
    30  H    0.090078
    31  C    0.306466
    32  C   -0.156468
    33  C   -0.295016
    34  C    0.372307
    35  H    0.129415
    36  C   -0.386424
    37  C    0.364534
    38  H    0.122071
    39  C   -0.330789
    40  C   -0.170372
    41  H    0.125116
    42  C   -0.177837
    43  H    0.087465
    44  H    0.097618
    45  C    0.015481
    46  C    0.084748
    47  N   -0.205478
    48  N   -0.220794
    49  C    0.010562
    50  C   -0.022740
    51  N   -0.521904
    52  N   -0.201234
    53  C    0.031823
    54  C    0.029734
    55  N   -0.196090
    56  N   -0.195151
    57  C    0.018721
    58  C    0.048308
    59  N   -0.195702
    60  N   -0.200972
    61  C    0.068511
    62  C    0.014343
    63  N   -0.193811
    64  N   -0.198433
    65  H    0.230461
    66  H    0.217534
    67  H    0.091677
    68  C   -0.254179
    69  C   -0.181835
    70  C   -0.196323
    71  C   -0.196358
    72  C   -0.192523
    73  H    0.053528
    74  C   -0.179557
    75  H    0.112216
    76  H    0.104110
    77  C   -0.188484
    78  H    0.112997
    79  H    0.092838
    80  C   -0.168845
    81  H    0.093011
    82  H    0.112529
    83  H    0.100108
    84  H    0.109089
    85  H    0.059600
    86  H    0.050169
    87  C   -0.188252
    88  H    0.105374
    89  H    0.111294
    90  C   -0.192845
    91  H    0.111227
    92  H    0.096685
    93  C   -0.157166
    94  H    0.097544
    95  H    0.113219
    96  H    0.104656
    97  H    0.078654
    98  H    0.063225
    99  H    0.056932
   100  C   -0.174131
   101  H    0.054859
   102  C   -0.191878
   103  H    0.100672
   104  H    0.109492
   105  C   -0.179490
   106  H    0.112917
   107  H    0.094059
   108  H    0.093474
   109  H    0.113142
   110  H    0.105871
   111  H    0.112501
   112  H    0.055182
   113  C   -0.172129
   114  H    0.059063
   115  C   -0.193024
   116  H    0.100305
   117  H    0.108838
   118  C   -0.178520
   119  H    0.112529
   120  H    0.093869
   121  H    0.113013
   122  H    0.093303
   123  H    0.105054
   124  H    0.112426
   125  H    0.046988
   126  C   -0.183118
   127  H    0.088156
   128  C   -0.189146
   129  H    0.094693
   130  H    0.111472
   131  C   -0.169676
   132  H    0.111640
   133  H    0.096557
   134  H    0.098746
   135  H    0.111130
   136  H    0.117102
   137  H    0.133275
 Sum of Mulliken charges =   0.00000

 Dipole moment (field-independent basis, Debye):
    X=              1.2626    Y=             -1.1483    Z=              0.8381  Tot=              1.9013
 Quadrupole moment (field-independent basis, Debye-Ang):
   XX=           -384.3718   YY=           -388.9086   ZZ=           -384.4762
   XY=             18.7476   XZ=              6.9602   YZ=              5.6884

 Normal termination of Gaussian 16 at Mon Oct 18 22:50:19 2021.
