 Gaussian 16, Revision C.01,
 Gaussian 16:  ES64L-G16RevC.01  3-Jul-2019

 ----------------------------------------------------------------------
 #P PBE1PBE/Def2TZVP SP SCF=(YQC,MaxCycle=900) int=(Grid=Superfinegrid)
  EmpiricalDispersion=GD3
 ----------------------------------------------------------------------

 -------------------------
 _3_alde1_5_ami2_2_opt_gas
 -------------------------
 Symbolic Z-matrix:
 Charge =  0 Multiplicity = 1

                         Standard orientation:
 ---------------------------------------------------------------------
 Center     Atomic      Atomic             Coordinates (Angstroms)
 Number     Number       Type             X           Y           Z
 ---------------------------------------------------------------------
      1          6           0       -3.722738    1.521424    1.575872
      2          6           0       -4.987054    1.895844    0.962304
      3          6           0       -2.617076    2.365433    1.537213
      4          6           0       -1.389969    1.949803    2.048639
      5          1           0       -2.709806    3.351715    1.113051
      6          6           0       -1.262833    0.658849    2.559139
      7          6           0       -2.361909   -0.193867    2.611021
      8          1           0       -0.302223    0.320106    2.924222
      9          6           0       -3.592503    0.256652    2.141320
     10          6           0       -2.218396   -1.569108    3.080281
     11          1           0       -4.434116   -0.414917    2.202749
     12          6           0       -0.255417    2.864180    2.057430
     13          1           0       -1.182546   -1.922585    3.149347
     14          1           0       -5.813256    1.185659    1.119205
     15          1           0        0.670626    2.491138    2.523185
     16          6           0        4.890111    0.604731    0.149066
     17          6           0        6.116295    0.663925    0.930860
     18          6           0        4.615994   -0.495842   -0.663184
     19          6           0        3.442554   -0.555491   -1.405648
     20          1           0        5.335342   -1.300129   -0.698883
     21          6           0        2.529422    0.498359   -1.330030
     22          6           0        2.798994    1.611128   -0.543033
     23          1           0        1.619675    0.432079   -1.907172
     24          6           0        3.982081    1.655475    0.195621
     25          6           0        1.880268    2.746646   -0.517900
     26          1           0        4.173767    2.530897    0.797177
     27          6           0        3.186449   -1.707411   -2.256794
     28          1           0        0.946534    2.610594   -1.076956
     29          1           0        6.255867    1.573885    1.535121
     30          1           0        3.993839   -2.455265   -2.299640
     31          6           0       -3.795963   -0.347203   -1.866223
     32          6           0       -4.370597    0.948353   -2.212222
     33          6           0       -4.384148   -1.139472   -0.883509
     34          6           0       -3.764496   -2.304700   -0.442588
     35          1           0       -5.312323   -0.802924   -0.448970
     36          6           0       -2.576039   -2.713169   -1.041445
     37          6           0       -1.992124   -1.951536   -2.048505
     38          1           0       -2.090687   -3.615552   -0.708511
     39          6           0       -2.594654   -0.757010   -2.437717
     40          6           0       -0.732241   -2.369133   -2.656076
     41          1           0       -2.124277   -0.142353   -3.193844
     42          6           0       -4.292492   -2.995368    0.723240
     43          1           0       -0.250461   -1.626889   -3.300066
     44          1           0       -5.248964   -2.611047    1.110565
     45          6           0       -6.076626    2.599446   -1.957909
     46          6           0       -6.332685    3.078071   -0.494740
     47          7           0       -5.514294    1.285013   -1.806241
     48          7           0       -5.120673    2.924209    0.242646
     49          6           0        9.392994   -0.250989    0.714235
     50          6           0        8.165080   -0.177060    1.670131
     51          7           0        9.345592   -1.423177   -0.141910
     52          7           0        6.959850   -0.274367    0.919351
     53          6           0        0.739858    4.928896    1.589762
     54          6           0        1.403254    4.984745    0.184282
     55          7           0       -0.360819    4.028226    1.583154
     56          7           0        2.207225    3.799269    0.092704
     57          6           0       -3.192257   -3.672726    3.665106
     58          6           0       -4.105111   -4.343705    2.592480
     59          7           0       -3.230269   -2.272485    3.338980
     60          7           0       -3.654622   -3.912451    1.310415
     61          6           0        1.875740   -2.995621   -3.690875
     62          6           0        0.971802   -4.017362   -2.935767
     63          7           0        2.113496   -1.829171   -2.911613
     64          7           0       -0.259994   -3.511145   -2.416141
     65          1           0        9.348601   -2.268634    0.418996
     66          1           0        8.482705   -1.413325   -0.675273
     67          1           0       -3.711095    1.594535   -2.804216
     68          6           0       10.670573   -0.315751    1.551837
     69          6           0        9.415436    0.987700   -0.183564
     70          6           0       -5.207727    3.633916   -2.678615
     71          6           0       -7.420959    2.440655   -2.675431
     72          1           0       -7.155358    2.479205   -0.074802
     73          1           0       -6.609102    4.133806   -0.509269
     74          1           0        2.805459   -3.522233   -3.959903
     75          1           0        1.363352   -2.686066   -4.606930
     76          6           0        1.730792   -4.594795   -1.734009
     77          6           0        0.611093   -5.152090   -3.904984
     78          1           0        1.517170    4.652891    2.319903
     79          1           0        0.347338    5.921379    1.824355
     80          1           0       -5.148663   -4.052724    2.790689
     81          1           0       -4.000564   -5.427956    2.664097
     82          6           0       -3.836421   -3.836593    5.045801
     83          6           0       -1.813516   -4.337924    3.637958
     84          6           0        2.387711    6.159869    0.149934
     85          6           0        0.333061    5.160934   -0.896999
     86          1           0       -4.291124    3.805966   -2.119659
     87          1           0       -5.751345    4.572208   -2.751044
     88          1           0       -4.965735    3.300779   -3.686404
     89          1           0       -8.000378    1.649020   -2.207939
     90          1           0       -7.253641    2.175305   -3.717026
     91          1           0       -7.984499    3.369213   -2.633401
     92          1           0       -1.141616   -3.865224    4.352137
     93          1           0       -1.389338   -4.273068    2.638942
     94          1           0       -1.913631   -5.386137    3.906884
     95          1           0       -4.016015   -4.887681    5.256486
     96          1           0       -4.779661   -3.298088    5.082293
     97          1           0       -3.178197   -3.429975    5.810446
     98          1           0        0.786658    5.090000   -1.884163
     99          1           0       -0.128478    6.138560   -0.790800
    100          1           0       -0.444147    4.407938   -0.797551
    101          1           0        1.870112    7.099610    0.322009
    102          1           0        2.876292    6.198260   -0.820731
    103          1           0        3.149946    6.026496    0.912674
    104          1           0       -0.017671   -5.875743   -3.393885
    105          1           0        1.510342   -5.648279   -4.260961
    106          1           0        0.061818   -4.759903   -4.758181
    107          1           0        2.016418   -3.796637   -1.051850
    108          1           0        2.623575   -5.121842   -2.062050
    109          1           0        1.083218   -5.285103   -1.201291
    110          1           0        9.530671    1.890641    0.410746
    111          1           0        8.490558    1.057930   -0.752225
    112          1           0       10.245084    0.912265   -0.880440
    113          1           0       10.661194   -1.190611    2.198910
    114          1           0       10.771054    0.572471    2.169951
    115          1           0       11.529717   -0.386546    0.890731
    116          1           0        8.220039    0.743000    2.276030
    117          1           0        8.201839   -1.044210    2.339138
 ---------------------------------------------------------------------

 SCF Done:  E(RPBE1PBE) =  -2372.67124704     a.u. after    7 cycles
 SCF Done:  E(RPBE1PBE) =  -2372.67125898     A.U. after    9 cycles

 The electronic state is 1-A.
 Alpha  occ. eigenvalues --  -14.38167 -14.38105 -14.37629 -14.37450 -14.37306
 Alpha  occ. eigenvalues --  -14.37238 -14.37045 -14.36972 -14.36896 -14.35163
 Alpha  occ. eigenvalues --  -10.27074 -10.27046 -10.26816 -10.26660 -10.26660
 Alpha  occ. eigenvalues --  -10.26638 -10.26493 -10.26480 -10.26404 -10.26362
 Alpha  occ. eigenvalues --  -10.26029 -10.25982 -10.25870 -10.25827 -10.24907
 Alpha  occ. eigenvalues --  -10.24706 -10.24564 -10.24515 -10.24446 -10.24411
 Alpha  occ. eigenvalues --  -10.24302 -10.24281 -10.24051 -10.24043 -10.24038
 Alpha  occ. eigenvalues --  -10.23951 -10.23913 -10.23901 -10.23799 -10.23742
 Alpha  occ. eigenvalues --  -10.23738 -10.23571 -10.23567 -10.23356 -10.23205
 Alpha  occ. eigenvalues --  -10.22910 -10.22597 -10.21075 -10.20928 -10.20894
 Alpha  occ. eigenvalues --  -10.20736 -10.20636 -10.20624 -10.20622 -10.20576
 Alpha  occ. eigenvalues --  -10.20555 -10.20214  -0.97657  -0.97522  -0.97485
 Alpha  occ. eigenvalues --   -0.97372  -0.96894  -0.95158  -0.95056  -0.94480
 Alpha  occ. eigenvalues --   -0.94184  -0.91655  -0.90112  -0.89728  -0.89160
 Alpha  occ. eigenvalues --   -0.83781  -0.83524  -0.83359  -0.81995  -0.81000
 Alpha  occ. eigenvalues --   -0.80401  -0.79862  -0.78902  -0.78301  -0.77990
 Alpha  occ. eigenvalues --   -0.77479  -0.73048  -0.72361  -0.72177  -0.71838
 Alpha  occ. eigenvalues --   -0.71822  -0.71404  -0.71390  -0.71334  -0.71188
 Alpha  occ. eigenvalues --   -0.71060  -0.68276  -0.68142  -0.67873  -0.66815
 Alpha  occ. eigenvalues --   -0.65910  -0.65237  -0.64800  -0.64075  -0.63504
 Alpha  occ. eigenvalues --   -0.60797  -0.60314  -0.58576  -0.57668  -0.57320
 Alpha  occ. eigenvalues --   -0.56959  -0.56657  -0.56055  -0.54943  -0.54604
 Alpha  occ. eigenvalues --   -0.54420  -0.54041  -0.52938  -0.52652  -0.52245
 Alpha  occ. eigenvalues --   -0.51435  -0.51272  -0.50987  -0.50547  -0.50181
 Alpha  occ. eigenvalues --   -0.50009  -0.49694  -0.49319  -0.49010  -0.48660
 Alpha  occ. eigenvalues --   -0.48464  -0.48198  -0.47895  -0.47813  -0.47707
 Alpha  occ. eigenvalues --   -0.47315  -0.47155  -0.46737  -0.46243  -0.46089
 Alpha  occ. eigenvalues --   -0.45600  -0.45342  -0.44951  -0.44872  -0.44709
 Alpha  occ. eigenvalues --   -0.44461  -0.44039  -0.43371  -0.42692  -0.42608
 Alpha  occ. eigenvalues --   -0.42093  -0.41893  -0.41670  -0.41375  -0.41136
 Alpha  occ. eigenvalues --   -0.41027  -0.40930  -0.40731  -0.40635  -0.39775
 Alpha  occ. eigenvalues --   -0.39728  -0.39712  -0.39545  -0.39488  -0.39394
 Alpha  occ. eigenvalues --   -0.39251  -0.39111  -0.39040  -0.38786  -0.38424
 Alpha  occ. eigenvalues --   -0.38302  -0.38120  -0.37726  -0.37481  -0.37314
 Alpha  occ. eigenvalues --   -0.37052  -0.36842  -0.36794  -0.36660  -0.36403
 Alpha  occ. eigenvalues --   -0.36059  -0.35930  -0.35845  -0.35658  -0.35144
 Alpha  occ. eigenvalues --   -0.34899  -0.34757  -0.34204  -0.34113  -0.33935
 Alpha  occ. eigenvalues --   -0.33723  -0.33426  -0.31174  -0.30181  -0.29871
 Alpha  occ. eigenvalues --   -0.27767  -0.27437  -0.26729  -0.26644  -0.26592
 Alpha  occ. eigenvalues --   -0.26351  -0.26304  -0.26207  -0.26180  -0.26157
 Alpha  occ. eigenvalues --   -0.25657  -0.25267  -0.24876  -0.24743  -0.24643
 Alpha  occ. eigenvalues --   -0.24468
 Alpha virt. eigenvalues --   -0.06571  -0.06266  -0.06097  -0.05399  -0.05132
 Alpha virt. eigenvalues --   -0.04505  -0.02331  -0.01870  -0.00948   0.03311
 Alpha virt. eigenvalues --    0.03769   0.04271   0.04664   0.04758   0.04877

 Mulliken charges:
               1
     1  C    0.419031
     2  C   -0.171919
     3  C   -0.383885
     4  C    0.389791
     5  H    0.142017
     6  C   -0.344482
     7  C    0.272111
     8  H    0.110857
     9  C   -0.279986
    10  C   -0.131787
    11  H    0.121973
    12  C   -0.180700
    13  H    0.083587
    14  H    0.074183
    15  H    0.074485
    16  C    0.366147
    17  C   -0.173988
    18  C   -0.342305
    19  C    0.383037
    20  H    0.123375
    21  C   -0.352403
    22  C    0.397137
    23  H    0.125827
    24  C   -0.341652
    25  C   -0.199620
    26  H    0.122908
    27  C   -0.204682
    28  H    0.087220
    29  H    0.069352
    30  H    0.076718
    31  C    0.273600
    32  C   -0.130534
    33  C   -0.296985
    34  C    0.423853
    35  H    0.123622
    36  C   -0.380380
    37  C    0.351967
    38  H    0.134512
    39  C   -0.354538
    40  C   -0.140415
    41  H    0.108360
    42  C   -0.176920
    43  H    0.094178
    44  H    0.072388
    45  C    0.137508
    46  C   -0.046543
    47  N   -0.193247
    48  N   -0.187915
    49  C    0.138929
    50  C   -0.124776
    51  N   -0.496794
    52  N   -0.175551
    53  C   -0.089542
    54  C    0.122947
    55  N   -0.184030
    56  N   -0.176687
    57  C    0.140764
    58  C   -0.048889
    59  N   -0.192484
    60  N   -0.187419
    61  C   -0.119992
    62  C    0.152179
    63  N   -0.184734
    64  N   -0.177876
    65  H    0.204148
    66  H    0.219657
    67  H    0.078861
    68  C   -0.355063
    69  C   -0.376394
    70  C   -0.436071
    71  C   -0.356998
    72  H    0.076036
    73  H    0.108847
    74  H    0.098065
    75  H    0.126063
    76  C   -0.389957
    77  C   -0.356454
    78  H    0.082403
    79  H    0.118570
    80  H    0.074363
    81  H    0.108654
    82  C   -0.356262
    83  C   -0.435169
    84  C   -0.334895
    85  C   -0.407091
    86  H    0.155350
    87  H    0.124290
    88  H    0.125602
    89  H    0.129818
    90  H    0.120680
    91  H    0.115809
    92  H    0.123920
    93  H    0.157688
    94  H    0.123456
    95  H    0.116146
    96  H    0.130111
    97  H    0.120478
    98  H    0.127532
    99  H    0.123371
   100  H    0.151462
   101  H    0.113678
   102  H    0.121454
   103  H    0.122930
   104  H    0.135185
   105  H    0.114828
   106  H    0.121471
   107  H    0.136223
   108  H    0.112425
   109  H    0.134632
   110  H    0.107897
   111  H    0.129289
   112  H    0.131387
   113  H    0.112075
   114  H    0.112679
   115  H    0.134062
   116  H    0.069257
   117  H    0.112602
 Sum of Mulliken charges =   0.00000

 Dipole moment (field-independent basis, Debye):
    X=              0.6367    Y=              0.2581    Z=              0.4690  Tot=              0.8318
 Quadrupole moment (field-independent basis, Debye-Ang):
   XX=           -349.0130   YY=           -334.5042   ZZ=           -330.4404
   XY=             -2.4044   XZ=             12.4604   YZ=             -7.3957

 Normal termination of Gaussian 16 at Mon Oct 18 05:38:56 2021.
