 Gaussian 16, Revision C.01,
 Gaussian 16:  ES64L-G16RevC.01  3-Jul-2019

 ----------------------------------------------------------------------
 #P PBE1PBE/Def2TZVP SP SCF=(YQC,MaxCycle=900) int=(Grid=Superfinegrid)
  EmpiricalDispersion=GD3
 ----------------------------------------------------------------------

 -------------------------
 _3_alde1_6_ami3_1_opt_gas
 -------------------------
 Symbolic Z-matrix:
 Charge =  0 Multiplicity = 1

                         Standard orientation:
 ---------------------------------------------------------------------
 Center     Atomic      Atomic             Coordinates (Angstroms)
 Number     Number       Type             X           Y           Z
 ---------------------------------------------------------------------
      1          6           0        3.588087   -2.685244    0.002047
      2          6           0        3.972831   -3.523376   -1.190134
      3          6           0        2.428371   -2.945078    0.716497
      4          6           0        2.086416   -2.165321    1.820017
      5          1           0        1.817867   -3.786433    0.426304
      6          6           0        2.891501   -1.082684    2.165012
      7          6           0        4.056726   -0.814300    1.457388
      8          1           0        2.608059   -0.484035    3.016989
      9          6           0        4.405898   -1.632917    0.383581
     10          6           0        4.893105    0.311883    1.845786
     11          1           0        5.323947   -1.433234   -0.145777
     12          6           0        0.953895   -2.533647    2.658187
     13          1           0        4.388982    1.084959    2.447804
     14          1           0        0.320422   -3.354994    2.287681
     15          6           0       -4.388567   -0.398632    0.413754
     16          6           0       -5.467296   -1.398663    0.061936
     17          6           0       -4.214033    0.766062   -0.320838
     18          6           0       -3.265921    1.712360    0.063719
     19          1           0       -4.837817    0.937613   -1.185470
     20          6           0       -2.469691    1.473224    1.179748
     21          6           0       -2.614168    0.294452    1.903329
     22          1           0       -1.740504    2.216693    1.463539
     23          6           0       -3.579421   -0.635251    1.513535
     24          6           0       -1.800044    0.039488    3.083911
     25          1           0       -3.689139   -1.537576    2.094467
     26          6           0       -3.129861    2.945355   -0.701531
     27          1           0       -1.060281    0.812072    3.341960
     28          1           0       -3.459529    2.891011   -1.751815
     29          6           0        1.826177    1.053652   -2.304091
     30          6           0        1.238391   -0.107918   -3.065643
     31          6           0        3.150666    0.981571   -1.893090
     32          6           0        3.709577    1.998837   -1.122788
     33          1           0        3.747096    0.121324   -2.162968
     34          6           0        2.921357    3.083472   -0.745380
     35          6           0        1.602298    3.171388   -1.171516
     36          1           0        3.365424    3.854495   -0.134300
     37          6           0        1.061544    2.153988   -1.959520
     38          6           0        0.765325    4.291011   -0.763058
     39          1           0        0.038923    2.233505   -2.290066
     40          6           0        5.094070    1.883213   -0.701053
     41          1           0        1.088246    4.821706    0.147586
     42          1           0        5.626058    1.003750   -1.092510
     43          6           0        2.516683   -4.751366   -2.543970
     44          6           0        3.409816   -3.824231   -3.385683
     45          7           0        3.200788   -4.789775   -1.256585
     46          1           0        1.558224   -4.238406   -2.378571
     47          6           0        2.264507   -6.055893   -3.272213
     48          7           0        3.754347   -2.776407   -2.436424
     49          1           0        4.343650   -4.355386   -3.625845
     50          6           0        2.715874   -3.438056   -4.674847
     51          6           0        1.580572   -5.713690   -4.599753
     52          6           0        2.402044   -4.729304   -5.437494
     53          6           0       -7.470216   -0.439449   -0.551377
     54          6           0       -7.727261   -1.376028    0.641518
     55          7           0       -6.235007   -0.967061   -1.114420
     56          1           0       -7.236762    0.562651   -0.163733
     57          6           0       -8.695771   -0.359612   -1.437205
     58          7           0       -6.399058   -1.571739    1.204092
     59          1           0       -8.054808   -2.353398    0.254263
     60          6           0       -8.815423   -0.808093    1.529679
     61          6           0       -9.846108    0.177299   -0.578957
     62          6           0      -10.080104   -0.669720    0.675626
     63          6           0       -1.041633   -0.564558   -2.928896
     64          6           0       -0.243379   -1.802682   -2.488064
     65          7           0       -0.062225    0.217198   -3.670139
     66          1           0       -1.315282    0.014156   -2.034310
     67          6           0       -2.301015   -0.998519   -3.651118
     68          7           0        1.064115   -1.260680   -2.145595
     69          1           0       -0.094938   -2.447008   -3.369477
     70          6           0       -1.016743   -2.577447   -1.442222
     71          6           0       -3.121282   -1.852947   -2.679984
     72          6           0       -2.326047   -3.026754   -2.099992
     73          6           0       -0.258311   -2.431857    4.665073
     74          6           0       -1.205187   -1.247723    4.953159
     75          7           0        0.768162   -1.984709    3.777985
     76          1           0       -0.856518   -3.256345    4.236929
     77          6           0        0.430586   -2.891364    5.955359
     78          7           0       -1.970550   -1.001763    3.773119
     79          1           0       -0.584032   -0.380915    5.240871
     80          6           0       -2.187286   -1.602011    6.073564
     81          6           0       -0.578561   -3.246330    7.038866
     82          6           0       -1.465079   -2.043666    7.339049
     83          6           0        6.825727    1.595844    1.849218
     84          6           0        6.973345    2.410128    0.532955
     85          7           0        6.111988    0.401846    1.530435
     86          1           0        6.271817    2.225529    2.569666
     87          6           0        8.212276    1.264752    2.396400
     88          7           0        5.655526    2.713908    0.069080
     89          1           0        7.518753    1.769506   -0.181569
     90          6           0        7.759641    3.688131    0.807013
     91          6           0        9.008976    2.539129    2.653145
     92          6           0        9.136656    3.361266    1.374127
     93          6           0       -2.564322    5.180569   -0.998190
     94          6           0       -1.106611    5.669785   -0.920760
     95          7           0       -2.688243    4.007772   -0.188628
     96          1           0       -2.798626    4.965113   -2.056735
     97          6           0       -3.495902    6.280007   -0.483401
     98          7           0       -0.269956    4.615317   -1.402896
     99          1           0       -0.873018    5.925240    0.128636
    100          6           0       -0.948760    6.921135   -1.788569
    101          6           0       -3.334984    7.544386   -1.320497
    102          6           0       -1.885905    8.022483   -1.304562
    103          1           0       -6.448832   -1.767102   -1.702117
    104          1           0       -4.997419   -2.370888   -0.141599
    105          1           0       -6.209360   -0.862839    1.907345
    106          1           0        1.055148   -0.928005   -1.183372
    107          1           0       -0.073052   -0.049385   -4.648862
    108          1           0        1.948882   -0.409587   -3.849146
    109          1           0        2.936593   -2.173413   -2.315392
    110          1           0        3.829725   -5.584541   -1.214666
    111          1           0        5.049245   -3.748565   -1.125264
    112          1           0       -0.049967   -3.560724    7.941120
    113          1           0       -1.198691   -4.080565    6.703248
    114          1           0       -2.196676   -2.296702    8.109119
    115          1           0       -0.849678   -1.223281    7.715545
    116          1           0        1.062900   -3.751267    5.723766
    117          1           0        1.079037   -2.083096    6.298326
    118          1           0       -2.814229   -0.730821    6.275181
    119          1           0       -2.834838   -2.403331    5.713212
    120          1           0        0.602900   -5.274466   -4.386669
    121          1           0        1.416568   -6.627018   -5.175340
    122          1           0        3.342044   -5.205364   -5.726548
    123          1           0        1.855665   -4.492890   -6.353067
    124          1           0        1.794910   -2.900351   -4.445421
    125          1           0        3.351716   -2.787269   -5.277400
    126          1           0        1.630001   -6.718382   -2.680203
    127          1           0        3.211855   -6.568412   -3.459811
    128          1           0        9.680509    4.285886    1.578043
    129          1           0        9.706301    2.793415    0.634668
    130          1           0        7.855006    4.250510   -0.123889
    131          1           0        7.194814    4.300280    1.511933
    132          1           0       10.000303    2.282285    3.032167
    133          1           0        8.502009    3.134352    3.416391
    134          1           0        8.100101    0.694042    3.320652
    135          1           0        8.729561    0.632692    1.672737
    136          1           0        0.089611    7.256845   -1.742565
    137          1           0       -1.171709    6.659687   -2.824460
    138          1           0       -1.777611    8.902978   -1.941315
    139          1           0       -1.611149    8.308940   -0.286616
    140          1           0       -3.989474    8.327897   -0.932637
    141          1           0       -3.635030    7.335896   -2.350177
    142          1           0       -4.527628    5.923901   -0.527171
    143          1           0       -3.254734    6.482498    0.561580
    144          1           0      -10.763236    0.204306   -1.170345
    145          1           0       -9.612470    1.201818   -0.280020
    146          1           0      -10.876236   -0.217874    1.270121
    147          1           0      -10.413135   -1.666638    0.377191
    148          1           0       -8.509500    0.169326    1.911468
    149          1           0       -9.004067   -1.463789    2.381101
    150          1           0       -8.943654   -1.352968   -1.819764
    151          1           0       -8.519302    0.299518   -2.288771
    152          1           0       -1.224639   -1.937990   -0.580163
    153          1           0       -0.449660   -3.444005   -1.096847
    154          1           0       -4.006096   -2.236755   -3.191386
    155          1           0       -3.460602   -1.215418   -1.863754
    156          1           0       -2.943096   -3.547400   -1.365369
    157          1           0       -2.092591   -3.735746   -2.899094
    158          1           0       -2.036707   -1.578771   -4.539958
    159          1           0       -2.884041   -0.133610   -3.970261
 ---------------------------------------------------------------------

 SCF Done:  E(RPBE1PBE) =  -3105.86193102     a.u. after    8 cycles
 SCF Done:  E(RPBE1PBE) =  -3105.86193208     A.U. after    7 cycles

 The electronic state is 1-A.
 Alpha  occ. eigenvalues --  -14.37541 -14.37525 -14.36942 -14.36865 -14.36831
 Alpha  occ. eigenvalues --  -14.36809 -14.36684 -14.36537 -14.36410 -14.36161
 Alpha  occ. eigenvalues --  -14.36068 -14.35297 -10.28072 -10.27815 -10.26902
 Alpha  occ. eigenvalues --  -10.25842 -10.25800 -10.25720 -10.25454 -10.25450
 Alpha  occ. eigenvalues --  -10.25115 -10.24670 -10.24544 -10.24519 -10.24505
 Alpha  occ. eigenvalues --  -10.24487 -10.24350 -10.24328 -10.24287 -10.24197
 Alpha  occ. eigenvalues --  -10.24127 -10.23701 -10.23592 -10.23447 -10.23442
 Alpha  occ. eigenvalues --  -10.23419 -10.22830 -10.22794 -10.22759 -10.22729
 Alpha  occ. eigenvalues --  -10.22728 -10.22710 -10.22645 -10.22526 -10.22427
 Alpha  occ. eigenvalues --  -10.22404 -10.22387 -10.22323 -10.22250 -10.22230
 Alpha  occ. eigenvalues --  -10.22092 -10.22075 -10.22071 -10.22000 -10.21974
 Alpha  occ. eigenvalues --  -10.21960 -10.21909 -10.21906 -10.21884 -10.21817
 Alpha  occ. eigenvalues --  -10.21666 -10.21546 -10.21513 -10.21332 -10.21296
 Alpha  occ. eigenvalues --  -10.21224 -10.21205 -10.21093 -10.21069 -10.21022
 Alpha  occ. eigenvalues --  -10.20977 -10.20881 -10.20820 -10.20738 -10.20552
 Alpha  occ. eigenvalues --   -0.99512  -0.99272  -0.98274  -0.96830  -0.96761
 Alpha  occ. eigenvalues --   -0.96684  -0.94455  -0.94277  -0.93500  -0.89407
 Alpha  occ. eigenvalues --   -0.88848  -0.88546  -0.88361  -0.88297  -0.86997
 Alpha  occ. eigenvalues --   -0.85893  -0.85536  -0.85332  -0.85051  -0.84950
 Alpha  occ. eigenvalues --   -0.84485  -0.80121  -0.80070  -0.79760  -0.79636
 Alpha  occ. eigenvalues --   -0.79462  -0.79309  -0.76679  -0.76284  -0.76280
 Alpha  occ. eigenvalues --   -0.76058  -0.76011  -0.75856  -0.75512  -0.74885
 Alpha  occ. eigenvalues --   -0.74657  -0.74359  -0.73948  -0.73679  -0.67628
 Alpha  occ. eigenvalues --   -0.67509  -0.67226  -0.66711  -0.66450  -0.66015
 Alpha  occ. eigenvalues --   -0.65769  -0.65445  -0.64887  -0.63203  -0.62771
 Alpha  occ. eigenvalues --   -0.62569  -0.62390  -0.62343  -0.62240  -0.61868
 Alpha  occ. eigenvalues --   -0.61701  -0.61556  -0.61223  -0.60784  -0.60545
 Alpha  occ. eigenvalues --   -0.59675  -0.59513  -0.58960  -0.57905  -0.57655
 Alpha  occ. eigenvalues --   -0.57573  -0.57146  -0.56978  -0.56316  -0.55522
 Alpha  occ. eigenvalues --   -0.55103  -0.54935  -0.53279  -0.52548  -0.52502
 Alpha  occ. eigenvalues --   -0.52351  -0.51854  -0.51726  -0.51445  -0.51105
 Alpha  occ. eigenvalues --   -0.50714  -0.50399  -0.50048  -0.49928  -0.49640
 Alpha  occ. eigenvalues --   -0.49412  -0.48849  -0.48352  -0.48124  -0.47986
 Alpha  occ. eigenvalues --   -0.47902  -0.47768  -0.47519  -0.47362  -0.47232
 Alpha  occ. eigenvalues --   -0.47003  -0.46759  -0.46660  -0.46541  -0.46473
 Alpha  occ. eigenvalues --   -0.45898  -0.45873  -0.45640  -0.45199  -0.45121
 Alpha  occ. eigenvalues --   -0.44764  -0.44418  -0.44291  -0.44043  -0.43959
 Alpha  occ. eigenvalues --   -0.43811  -0.43474  -0.43368  -0.43069  -0.42959
 Alpha  occ. eigenvalues --   -0.42654  -0.42487  -0.41877  -0.41693  -0.41521
 Alpha  occ. eigenvalues --   -0.41474  -0.41371  -0.41220  -0.41150  -0.41019
 Alpha  occ. eigenvalues --   -0.40716  -0.40524  -0.40252  -0.40075  -0.39579
 Alpha  occ. eigenvalues --   -0.39514  -0.39376  -0.39178  -0.39103  -0.38979
 Alpha  occ. eigenvalues --   -0.37645  -0.37561  -0.37482  -0.37393  -0.37291
 Alpha  occ. eigenvalues --   -0.37146  -0.37082  -0.36722  -0.36590  -0.36547
 Alpha  occ. eigenvalues --   -0.36354  -0.36248  -0.35975  -0.35953  -0.35734
 Alpha  occ. eigenvalues --   -0.35569  -0.35499  -0.35336  -0.35146  -0.35057
 Alpha  occ. eigenvalues --   -0.35026  -0.34709  -0.34579  -0.34514  -0.34278
 Alpha  occ. eigenvalues --   -0.34192  -0.33897  -0.33734  -0.33638  -0.33537
 Alpha  occ. eigenvalues --   -0.33425  -0.33316  -0.33167  -0.33097  -0.32975
 Alpha  occ. eigenvalues --   -0.32784  -0.32622  -0.32490  -0.32319  -0.31517
 Alpha  occ. eigenvalues --   -0.31297  -0.31230  -0.30075  -0.29931  -0.29424
 Alpha  occ. eigenvalues --   -0.26660  -0.26585  -0.26467  -0.26364  -0.26159
 Alpha  occ. eigenvalues --   -0.26065  -0.25924  -0.25672  -0.25317  -0.25090
 Alpha  occ. eigenvalues --   -0.24878  -0.24778  -0.24493  -0.24152  -0.24078
 Alpha  occ. eigenvalues --   -0.23810  -0.23665  -0.22991
 Alpha virt. eigenvalues --   -0.05227  -0.04584  -0.04332  -0.03334  -0.03160
 Alpha virt. eigenvalues --   -0.03033   0.01677   0.02302   0.02740   0.02947
 Alpha virt. eigenvalues --    0.03338   0.03925   0.04038   0.04343   0.04412

 Mulliken charges:
               1
     1  C    0.292601
     2  C   -0.025079
     3  C   -0.373474
     4  C    0.376973
     5  H    0.127260
     6  C   -0.345760
     7  C    0.426605
     8  H    0.112945
     9  C   -0.470028
    10  C   -0.175549
    11  H    0.119380
    12  C   -0.166917
    13  H    0.070658
    14  H    0.071906
    15  C    0.100511
    16  C    0.078766
    17  C   -0.360681
    18  C    0.419841
    19  H    0.143580
    20  C   -0.375407
    21  C    0.428850
    22  H    0.118596
    23  C   -0.425172
    24  C   -0.185874
    25  H    0.131659
    26  C   -0.190464
    27  H    0.080282
    28  H    0.070824
    29  C    0.121313
    30  C    0.046525
    31  C   -0.314116
    32  C    0.321829
    33  H    0.141014
    34  C   -0.396425
    35  C    0.410683
    36  H    0.115798
    37  C   -0.329997
    38  C   -0.192413
    39  H    0.159601
    40  C   -0.162527
    41  H    0.067899
    42  H    0.086591
    43  C   -0.074056
    44  C    0.012199
    45  N   -0.255305
    46  H    0.030348
    47  C   -0.145200
    48  N   -0.261987
    49  H    0.046463
    50  C   -0.165526
    51  C   -0.186694
    52  C   -0.186786
    53  C   -0.057961
    54  C   -0.097352
    55  N   -0.271414
    56  H    0.064999
    57  C   -0.141582
    58  N   -0.235504
    59  H    0.054616
    60  C   -0.171322
    61  C   -0.194680
    62  C   -0.192611
    63  C   -0.082308
    64  C   -0.073735
    65  N   -0.215381
    66  H    0.069367
    67  C   -0.149856
    68  N   -0.323252
    69  H    0.031469
    70  C   -0.185600
    71  C   -0.108566
    72  C   -0.200998
    73  C    0.044971
    74  C    0.037845
    75  N   -0.188702
    76  H    0.043324
    77  C   -0.198330
    78  N   -0.182945
    79  H    0.047231
    80  C   -0.189638
    81  C   -0.163232
    82  C   -0.168528
    83  C    0.050642
    84  C    0.008204
    85  N   -0.179369
    86  H    0.044275
    87  C   -0.173028
    88  N   -0.188357
    89  H    0.056121
    90  C   -0.159978
    91  C   -0.176568
    92  C   -0.179838
    93  C    0.081582
    94  C    0.030390
    95  N   -0.181173
    96  H    0.038420
    97  C   -0.185555
    98  N   -0.176366
    99  H    0.043014
   100  C   -0.198631
   101  C   -0.175349
   102  C   -0.168341
   103  H    0.186789
   104  H    0.091694
   105  H    0.201091
   106  H    0.222698
   107  H    0.184874
   108  H    0.100784
   109  H    0.166548
   110  H    0.187270
   111  H    0.076482
   112  H    0.107246
   113  H    0.085383
   114  H    0.106761
   115  H    0.086013
   116  H    0.108506
   117  H    0.103420
   118  H    0.104989
   119  H    0.103711
   120  H    0.090676
   121  H    0.110078
   122  H    0.095928
   123  H    0.108471
   124  H    0.084880
   125  H    0.102322
   126  H    0.108022
   127  H    0.084181
   128  H    0.105976
   129  H    0.086681
   130  H    0.104106
   131  H    0.098510
   132  H    0.106533
   133  H    0.085908
   134  H    0.105043
   135  H    0.102302
   136  H    0.108246
   137  H    0.105101
   138  H    0.107425
   139  H    0.086799
   140  H    0.106786
   141  H    0.086550
   142  H    0.103428
   143  H    0.101995
   144  H    0.112832
   145  H    0.097301
   146  H    0.112791
   147  H    0.095771
   148  H    0.093279
   149  H    0.113239
   150  H    0.087764
   151  H    0.108534
   152  H    0.118819
   153  H    0.113440
   154  H    0.084767
   155  H    0.077738
   156  H    0.110123
   157  H    0.095597
   158  H    0.083876
   159  H    0.107438
 Sum of Mulliken charges =   0.00000

 Dipole moment (field-independent basis, Debye):
    X=             -4.4565    Y=             -1.8330    Z=             -1.7403  Tot=              5.1234
 Quadrupole moment (field-independent basis, Debye-Ang):
   XX=           -424.1623   YY=           -434.8859   ZZ=           -437.8146
   XY=             -2.5278   XZ=              6.9986   YZ=             17.0050

 Normal termination of Gaussian 16 at Mon Oct 18 06:26:40 2021.
