 Gaussian 16, Revision C.01,
 Gaussian 16:  ES64L-G16RevC.01  3-Jul-2019

 ----------------------------------------------------------------------
 #P PBE1PBE/Def2TZVP SP SCF=(YQC,MaxCycle=900) int=(Grid=Superfinegrid)
  EmpiricalDispersion=GD3 SCRF=(PCM,Solvent=Chloroform)
 ----------------------------------------------------------------------

 -------------------------
 _3_alde1_6_ami4_2_opt_cfm
 -------------------------
 Symbolic Z-matrix:
 Charge =  0 Multiplicity = 1

                         Standard orientation:
 ---------------------------------------------------------------------
 Center     Atomic      Atomic             Coordinates (Angstroms)
 Number     Number       Type             X           Y           Z
 ---------------------------------------------------------------------
      1          6           0        2.564023    1.871743    0.587156
      2          6           0        3.514128    1.918011   -0.513960
      3          6           0        2.516682    0.790789    1.469992
      4          6           0        1.630516    0.789866    2.541628
      5          1           0        3.197263   -0.033763    1.322123
      6          6           0        0.756492    1.863924    2.705097
      7          6           0        0.789621    2.947242    1.835635
      8          1           0        0.070889    1.839983    3.538065
      9          6           0        1.705940    2.949558    0.785720
     10          6           0       -0.140470    4.051570    2.024347
     11          1           0        1.733131    3.805526    0.129072
     12          6           0        1.627852   -0.300220    3.509774
     13          1           0       -0.997644    3.836654    2.681431
     14          1           0        3.527433    2.858534   -1.083815
     15          1           0        2.244302   -1.175681    3.258041
     16          6           0       -0.472386   -3.633459    0.155161
     17          6           0        0.769157   -4.051663   -0.483381
     18          6           0       -1.654050   -3.541675   -0.576482
     19          6           0       -2.817382   -3.052216    0.013475
     20          1           0       -1.664785   -3.843639   -1.615469
     21          6           0       -2.790285   -2.637950    1.344678
     22          6           0       -1.618899   -2.733223    2.087783
     23          1           0       -3.698107   -2.244931    1.776189
     24          6           0       -0.469055   -3.239441    1.488729
     25          6           0       -1.546421   -2.249401    3.460773
     26          1           0        0.441833   -3.307235    2.060073
     27          6           0       -4.032449   -2.932126   -0.777363
     28          1           0       -2.370184   -1.600695    3.796443
     29          1           0        0.700765   -4.370141   -1.533294
     30          1           0       -3.929676   -3.181566   -1.845380
     31          6           0       -1.283164    1.018425   -2.492037
     32          6           0       -0.322354    0.209657   -3.235877
     33          6           0       -0.935220    2.293459   -2.049900
     34          6           0       -1.838046    3.068598   -1.331612
     35          1           0        0.052898    2.660636   -2.281200
     36          6           0       -3.093345    2.545360   -1.021491
     37          6           0       -3.456459    1.278309   -1.462701
     38          1           0       -3.776514    3.153418   -0.448193
     39          6           0       -2.551202    0.525129   -2.210450
     40          6           0       -4.755479    0.718175   -1.112955
     41          1           0       -2.855594   -0.455031   -2.545035
     42          6           0       -1.445975    4.401970   -0.905771
     43          1           0       -5.263945    1.190330   -0.257766
     44          1           0       -0.733244   -0.717258   -3.656203
     45          1           0       -0.446755    4.720544   -1.237660
     46          6           0        6.660532    0.877049   -1.287221
     47          6           0        5.240497    1.099480   -1.856716
     48          7           0        6.877110   -0.424742   -0.699231
     49          7           0        4.285544    0.960047   -0.802453
     50          6           0        3.950627   -2.968568   -0.444968
     51          6           0        3.098048   -4.243346   -0.533111
     52          7           0        3.270482   -1.878075   -1.128228
     53          7           0        1.865483   -3.986451    0.137715
     54          6           0        1.601897   -1.563183   -4.538823
     55          6           0        1.893838   -0.132622   -4.049216
     56          7           0        1.443737   -2.547446   -3.483287
     57          7           0        0.873893    0.588731   -3.354597
     58          6           0        0.977506   -1.297098    5.516119
     59          6           0       -0.404464   -1.977265    5.487642
     60          7           0        0.979165   -0.212178    4.588191
     61          7           0       -0.566555   -2.548231    4.193386
     62          6           0       -0.990050    6.175003    1.623777
     63          6           0       -1.644849    6.395526    0.241598
     64          7           0        0.020626    5.178172    1.480790
     65          7           0       -2.187033    5.150352   -0.208324
     66          6           0       -6.247399   -2.359677   -1.151413
     67          6           0       -6.476940   -0.843252   -1.304406
     68          7           0       -5.131324   -2.559846   -0.282293
     69          7           0       -5.253286   -0.252518   -1.743149
     70          1           0        0.651596   -2.299092   -2.897429
     71          1           0        2.263023   -2.519679   -2.875282
     72          1           0        6.708589   -1.152971   -1.385923
     73          1           0        6.224341   -0.566239    0.064091
     74          1           0        3.782610   -1.004511   -1.011383
     75          1           0        2.362816   -1.734735   -0.691409
     76          1           0       -6.832367   -0.418170   -0.352437
     77          1           0       -7.236337   -0.685019   -2.076053
     78          1           0       -6.081793   -2.795171   -2.149711
     79          1           0       -7.131942   -2.808490   -0.693026
     80          1           0        3.615859   -5.047953   -0.003201
     81          1           0        2.957179   -4.527907   -1.587674
     82          1           0        4.908892   -3.142791   -0.942580
     83          1           0        4.143515   -2.759101    0.618871
     84          1           0       -1.189302   -1.246798    5.740974
     85          1           0       -0.405440   -2.785233    6.225129
     86          1           0        1.742495   -2.053930    5.284026
     87          1           0        1.149499   -0.885428    6.514103
     88          1           0        6.853949    1.629059   -0.517345
     89          1           0        7.383603    1.015178   -2.095461
     90          1           0        5.040649    0.319038   -2.599790
     91          1           0        5.186479    2.083100   -2.350402
     92          1           0        2.442594   -1.882635   -5.161410
     93          1           0        0.704555   -1.571614   -5.165381
     94          1           0        2.183517    0.495431   -4.899830
     95          1           0        2.748094   -0.160144   -3.361507
     96          1           0       -0.877916    6.787216   -0.442805
     97          1           0       -2.459280    7.115283    0.343655
     98          1           0       -1.766228    5.889013    2.351440
     99          1           0       -0.516279    7.109133    1.935318
 ---------------------------------------------------------------------

 SCF Done:  E(RPBE1PBE) =  -2170.26385512     a.u. after    7 cycles
 SCF Done:  E(RPBE1PBE) =  -2170.26387335     A.U. after    8 cycles

 The electronic state is 1-A.
 Alpha  occ. eigenvalues --  -14.38765 -14.38216 -14.38089 -14.38034 -14.38026
 Alpha  occ. eigenvalues --  -14.37972 -14.37957 -14.37889 -14.37763 -14.36174
 Alpha  occ. eigenvalues --  -14.35567 -14.34773 -10.27491 -10.27031 -10.26845
 Alpha  occ. eigenvalues --  -10.26824 -10.26796 -10.26748 -10.26722 -10.26714
 Alpha  occ. eigenvalues --  -10.26612 -10.25173 -10.25069 -10.25036 -10.24936
 Alpha  occ. eigenvalues --  -10.24885 -10.24858 -10.24852 -10.24821 -10.24688
 Alpha  occ. eigenvalues --  -10.24686 -10.24572 -10.24511 -10.24443 -10.24438
 Alpha  occ. eigenvalues --  -10.24436 -10.24401 -10.24374 -10.24362 -10.24359
 Alpha  occ. eigenvalues --  -10.24356 -10.24348 -10.24315 -10.24135 -10.24086
 Alpha  occ. eigenvalues --  -10.23964 -10.23929 -10.23923 -10.23765 -10.23741
 Alpha  occ. eigenvalues --  -10.23381  -0.97898  -0.97637  -0.97564  -0.97155
 Alpha  occ. eigenvalues --   -0.96754  -0.96187  -0.95366  -0.95233  -0.94995
 Alpha  occ. eigenvalues --   -0.91290  -0.90812  -0.90266  -0.90114  -0.89734
 Alpha  occ. eigenvalues --   -0.89272  -0.82466  -0.82346  -0.81841  -0.81200
 Alpha  occ. eigenvalues --   -0.80941  -0.80559  -0.77613  -0.76451  -0.76371
 Alpha  occ. eigenvalues --   -0.75085  -0.74991  -0.74603  -0.70084  -0.69875
 Alpha  occ. eigenvalues --   -0.69736  -0.67809  -0.67670  -0.67418  -0.66377
 Alpha  occ. eigenvalues --   -0.65935  -0.64944  -0.63260  -0.63027  -0.62761
 Alpha  occ. eigenvalues --   -0.61686  -0.60925  -0.59770  -0.57917  -0.56812
 Alpha  occ. eigenvalues --   -0.56546  -0.56268  -0.55928  -0.55383  -0.54279
 Alpha  occ. eigenvalues --   -0.54225  -0.53561  -0.53025  -0.52592  -0.52206
 Alpha  occ. eigenvalues --   -0.51851  -0.51619  -0.51172  -0.50727  -0.50581
 Alpha  occ. eigenvalues --   -0.50313  -0.50060  -0.49630  -0.49156  -0.49145
 Alpha  occ. eigenvalues --   -0.48767  -0.48100  -0.47879  -0.47416  -0.47116
 Alpha  occ. eigenvalues --   -0.46735  -0.46635  -0.46459  -0.46287  -0.46119
 Alpha  occ. eigenvalues --   -0.45842  -0.45575  -0.45238  -0.44942  -0.44316
 Alpha  occ. eigenvalues --   -0.44021  -0.43989  -0.42823  -0.42506  -0.42095
 Alpha  occ. eigenvalues --   -0.41998  -0.41555  -0.41279  -0.40829  -0.40643
 Alpha  occ. eigenvalues --   -0.40548  -0.40175  -0.40073  -0.39722  -0.39610
 Alpha  occ. eigenvalues --   -0.39425  -0.39154  -0.38320  -0.37736  -0.37252
 Alpha  occ. eigenvalues --   -0.36997  -0.36899  -0.36744  -0.36555  -0.36149
 Alpha  occ. eigenvalues --   -0.35986  -0.35685  -0.35457  -0.35332  -0.35231
 Alpha  occ. eigenvalues --   -0.35057  -0.34900  -0.31470  -0.30986  -0.30576
 Alpha  occ. eigenvalues --   -0.28629  -0.28344  -0.27812  -0.27553  -0.27532
 Alpha  occ. eigenvalues --   -0.27384  -0.27287  -0.27249  -0.27115  -0.26700
 Alpha  occ. eigenvalues --   -0.26458  -0.26239  -0.25988  -0.25804  -0.25738
 Alpha  occ. eigenvalues --   -0.25292  -0.25167  -0.23287
 Alpha virt. eigenvalues --   -0.06850  -0.06544  -0.06439  -0.05891  -0.05705
 Alpha virt. eigenvalues --   -0.05414  -0.02586  -0.02234  -0.01706   0.03304
 Alpha virt. eigenvalues --    0.03675   0.04527   0.04605   0.04953   0.05127

 Mulliken charges:
               1
     1  C    0.370161
     2  C   -0.142199
     3  C   -0.367359
     4  C    0.361732
     5  H    0.146851
     6  C   -0.345993
     7  C    0.366948
     8  H    0.124101
     9  C   -0.373505
    10  C   -0.157292
    11  H    0.130283
    12  C   -0.165803
    13  H    0.085081
    14  H    0.096532
    15  H    0.095242
    16  C    0.377233
    17  C   -0.204052
    18  C   -0.348859
    19  C    0.353509
    20  H    0.135614
    21  C   -0.385958
    22  C    0.401622
    23  H    0.122045
    24  C   -0.352136
    25  C   -0.155929
    26  H    0.124284
    27  C   -0.159841
    28  H    0.088653
    29  H    0.112325
    30  H    0.081386
    31  C    0.352989
    32  C   -0.174941
    33  C   -0.322388
    34  C    0.372125
    35  H    0.120962
    36  C   -0.374378
    37  C    0.345664
    38  H    0.123595
    39  C   -0.351589
    40  C   -0.155031
    41  H    0.124345
    42  C   -0.170215
    43  H    0.086232
    44  H    0.101530
    45  H    0.089212
    46  C   -0.098804
    47  C   -0.091305
    48  N   -0.525901
    49  N   -0.256431
    50  C   -0.100758
    51  C   -0.074817
    52  N   -0.545600
    53  N   -0.216574
    54  C   -0.127743
    55  C   -0.137484
    56  N   -0.517847
    57  N   -0.185648
    58  C   -0.065860
    59  C   -0.083332
    60  N   -0.198384
    61  N   -0.197918
    62  C   -0.082210
    63  C   -0.078095
    64  N   -0.193386
    65  N   -0.194822
    66  C   -0.067522
    67  C   -0.081128
    68  N   -0.190443
    69  N   -0.201469
    70  H    0.208455
    71  H    0.233992
    72  H    0.223674
    73  H    0.234265
    74  H    0.193668
    75  H    0.244810
    76  H    0.082084
    77  H    0.125345
    78  H    0.081095
    79  H    0.124119
    80  H    0.125857
    81  H    0.093061
    82  H    0.103300
    83  H    0.091165
    84  H    0.079965
    85  H    0.126749
    86  H    0.081225
    87  H    0.125653
    88  H    0.114653
    89  H    0.119904
    90  H    0.123195
    91  H    0.092904
    92  H    0.118021
    93  H    0.116190
    94  H    0.118151
    95  H    0.122184
    96  H    0.091986
    97  H    0.125578
    98  H    0.083238
    99  H    0.126206
 Sum of Mulliken charges =   0.00000

 Dipole moment (field-independent basis, Debye):
    X=             -1.1370    Y=              1.8378    Z=             -0.2979  Tot=              2.1815
 Quadrupole moment (field-independent basis, Debye-Ang):
   XX=           -297.0588   YY=           -300.5283   ZZ=           -292.3188
   XY=              3.6270   XZ=            -11.1440   YZ=              2.2874

 Normal termination of Gaussian 16 at Mon Oct 18 09:48:15 2021.
