 Gaussian 16, Revision C.01,
 Gaussian 16:  ES64L-G16RevC.01  3-Jul-2019

 ----------------------------------------------------------------------
 #P PBE1PBE/Def2TZVP SP SCF=(YQC,MaxCycle=900) int=(Grid=Superfinegrid)
  EmpiricalDispersion=GD3 SCRF=(PCM,Solvent=Dichloromethane)
 ----------------------------------------------------------------------

 -------------------------
 _3_alde1_5_ami2_1_opt_dcm
 -------------------------
 Symbolic Z-matrix:
 Charge =  0 Multiplicity = 1

                         Standard orientation:
 ---------------------------------------------------------------------
 Center     Atomic      Atomic             Coordinates (Angstroms)
 Number     Number       Type             X           Y           Z
 ---------------------------------------------------------------------
      1          6           0       -2.530528    2.457952   -0.535201
      2          6           0       -2.797442    3.357366    0.577289
      3          6           0       -3.255749    1.283195   -0.717855
      4          6           0       -2.922710    0.400773   -1.741886
      5          1           0       -4.080437    1.054732   -0.063154
      6          6           0       -1.829613    0.681240   -2.560025
      7          6           0       -1.100926    1.854913   -2.394886
      8          1           0       -1.555404   -0.018461   -3.337566
      9          6           0       -1.476456    2.748955   -1.395986
     10          6           0        0.081089    2.111986   -3.210617
     11          1           0       -0.906995    3.658632   -1.289898
     12          6           0       -3.680319   -0.822158   -1.961169
     13          1           0        0.441697    1.243130   -3.775095
     14          1           0       -2.270409    4.323092    0.537118
     15          1           0       -3.259448   -1.512653   -2.708252
     16          6           0        0.529899   -3.552440   -0.954428
     17          6           0        1.171023   -3.836214   -2.299134
     18          6           0        1.315164   -3.430603    0.179955
     19          6           0        0.738495   -3.121113    1.411340
     20          1           0        2.383635   -3.556074    0.117999
     21          6           0       -0.638478   -2.939462    1.491775
     22          6           0       -1.440949   -3.111373    0.368467
     23          1           0       -1.091946   -2.686337    2.440918
     24          6           0       -0.846210   -3.418229   -0.854126
     25          6           0       -2.887190   -2.960002    0.483813
     26          1           0       -1.469250   -3.531190   -1.726203
     27          6           0        1.564333   -2.965907    2.597443
     28          1           0       -3.222039   -2.436397    1.388039
     29          1           0        1.046729   -2.587242    3.493890
     30          6           0        0.613619    2.115977    2.388900
     31          6           0       -0.596176    2.231322    3.197408
     32          6           0        0.824927    2.979178    1.315549
     33          6           0        1.898985    2.794924    0.452486
     34          1           0        0.113329    3.773713    1.156574
     35          6           0        2.795810    1.754831    0.692914
     36          6           0        2.633334    0.923561    1.795099
     37          1           0        3.623139    1.620141    0.013315
     38          6           0        1.530468    1.099461    2.629790
     39          6           0        3.596863   -0.141960    2.053916
     40          1           0        1.409161    0.425052    3.463790
     41          6           0        2.029709    3.657326   -0.711106
     42          1           0        4.253063   -0.380289    1.209650
     43          1           0        1.369259    4.537393   -0.718167
     44          6           0       -2.615332    3.375293    3.770776
     45          6           0       -3.578723    3.921139    2.675771
     46          7           0       -1.349902    3.235246    3.100758
     47          7           0       -3.534551    3.042173    1.551639
     48          1           0       -3.259019    4.942417    2.416955
     49          6           0        2.468653   -1.948244   -2.839884
     50          6           0        0.978214   -1.791833   -3.277235
     51          7           0        2.538575   -3.322005   -2.324969
     52          7           0        0.428190   -3.135467   -3.344791
     53          6           0       -5.402034   -2.321757   -1.564268
     54          6           0       -5.090275   -3.269013   -0.370731
     55          7           0       -4.755860   -1.069177   -1.349710
     56          1           0       -6.480040   -2.150035   -1.602577
     57          7           0       -3.662078   -3.426730   -0.392369
     58          6           0       -5.687592   -4.649711   -0.663180
     59          6           0        1.859881    3.551903   -3.902596
     60          6           0        2.744645    4.246530   -2.825398
     61          7           0        0.634437    3.242741   -3.217675
     62          6           0        2.623864    2.364628   -4.496041
     63          7           0        2.814171    3.409001   -1.669251
     64          1           0        2.298383    5.226491   -2.598039
     65          6           0        3.566532   -2.996657    3.774862
     66          6           0        4.520882   -1.802818    3.494299
     67          7           0        2.792688   -3.252266    2.605741
     68          1           0        2.942231   -2.749331    4.648666
     69          7           0        3.645485   -0.707297    3.178023
     70          1           0       -0.792350    1.369183    3.846684
     71          1           0        0.638695   -3.551154   -4.248684
     72          1           0        1.155401   -4.918528   -2.471867
     73          1           0        3.134752   -3.896062   -2.909574
     74          1           0       -4.596702    3.938996    3.069485
     75          1           0       -5.066002   -2.814854   -2.489464
     76          6           0       -5.699818   -2.687917    0.908794
     77          6           0        1.523656    4.566149   -5.001977
     78          1           0        3.752747    4.381208   -3.222326
     79          1           0        4.168741   -3.882501    3.990561
     80          6           0        5.530308   -2.206086    2.415901
     81          6           0        5.247581   -1.427193    4.790212
     82          1           0        6.158641   -1.359938    2.143333
     83          1           0        5.010313   -2.576208    1.536050
     84          1           0        6.167512   -2.998467    2.799328
     85          6           0       -2.444015    4.439389    4.861036
     86          6           0       -3.202902    2.093414    4.368033
     87          1           0       -1.974312    5.327357    4.445983
     88          1           0       -1.809436    4.054316    5.656433
     89          1           0       -3.410673    4.709171    5.278530
     90          1           0        0.919762    5.371774   -4.592981
     91          1           0        0.957113    4.079091   -5.792762
     92          1           0        2.435295    4.981406   -5.423834
     93          1           0       -6.783472   -2.704162    0.828943
     94          1           0       -5.380788   -1.657961    1.046240
     95          1           0       -5.408027   -3.281251    1.773696
     96          1           0       -4.181123    2.306462    4.790591
     97          1           0       -2.567565    1.705058    5.161691
     98          1           0       -3.314832    1.342893    3.589125
     99          1           0        2.895562    1.669219   -3.705363
    100          1           0        3.532867    2.721915   -4.973019
    101          1           0        2.024559    1.851203   -5.245970
    102          1           0        5.955759   -0.625050    4.595150
    103          1           0        5.785052   -2.284624    5.187147
    104          1           0        4.531021   -1.080287    5.529784
    105          1           0       -6.755413   -4.571855   -0.851257
    106          1           0       -5.525460   -5.307126    0.187918
    107          1           0       -5.201138   -5.085846   -1.531277
    108          1           0        0.876016   -1.277876   -4.232410
    109          1           0        0.428860   -1.242657   -2.507776
    110          6           0        2.820307   -0.963585   -1.723793
    111          1           0        2.664037    0.061674   -2.052037
    112          1           0        3.862073   -1.089333   -1.439334
    113          1           0        2.198562   -1.147567   -0.851606
    114          6           0        3.416370   -1.761432   -4.025484
    115          1           0        3.144946   -2.423691   -4.848044
    116          1           0        4.439023   -1.983016   -3.726045
    117          1           0        3.379225   -0.735419   -4.383700
 ---------------------------------------------------------------------

 SCF Done:  E(RPBE1PBE) =  -2372.71158102     a.u. after    7 cycles
 SCF Done:  E(RPBE1PBE) =  -2372.71160429     A.U. after    8 cycles

 The electronic state is 1-A.
 Alpha  occ. eigenvalues --  -14.37793 -14.37662 -14.37594 -14.37532 -14.37527
 Alpha  occ. eigenvalues --  -14.37489 -14.37315 -14.37210 -14.37205 -14.36436
 Alpha  occ. eigenvalues --  -10.27846 -10.26778 -10.26734 -10.26624 -10.26610
 Alpha  occ. eigenvalues --  -10.26474 -10.26461 -10.26403 -10.26402 -10.26347
 Alpha  occ. eigenvalues --  -10.26325 -10.26265 -10.26223 -10.25471 -10.24387
 Alpha  occ. eigenvalues --  -10.24355 -10.24347 -10.24339 -10.24311 -10.24303
 Alpha  occ. eigenvalues --  -10.24250 -10.24216 -10.24192 -10.24188 -10.24163
 Alpha  occ. eigenvalues --  -10.23809 -10.23804 -10.23738 -10.23702 -10.23686
 Alpha  occ. eigenvalues --  -10.23554 -10.23552 -10.23537 -10.23348 -10.23192
 Alpha  occ. eigenvalues --  -10.22503 -10.22359 -10.21047 -10.21012 -10.20868
 Alpha  occ. eigenvalues --  -10.20771 -10.20690 -10.20584 -10.20557 -10.20351
 Alpha  occ. eigenvalues --  -10.20350 -10.19727  -0.99410  -0.97826  -0.97639
 Alpha  occ. eigenvalues --   -0.97521  -0.97484  -0.95142  -0.94812  -0.94713
 Alpha  occ. eigenvalues --   -0.94578  -0.90362  -0.89655  -0.89283  -0.88128
 Alpha  occ. eigenvalues --   -0.83923  -0.83548  -0.83291  -0.82128  -0.81306
 Alpha  occ. eigenvalues --   -0.80671  -0.79929  -0.78832  -0.78504  -0.78100
 Alpha  occ. eigenvalues --   -0.77757  -0.72117  -0.72025  -0.71915  -0.71723
 Alpha  occ. eigenvalues --   -0.71560  -0.71374  -0.71254  -0.71218  -0.70997
 Alpha  occ. eigenvalues --   -0.69778  -0.68533  -0.68163  -0.67707  -0.67517
 Alpha  occ. eigenvalues --   -0.66122  -0.65579  -0.64957  -0.64292  -0.63534
 Alpha  occ. eigenvalues --   -0.60863  -0.59964  -0.59007  -0.58257  -0.57799
 Alpha  occ. eigenvalues --   -0.57712  -0.57349  -0.55167  -0.55008  -0.54801
 Alpha  occ. eigenvalues --   -0.53916  -0.53733  -0.53523  -0.53117  -0.52294
 Alpha  occ. eigenvalues --   -0.52126  -0.51543  -0.51153  -0.50748  -0.50088
 Alpha  occ. eigenvalues --   -0.49783  -0.49532  -0.49223  -0.48904  -0.48556
 Alpha  occ. eigenvalues --   -0.48074  -0.47909  -0.47723  -0.47668  -0.47581
 Alpha  occ. eigenvalues --   -0.47334  -0.46822  -0.46649  -0.46253  -0.45422
 Alpha  occ. eigenvalues --   -0.45358  -0.45141  -0.44948  -0.44920  -0.44728
 Alpha  occ. eigenvalues --   -0.44491  -0.44113  -0.42774  -0.42672  -0.42213
 Alpha  occ. eigenvalues --   -0.41802  -0.41714  -0.41398  -0.41313  -0.41162
 Alpha  occ. eigenvalues --   -0.41056  -0.40986  -0.40668  -0.40536  -0.40135
 Alpha  occ. eigenvalues --   -0.40013  -0.39934  -0.39687  -0.39586  -0.39538
 Alpha  occ. eigenvalues --   -0.39486  -0.39285  -0.39176  -0.38936  -0.38536
 Alpha  occ. eigenvalues --   -0.38295  -0.37855  -0.37798  -0.37589  -0.37253
 Alpha  occ. eigenvalues --   -0.37169  -0.36908  -0.36575  -0.36344  -0.36313
 Alpha  occ. eigenvalues --   -0.36159  -0.36109  -0.35756  -0.35341  -0.35016
 Alpha  occ. eigenvalues --   -0.34632  -0.34386  -0.34198  -0.34078  -0.33957
 Alpha  occ. eigenvalues --   -0.33854  -0.33516  -0.31233  -0.30544  -0.30052
 Alpha  occ. eigenvalues --   -0.27274  -0.26980  -0.26916  -0.26822  -0.26734
 Alpha  occ. eigenvalues --   -0.26556  -0.26491  -0.26403  -0.26344  -0.26136
 Alpha  occ. eigenvalues --   -0.25933  -0.25645  -0.25599  -0.25443  -0.25014
 Alpha  occ. eigenvalues --   -0.23820
 Alpha virt. eigenvalues --   -0.06792  -0.06041  -0.05709  -0.05357  -0.05202
 Alpha virt. eigenvalues --   -0.03079  -0.02206  -0.01480   0.00901   0.03262
 Alpha virt. eigenvalues --    0.03548   0.04706   0.04998   0.05055   0.05298

 Mulliken charges:
               1
     1  C    0.424851
     2  C   -0.193156
     3  C   -0.407250
     4  C    0.354582
     5  H    0.128689
     6  C   -0.356000
     7  C    0.280133
     8  H    0.169478
     9  C   -0.310512
    10  C   -0.145044
    11  H    0.132335
    12  C   -0.182352
    13  H    0.096471
    14  H    0.097459
    15  H    0.086121
    16  C    0.174995
    17  C    0.175805
    18  C   -0.391444
    19  C    0.367451
    20  H    0.138779
    21  C   -0.374623
    22  C    0.350248
    23  H    0.126331
    24  C   -0.387582
    25  C   -0.164990
    26  H    0.109693
    27  C   -0.191592
    28  H    0.101654
    29  H    0.080151
    30  C    0.338631
    31  C   -0.156543
    32  C   -0.304680
    33  C    0.387131
    34  H    0.130012
    35  C   -0.373925
    36  C    0.342684
    37  H    0.127626
    38  C   -0.391954
    39  C   -0.133647
    40  H    0.120822
    41  C   -0.196231
    42  H    0.106699
    43  H    0.101098
    44  C    0.138405
    45  C   -0.051719
    46  N   -0.195122
    47  N   -0.209848
    48  H    0.086148
    49  C    0.177333
    50  C   -0.217906
    51  N   -0.338057
    52  N   -0.319841
    53  C   -0.065207
    54  C    0.158382
    55  N   -0.199173
    56  H    0.123780
    57  N   -0.202196
    58  C   -0.365592
    59  C    0.159264
    60  C   -0.046958
    61  N   -0.192819
    62  C   -0.470091
    63  N   -0.215653
    64  H    0.088362
    65  C   -0.069723
    66  C    0.160825
    67  N   -0.198764
    68  H    0.082723
    69  N   -0.206734
    70  H    0.096688
    71  H    0.204433
    72  H    0.125352
    73  H    0.208057
    74  H    0.123663
    75  H    0.087639
    76  C   -0.443746
    77  C   -0.377581
    78  H    0.121905
    79  H    0.123232
    80  C   -0.446504
    81  C   -0.365773
    82  H    0.135750
    83  H    0.151362
    84  H    0.134819
    85  C   -0.377410
    86  C   -0.448762
    87  H    0.130567
    88  H    0.130838
    89  H    0.129677
    90  H    0.131420
    91  H    0.129619
    92  H    0.129290
    93  H    0.135009
    94  H    0.150068
    95  H    0.136376
    96  H    0.134743
    97  H    0.135076
    98  H    0.147204
    99  H    0.131248
   100  H    0.137051
   101  H    0.138222
   102  H    0.128456
   103  H    0.124940
   104  H    0.127111
   105  H    0.124009
   106  H    0.127641
   107  H    0.127037
   108  H    0.147569
   109  H    0.122711
   110  C   -0.492356
   111  H    0.133409
   112  H    0.115707
   113  H    0.154810
   114  C   -0.415086
   115  H    0.127249
   116  H    0.136264
   117  H    0.132778
 Sum of Mulliken charges =   0.00000

 Dipole moment (field-independent basis, Debye):
    X=              2.2310    Y=             -0.4985    Z=             -2.5717  Tot=              3.4409
 Quadrupole moment (field-independent basis, Debye-Ang):
   XX=           -337.4588   YY=           -337.1504   ZZ=           -302.5509
   XY=             -2.4487   XZ=            -19.9864   YZ=              5.3446

 Normal termination of Gaussian 16 at Mon Oct 18 15:25:47 2021.
