 Gaussian 16, Revision C.01,
 Gaussian 16:  ES64L-G16RevC.01  3-Jul-2019

 ----------------------------------------------------------------------
 #P PBE1PBE/Def2TZVP SP SCF=(YQC,MaxCycle=900) int=(Grid=Superfinegrid)
  EmpiricalDispersion=GD3 SCRF=(PCM,Solvent=Dichloromethane)
 ----------------------------------------------------------------------

 -------------------------
 _3_alde1_4_ami4_1_opt_dcm
 -------------------------
 Symbolic Z-matrix:
 Charge =  0 Multiplicity = 1

                         Standard orientation:
 ---------------------------------------------------------------------
 Center     Atomic      Atomic             Coordinates (Angstroms)
 Number     Number       Type             X           Y           Z
 ---------------------------------------------------------------------
      1          6           0       -2.656466    1.849698   -0.908834
      2          6           0       -3.567600    1.260516   -1.881684
      3          6           0       -1.642601    2.709427   -1.314370
      4          6           0       -0.730839    3.215564   -0.387433
      5          1           0       -1.545850    3.012400   -2.345795
      6          6           0       -0.808995    2.810519    0.941141
      7          6           0       -1.816586    1.944205    1.360674
      8          1           0       -0.095249    3.158292    1.672402
      9          6           0       -2.752135    1.494494    0.436053
     10          6           0       -1.883075    1.463964    2.732820
     11          1           0       -3.553781    0.837169    0.733341
     12          6           0        0.318765    4.134331   -0.798676
     13          1           0       -2.809024    0.933399    2.997891
     14          1           0       -3.245926    1.322550   -2.932970
     15          1           0        0.960483    4.509070    0.012927
     16          6           0        2.901516    0.637050    1.457922
     17          6           0        2.653931    1.013652    2.855898
     18          6           0        3.184970   -0.691988    1.143016
     19          6           0        3.380004   -1.082575   -0.176846
     20          1           0        3.252146   -1.410861    1.947741
     21          6           0        3.279929   -0.127138   -1.187805
     22          6           0        3.026251    1.206762   -0.885711
     23          1           0        3.418905   -0.449660   -2.208549
     24          6           0        2.840997    1.585134    0.443052
     25          6           0        2.908027    2.193201   -1.953102
     26          1           0        2.640651    2.621631    0.663610
     27          6           0        3.641971   -2.480521   -0.485669
     28          1           0        2.712988    1.788042   -2.957800
     29          1           0        2.443758    2.088314    3.005186
     30          1           0        3.686865   -3.154913    0.382168
     31          6           0       -2.583468   -2.300801   -0.117145
     32          6           0       -3.941021   -1.938156   -0.493826
     33          6           0       -2.108622   -1.945885    1.140364
     34          6           0       -0.778194   -2.170516    1.491689
     35          1           0       -2.748382   -1.456477    1.857903
     36          6           0        0.058113   -2.819450    0.590875
     37          6           0       -0.408465   -3.199489   -0.667336
     38          1           0        1.088335   -3.021537    0.838604
     39          6           0       -1.721127   -2.914298   -1.025100
     40          6           0        0.501063   -3.808820   -1.629083
     41          1           0       -2.099127   -3.163681   -2.004732
     42          6           0       -0.245978   -1.630583    2.735892
     43          1           0        0.201425   -3.725473   -2.685590
     44          1           0        0.848785   -1.648566    2.832877
     45          6           0       -5.644595   -1.451205   -1.975822
     46          6           0       -5.426462   -0.012303   -2.494909
     47          7           0       -4.363352   -2.015448   -1.681256
     48          7           0       -4.633959    0.685321   -1.534411
     49          8           0        2.659252    0.245494    3.785669
     50          6           0        1.625374    5.295168   -2.313937
     51          6           0        2.773634    4.371129   -2.772602
     52          7           0        0.491490    4.481142   -2.000293
     53          7           0        3.014323    3.428261   -1.729463
     54          6           0       -1.055815    0.959908    4.827498
     55          6           0       -0.417589   -0.444650    4.737758
     56          7           0       -0.935488    1.606805    3.555228
     57          7           0       -0.990055   -1.118038    3.615439
     58          6           0        3.897790   -4.310907   -1.870879
     59          6           0        2.499091   -4.844353   -2.249428
     60          7           0        3.792979   -2.899457   -1.666669
     61          7           0        1.570268   -4.372045   -1.272932
     62          1           0       -4.566371   -1.545508    0.321509
     63          1           0       -0.678102   -0.995731    5.646136
     64          1           0        0.675777   -0.358821    4.665298
     65          1           0       -2.107911    0.843522    5.127852
     66          1           0       -0.516545    1.548439    5.571843
     67          1           0        1.974306    5.874970   -1.446261
     68          1           0        1.358398    5.968019   -3.131338
     69          1           0        3.673055    4.977874   -2.907983
     70          1           0        2.506805    3.889074   -3.726314
     71          1           0        2.524807   -5.937401   -2.210813
     72          1           0        2.235082   -4.525625   -3.269999
     73          1           0        4.236752   -4.835365   -0.964935
     74          1           0        4.590789   -4.498655   -2.693409
     75          1           0       -6.401175    0.478749   -2.568596
     76          1           0       -4.956197   -0.039129   -3.490558
     77          1           0       -6.123034   -2.046119   -2.756310
     78          1           0       -6.291651   -1.404238   -1.086922
 ---------------------------------------------------------------------

 SCF Done:  E(RPBE1PBE) =  -1865.87820966     a.u. after    6 cycles
 SCF Done:  E(RPBE1PBE) =  -1865.87822552     A.U. after    9 cycles

 The electronic state is 1-A.
 Alpha  occ. eigenvalues --  -19.21466 -14.38567 -14.38287 -14.38231 -14.38230
 Alpha  occ. eigenvalues --  -14.37962 -14.37959 -14.37865 -14.37742 -10.31852
 Alpha  occ. eigenvalues --  -10.27331 -10.27030 -10.27015 -10.27004 -10.26783
 Alpha  occ. eigenvalues --  -10.26717 -10.26685 -10.26530 -10.25405 -10.25332
 Alpha  occ. eigenvalues --  -10.25320 -10.25302 -10.25257 -10.25213 -10.25178
 Alpha  occ. eigenvalues --  -10.25149 -10.25094 -10.24981 -10.24968 -10.24859
 Alpha  occ. eigenvalues --  -10.24634 -10.24611 -10.24589 -10.24568 -10.24543
 Alpha  occ. eigenvalues --  -10.24532 -10.24519 -10.24462 -10.24147 -10.24145
 Alpha  occ. eigenvalues --  -10.24109 -10.24108 -10.24088 -10.24061  -1.09203
 Alpha  occ. eigenvalues --   -0.98088  -0.97960  -0.97810  -0.97496  -0.95515
 Alpha  occ. eigenvalues --   -0.95477  -0.95115  -0.94836  -0.91195  -0.90403
 Alpha  occ. eigenvalues --   -0.89879  -0.82795  -0.82544  -0.82486  -0.81558
 Alpha  occ. eigenvalues --   -0.80869  -0.80629  -0.77965  -0.76572  -0.76496
 Alpha  occ. eigenvalues --   -0.75861  -0.70286  -0.70221  -0.69900  -0.69712
 Alpha  occ. eigenvalues --   -0.68857  -0.66792  -0.66717  -0.66243  -0.64071
 Alpha  occ. eigenvalues --   -0.63210  -0.62963  -0.61792  -0.60686  -0.57650
 Alpha  occ. eigenvalues --   -0.57041  -0.56812  -0.56751  -0.56121  -0.55709
 Alpha  occ. eigenvalues --   -0.54814  -0.54167  -0.54109  -0.52914  -0.52633
 Alpha  occ. eigenvalues --   -0.52051  -0.50999  -0.50849  -0.50649  -0.50495
 Alpha  occ. eigenvalues --   -0.49867  -0.49639  -0.49540  -0.48843  -0.47885
 Alpha  occ. eigenvalues --   -0.47585  -0.47255  -0.46985  -0.46807  -0.46640
 Alpha  occ. eigenvalues --   -0.46562  -0.46219  -0.45644  -0.45404  -0.44972
 Alpha  occ. eigenvalues --   -0.44523  -0.44378  -0.44160  -0.44048  -0.42238
 Alpha  occ. eigenvalues --   -0.41932  -0.41392  -0.41057  -0.40895  -0.40613
 Alpha  occ. eigenvalues --   -0.40311  -0.39853  -0.39705  -0.39479  -0.38754
 Alpha  occ. eigenvalues --   -0.38230  -0.37623  -0.37203  -0.36932  -0.36754
 Alpha  occ. eigenvalues --   -0.36491  -0.35573  -0.35542  -0.35410  -0.35202
 Alpha  occ. eigenvalues --   -0.34877  -0.32953  -0.31193  -0.30695  -0.28889
 Alpha  occ. eigenvalues --   -0.28249  -0.27907  -0.27822  -0.27733  -0.27598
 Alpha  occ. eigenvalues --   -0.27349  -0.27312  -0.27198  -0.27114  -0.26627
 Alpha  occ. eigenvalues --   -0.26372  -0.26048  -0.25885  -0.25777
 Alpha virt. eigenvalues --   -0.08012  -0.06925  -0.06728  -0.06052  -0.05957
 Alpha virt. eigenvalues --   -0.05571  -0.03244  -0.02738  -0.01464   0.04255
 Alpha virt. eigenvalues --    0.04694   0.04867   0.05268   0.05377   0.05472

 Mulliken charges:
               1
     1  C    0.325625
     2  C   -0.152023
     3  C   -0.378412
     4  C    0.393773
     5  H    0.124503
     6  C   -0.360271
     7  C    0.364301
     8  H    0.130810
     9  C   -0.297442
    10  C   -0.181346
    11  H    0.133704
    12  C   -0.183657
    13  H    0.099160
    14  H    0.089629
    15  H    0.097716
    16  C    0.290010
    17  C    0.088534
    18  C   -0.382197
    19  C    0.392776
    20  H    0.159724
    21  C   -0.374163
    22  C    0.355084
    23  H    0.128556
    24  C   -0.310003
    25  C   -0.150031
    26  H    0.137481
    27  C   -0.161364
    28  H    0.093470
    29  H    0.099166
    30  H    0.095439
    31  C    0.382320
    32  C   -0.172871
    33  C   -0.311468
    34  C    0.317026
    35  H    0.137292
    36  C   -0.319120
    37  C    0.345162
    38  H    0.127966
    39  C   -0.390982
    40  C   -0.145232
    41  H    0.123731
    42  C   -0.141713
    43  H    0.091301
    44  H    0.080386
    45  C   -0.072833
    46  C   -0.093546
    47  N   -0.202304
    48  N   -0.202575
    49  O   -0.341767
    50  C   -0.076701
    51  C   -0.086980
    52  N   -0.196659
    53  N   -0.200941
    54  C   -0.057446
    55  C   -0.116001
    56  N   -0.217713
    57  N   -0.205487
    58  C   -0.070042
    59  C   -0.094529
    60  N   -0.193313
    61  N   -0.205748
    62  H    0.097449
    63  H    0.123026
    64  H    0.106212
    65  H    0.091900
    66  H    0.121114
    67  H    0.091940
    68  H    0.127179
    69  H    0.129434
    70  H    0.086436
    71  H    0.129274
    72  H    0.088469
    73  H    0.091859
    74  H    0.127087
    75  H    0.128224
    76  H    0.086049
    77  H    0.125182
    78  H    0.091400
 Sum of Mulliken charges =   0.00000

 Dipole moment (field-independent basis, Debye):
    X=              0.4198    Y=              0.2233    Z=             -3.7545  Tot=              3.7845
 Quadrupole moment (field-independent basis, Debye-Ang):
   XX=           -246.0553   YY=           -246.2402   ZZ=           -247.1218
   XY=             -0.3491   XZ=             -5.7242   YZ=              2.3816

 Normal termination of Gaussian 16 at Mon Oct 18 12:03:57 2021.
