 Gaussian 16, Revision C.01,
 Gaussian 16:  ES64L-G16RevC.01  3-Jul-2019

 ----------------------------------------------------------------------
 #P PBE1PBE/Def2TZVP SP SCF=(YQC,MaxCycle=900) int=(Grid=Superfinegrid)
  EmpiricalDispersion=GD3 SCRF=(PCM,Solvent=Dichloromethane)
 ----------------------------------------------------------------------

 -------------------------
 _3_alde1_6_ami3_1_opt_dcm
 -------------------------
 Symbolic Z-matrix:
 Charge =  0 Multiplicity = 1

                         Standard orientation:
 ---------------------------------------------------------------------
 Center     Atomic      Atomic             Coordinates (Angstroms)
 Number     Number       Type             X           Y           Z
 ---------------------------------------------------------------------
      1          6           0        3.588087   -2.685244    0.002047
      2          6           0        3.972831   -3.523376   -1.190134
      3          6           0        2.428371   -2.945078    0.716497
      4          6           0        2.086416   -2.165321    1.820017
      5          1           0        1.817867   -3.786433    0.426304
      6          6           0        2.891501   -1.082684    2.165012
      7          6           0        4.056726   -0.814300    1.457388
      8          1           0        2.608059   -0.484035    3.016989
      9          6           0        4.405898   -1.632917    0.383581
     10          6           0        4.893105    0.311883    1.845786
     11          1           0        5.323947   -1.433234   -0.145777
     12          6           0        0.953895   -2.533647    2.658187
     13          1           0        4.388982    1.084959    2.447804
     14          1           0        0.320422   -3.354994    2.287681
     15          6           0       -4.388567   -0.398632    0.413754
     16          6           0       -5.467296   -1.398663    0.061936
     17          6           0       -4.214033    0.766062   -0.320838
     18          6           0       -3.265921    1.712360    0.063719
     19          1           0       -4.837817    0.937613   -1.185470
     20          6           0       -2.469691    1.473224    1.179748
     21          6           0       -2.614168    0.294452    1.903329
     22          1           0       -1.740504    2.216693    1.463539
     23          6           0       -3.579421   -0.635251    1.513535
     24          6           0       -1.800044    0.039488    3.083911
     25          1           0       -3.689139   -1.537576    2.094467
     26          6           0       -3.129861    2.945355   -0.701531
     27          1           0       -1.060281    0.812072    3.341960
     28          1           0       -3.459529    2.891011   -1.751815
     29          6           0        1.826177    1.053652   -2.304091
     30          6           0        1.238391   -0.107918   -3.065643
     31          6           0        3.150666    0.981571   -1.893090
     32          6           0        3.709577    1.998837   -1.122788
     33          1           0        3.747096    0.121324   -2.162968
     34          6           0        2.921357    3.083472   -0.745380
     35          6           0        1.602298    3.171388   -1.171516
     36          1           0        3.365424    3.854495   -0.134300
     37          6           0        1.061544    2.153988   -1.959520
     38          6           0        0.765325    4.291011   -0.763058
     39          1           0        0.038923    2.233505   -2.290066
     40          6           0        5.094070    1.883213   -0.701053
     41          1           0        1.088246    4.821706    0.147586
     42          1           0        5.626058    1.003750   -1.092510
     43          6           0        2.516683   -4.751366   -2.543970
     44          6           0        3.409816   -3.824231   -3.385683
     45          7           0        3.200788   -4.789775   -1.256585
     46          1           0        1.558224   -4.238406   -2.378571
     47          6           0        2.264507   -6.055893   -3.272213
     48          7           0        3.754347   -2.776407   -2.436424
     49          1           0        4.343650   -4.355386   -3.625845
     50          6           0        2.715874   -3.438056   -4.674847
     51          6           0        1.580572   -5.713690   -4.599753
     52          6           0        2.402044   -4.729304   -5.437494
     53          6           0       -7.470216   -0.439449   -0.551377
     54          6           0       -7.727261   -1.376028    0.641518
     55          7           0       -6.235007   -0.967061   -1.114420
     56          1           0       -7.236762    0.562651   -0.163733
     57          6           0       -8.695771   -0.359612   -1.437205
     58          7           0       -6.399058   -1.571739    1.204092
     59          1           0       -8.054808   -2.353398    0.254263
     60          6           0       -8.815423   -0.808093    1.529679
     61          6           0       -9.846108    0.177299   -0.578957
     62          6           0      -10.080104   -0.669720    0.675626
     63          6           0       -1.041633   -0.564558   -2.928896
     64          6           0       -0.243379   -1.802682   -2.488064
     65          7           0       -0.062225    0.217198   -3.670139
     66          1           0       -1.315282    0.014156   -2.034310
     67          6           0       -2.301015   -0.998519   -3.651118
     68          7           0        1.064115   -1.260680   -2.145595
     69          1           0       -0.094938   -2.447008   -3.369477
     70          6           0       -1.016743   -2.577447   -1.442222
     71          6           0       -3.121282   -1.852947   -2.679984
     72          6           0       -2.326047   -3.026754   -2.099992
     73          6           0       -0.258311   -2.431857    4.665073
     74          6           0       -1.205187   -1.247723    4.953159
     75          7           0        0.768162   -1.984709    3.777985
     76          1           0       -0.856518   -3.256345    4.236929
     77          6           0        0.430586   -2.891364    5.955359
     78          7           0       -1.970550   -1.001763    3.773119
     79          1           0       -0.584032   -0.380915    5.240871
     80          6           0       -2.187286   -1.602011    6.073564
     81          6           0       -0.578561   -3.246330    7.038866
     82          6           0       -1.465079   -2.043666    7.339049
     83          6           0        6.825727    1.595844    1.849218
     84          6           0        6.973345    2.410128    0.532955
     85          7           0        6.111988    0.401846    1.530435
     86          1           0        6.271817    2.225529    2.569666
     87          6           0        8.212276    1.264752    2.396400
     88          7           0        5.655526    2.713908    0.069080
     89          1           0        7.518753    1.769506   -0.181569
     90          6           0        7.759641    3.688131    0.807013
     91          6           0        9.008976    2.539129    2.653145
     92          6           0        9.136656    3.361266    1.374127
     93          6           0       -2.564322    5.180569   -0.998190
     94          6           0       -1.106611    5.669785   -0.920760
     95          7           0       -2.688243    4.007772   -0.188628
     96          1           0       -2.798626    4.965113   -2.056735
     97          6           0       -3.495902    6.280007   -0.483401
     98          7           0       -0.269956    4.615317   -1.402896
     99          1           0       -0.873018    5.925240    0.128636
    100          6           0       -0.948760    6.921135   -1.788569
    101          6           0       -3.334984    7.544386   -1.320497
    102          6           0       -1.885905    8.022483   -1.304562
    103          1           0       -6.448832   -1.767102   -1.702117
    104          1           0       -4.997419   -2.370888   -0.141599
    105          1           0       -6.209360   -0.862839    1.907345
    106          1           0        1.055148   -0.928005   -1.183372
    107          1           0       -0.073052   -0.049385   -4.648862
    108          1           0        1.948882   -0.409587   -3.849146
    109          1           0        2.936593   -2.173413   -2.315392
    110          1           0        3.829725   -5.584541   -1.214666
    111          1           0        5.049245   -3.748565   -1.125264
    112          1           0       -0.049967   -3.560724    7.941120
    113          1           0       -1.198691   -4.080565    6.703248
    114          1           0       -2.196676   -2.296702    8.109119
    115          1           0       -0.849678   -1.223281    7.715545
    116          1           0        1.062900   -3.751267    5.723766
    117          1           0        1.079037   -2.083096    6.298326
    118          1           0       -2.814229   -0.730821    6.275181
    119          1           0       -2.834838   -2.403331    5.713212
    120          1           0        0.602900   -5.274466   -4.386669
    121          1           0        1.416568   -6.627018   -5.175340
    122          1           0        3.342044   -5.205364   -5.726548
    123          1           0        1.855665   -4.492890   -6.353067
    124          1           0        1.794910   -2.900351   -4.445421
    125          1           0        3.351716   -2.787269   -5.277400
    126          1           0        1.630001   -6.718382   -2.680203
    127          1           0        3.211855   -6.568412   -3.459811
    128          1           0        9.680509    4.285886    1.578043
    129          1           0        9.706301    2.793415    0.634668
    130          1           0        7.855006    4.250510   -0.123889
    131          1           0        7.194814    4.300280    1.511933
    132          1           0       10.000303    2.282285    3.032167
    133          1           0        8.502009    3.134352    3.416391
    134          1           0        8.100101    0.694042    3.320652
    135          1           0        8.729561    0.632692    1.672737
    136          1           0        0.089611    7.256845   -1.742565
    137          1           0       -1.171709    6.659687   -2.824460
    138          1           0       -1.777611    8.902978   -1.941315
    139          1           0       -1.611149    8.308940   -0.286616
    140          1           0       -3.989474    8.327897   -0.932637
    141          1           0       -3.635030    7.335896   -2.350177
    142          1           0       -4.527628    5.923901   -0.527171
    143          1           0       -3.254734    6.482498    0.561580
    144          1           0      -10.763236    0.204306   -1.170345
    145          1           0       -9.612470    1.201818   -0.280020
    146          1           0      -10.876236   -0.217874    1.270121
    147          1           0      -10.413135   -1.666638    0.377191
    148          1           0       -8.509500    0.169326    1.911468
    149          1           0       -9.004067   -1.463789    2.381101
    150          1           0       -8.943654   -1.352968   -1.819764
    151          1           0       -8.519302    0.299518   -2.288771
    152          1           0       -1.224639   -1.937990   -0.580163
    153          1           0       -0.449660   -3.444005   -1.096847
    154          1           0       -4.006096   -2.236755   -3.191386
    155          1           0       -3.460602   -1.215418   -1.863754
    156          1           0       -2.943096   -3.547400   -1.365369
    157          1           0       -2.092591   -3.735746   -2.899094
    158          1           0       -2.036707   -1.578771   -4.539958
    159          1           0       -2.884041   -0.133610   -3.970261
 ---------------------------------------------------------------------

 SCF Done:  E(RPBE1PBE) =  -3105.88318312     a.u. after    7 cycles
 SCF Done:  E(RPBE1PBE) =  -3105.88319486     A.U. after    8 cycles

 The electronic state is 1-A.
 Alpha  occ. eigenvalues --  -14.37734 -14.37613 -14.37506 -14.37473 -14.37468
 Alpha  occ. eigenvalues --  -14.37456 -14.37229 -14.37211 -14.37045 -14.36904
 Alpha  occ. eigenvalues --  -14.36422 -14.35908 -10.28142 -10.28009 -10.27378
 Alpha  occ. eigenvalues --  -10.26405 -10.26392 -10.26377 -10.26358 -10.26297
 Alpha  occ. eigenvalues --  -10.26181 -10.25009 -10.24975 -10.24885 -10.24881
 Alpha  occ. eigenvalues --  -10.24827 -10.24753 -10.24399 -10.24191 -10.24179
 Alpha  occ. eigenvalues --  -10.24112 -10.23935 -10.23920 -10.23799 -10.23797
 Alpha  occ. eigenvalues --  -10.23793 -10.23765 -10.23707 -10.23704 -10.23666
 Alpha  occ. eigenvalues --  -10.23600 -10.23379 -10.23283 -10.23242 -10.23145
 Alpha  occ. eigenvalues --  -10.23101 -10.22989 -10.22898 -10.22888 -10.22883
 Alpha  occ. eigenvalues --  -10.22719 -10.21705 -10.21691 -10.21634 -10.21605
 Alpha  occ. eigenvalues --  -10.21594 -10.21592 -10.21573 -10.21523 -10.21507
 Alpha  occ. eigenvalues --  -10.21487 -10.21478 -10.21440 -10.21353 -10.21348
 Alpha  occ. eigenvalues --  -10.21341 -10.21315 -10.21304 -10.21251 -10.21200
 Alpha  occ. eigenvalues --  -10.21189 -10.21176 -10.21164 -10.21144 -10.21139
 Alpha  occ. eigenvalues --   -0.99447  -0.99326  -0.98621  -0.97817  -0.97441
 Alpha  occ. eigenvalues --   -0.97379  -0.95166  -0.95039  -0.94546  -0.90004
 Alpha  occ. eigenvalues --   -0.89606  -0.89432  -0.88464  -0.88192  -0.87331
 Alpha  occ. eigenvalues --   -0.85651  -0.85623  -0.85474  -0.85185  -0.85036
 Alpha  occ. eigenvalues --   -0.84763  -0.80603  -0.80537  -0.80380  -0.80238
 Alpha  occ. eigenvalues --   -0.80111  -0.80043  -0.76529  -0.76527  -0.76265
 Alpha  occ. eigenvalues --   -0.76125  -0.76045  -0.75952  -0.75782  -0.75285
 Alpha  occ. eigenvalues --   -0.75141  -0.74289  -0.74280  -0.73894  -0.68174
 Alpha  occ. eigenvalues --   -0.68099  -0.68045  -0.67086  -0.66885  -0.66571
 Alpha  occ. eigenvalues --   -0.66069  -0.65893  -0.65354  -0.62941  -0.62766
 Alpha  occ. eigenvalues --   -0.62654  -0.62540  -0.62354  -0.62199  -0.62148
 Alpha  occ. eigenvalues --   -0.61974  -0.61769  -0.61612  -0.61124  -0.61060
 Alpha  occ. eigenvalues --   -0.59392  -0.59095  -0.58845  -0.58202  -0.58185
 Alpha  occ. eigenvalues --   -0.58033  -0.57564  -0.57370  -0.56882  -0.55941
 Alpha  occ. eigenvalues --   -0.55734  -0.55661  -0.53671  -0.53056  -0.53001
 Alpha  occ. eigenvalues --   -0.52710  -0.52535  -0.52331  -0.51439  -0.51315
 Alpha  occ. eigenvalues --   -0.51017  -0.50714  -0.50430  -0.50140  -0.49971
 Alpha  occ. eigenvalues --   -0.49715  -0.49444  -0.48530  -0.48206  -0.48159
 Alpha  occ. eigenvalues --   -0.48050  -0.47952  -0.47599  -0.47528  -0.47420
 Alpha  occ. eigenvalues --   -0.47173  -0.47120  -0.47058  -0.46972  -0.46774
 Alpha  occ. eigenvalues --   -0.46135  -0.45960  -0.45775  -0.45382  -0.45216
 Alpha  occ. eigenvalues --   -0.44808  -0.44736  -0.44537  -0.44405  -0.44236
 Alpha  occ. eigenvalues --   -0.44124  -0.43919  -0.43705  -0.43590  -0.43464
 Alpha  occ. eigenvalues --   -0.43204  -0.43060  -0.42066  -0.42012  -0.41760
 Alpha  occ. eigenvalues --   -0.41516  -0.41434  -0.41367  -0.41072  -0.40990
 Alpha  occ. eigenvalues --   -0.40918  -0.40606  -0.40443  -0.40282  -0.40033
 Alpha  occ. eigenvalues --   -0.39963  -0.39874  -0.39721  -0.39502  -0.39364
 Alpha  occ. eigenvalues --   -0.38091  -0.37998  -0.37707  -0.37655  -0.37462
 Alpha  occ. eigenvalues --   -0.37206  -0.37164  -0.36939  -0.36770  -0.36664
 Alpha  occ. eigenvalues --   -0.36304  -0.36195  -0.36148  -0.35991  -0.35931
 Alpha  occ. eigenvalues --   -0.35906  -0.35790  -0.35692  -0.35564  -0.35474
 Alpha  occ. eigenvalues --   -0.35309  -0.35157  -0.35059  -0.34786  -0.34296
 Alpha  occ. eigenvalues --   -0.34047  -0.33823  -0.33782  -0.33753  -0.33631
 Alpha  occ. eigenvalues --   -0.33382  -0.33336  -0.33123  -0.33077  -0.32920
 Alpha  occ. eigenvalues --   -0.32841  -0.32412  -0.32331  -0.32187  -0.31958
 Alpha  occ. eigenvalues --   -0.31829  -0.31678  -0.30625  -0.30520  -0.30016
 Alpha  occ. eigenvalues --   -0.27500  -0.27340  -0.27250  -0.27197  -0.26971
 Alpha  occ. eigenvalues --   -0.26682  -0.26671  -0.26450  -0.26112  -0.25608
 Alpha  occ. eigenvalues --   -0.25531  -0.25285  -0.25105  -0.24911  -0.24492
 Alpha  occ. eigenvalues --   -0.24340  -0.24084  -0.23538
 Alpha virt. eigenvalues --   -0.05808  -0.05454  -0.05404  -0.04169  -0.04060
 Alpha virt. eigenvalues --   -0.03833   0.01435   0.01856   0.02044   0.03035
 Alpha virt. eigenvalues --    0.03456   0.04177   0.04418   0.04532   0.04659

 Mulliken charges:
               1
     1  C    0.291627
     2  C   -0.003696
     3  C   -0.377766
     4  C    0.382414
     5  H    0.130492
     6  C   -0.365170
     7  C    0.403299
     8  H    0.118764
     9  C   -0.479739
    10  C   -0.181263
    11  H    0.121811
    12  C   -0.176412
    13  H    0.087875
    14  H    0.092805
    15  C    0.110188
    16  C    0.094842
    17  C   -0.353559
    18  C    0.411162
    19  H    0.142390
    20  C   -0.398679
    21  C    0.416512
    22  H    0.125875
    23  C   -0.417089
    24  C   -0.194898
    25  H    0.120187
    26  C   -0.191220
    27  H    0.097449
    28  H    0.090343
    29  C    0.119702
    30  C    0.079228
    31  C   -0.312744
    32  C    0.332284
    33  H    0.127982
    34  C   -0.405256
    35  C    0.389613
    36  H    0.117162
    37  C   -0.350879
    38  C   -0.194306
    39  H    0.147701
    40  C   -0.165263
    41  H    0.088927
    42  H    0.099091
    43  C   -0.076866
    44  C   -0.004023
    45  N   -0.288777
    46  H    0.040067
    47  C   -0.151409
    48  N   -0.292418
    49  H    0.059191
    50  C   -0.167871
    51  C   -0.194107
    52  C   -0.192767
    53  C   -0.059777
    54  C   -0.097588
    55  N   -0.300349
    56  H    0.072123
    57  C   -0.150899
    58  N   -0.279703
    59  H    0.065627
    60  C   -0.172005
    61  C   -0.199427
    62  C   -0.198120
    63  C   -0.077828
    64  C   -0.078984
    65  N   -0.255381
    66  H    0.069011
    67  C   -0.153634
    68  N   -0.332257
    69  H    0.051221
    70  C   -0.190815
    71  C   -0.111400
    72  C   -0.212147
    73  C    0.042262
    74  C    0.035880
    75  N   -0.201571
    76  H    0.053160
    77  C   -0.200783
    78  N   -0.196395
    79  H    0.056368
    80  C   -0.192696
    81  C   -0.174078
    82  C   -0.179123
    83  C    0.046033
    84  C    0.004258
    85  N   -0.194636
    86  H    0.057404
    87  C   -0.174477
    88  N   -0.204662
    89  H    0.067914
    90  C   -0.162625
    91  C   -0.188185
    92  C   -0.191173
    93  C    0.075980
    94  C    0.019399
    95  N   -0.200601
    96  H    0.048541
    97  C   -0.188550
    98  N   -0.191905
    99  H    0.054093
   100  C   -0.198218
   101  C   -0.186313
   102  C   -0.178873
   103  H    0.206318
   104  H    0.107990
   105  H    0.213559
   106  H    0.225680
   107  H    0.205917
   108  H    0.114105
   109  H    0.170391
   110  H    0.206305
   111  H    0.091586
   112  H    0.112789
   113  H    0.092277
   114  H    0.112620
   115  H    0.092536
   116  H    0.113225
   117  H    0.101537
   118  H    0.110857
   119  H    0.102023
   120  H    0.097559
   121  H    0.114431
   122  H    0.100478
   123  H    0.113676
   124  H    0.094729
   125  H    0.102288
   126  H    0.107999
   127  H    0.095400
   128  H    0.112337
   129  H    0.094121
   130  H    0.107755
   131  H    0.099315
   132  H    0.112925
   133  H    0.093715
   134  H    0.109659
   135  H    0.101993
   136  H    0.113339
   137  H    0.104072
   138  H    0.113019
   139  H    0.093930
   140  H    0.112762
   141  H    0.094120
   142  H    0.110928
   143  H    0.101597
   144  H    0.115965
   145  H    0.100655
   146  H    0.115633
   147  H    0.100084
   148  H    0.101180
   149  H    0.110696
   150  H    0.099914
   151  H    0.107945
   152  H    0.115690
   153  H    0.117320
   154  H    0.096781
   155  H    0.063660
   156  H    0.116560
   157  H    0.103568
   158  H    0.098228
   159  H    0.107351
 Sum of Mulliken charges =   0.00000

 Dipole moment (field-independent basis, Debye):
    X=             -5.5089    Y=             -2.6641    Z=             -2.5044  Tot=              6.6119
 Quadrupole moment (field-independent basis, Debye-Ang):
   XX=           -415.9658   YY=           -426.5671   ZZ=           -431.6941
   XY=             -2.4836   XZ=             10.2298   YZ=             22.0581

 Normal termination of Gaussian 16 at Mon Oct 18 09:38:16 2021.
