 Gaussian 16, Revision C.01,
 Gaussian 16:  ES64L-G16RevC.01  3-Jul-2019

 ----------------------------------------------------------------------
 #P PBE1PBE/Def2TZVP SP SCF=(YQC,MaxCycle=900) int=(Grid=Superfinegrid)
  EmpiricalDispersion=GD3
 ----------------------------------------------------------------------

 -------------------------
 _3_alde1_4_ami4_1_opt_gas
 -------------------------
 Symbolic Z-matrix:
 Charge =  0 Multiplicity = 1

                         Standard orientation:
 ---------------------------------------------------------------------
 Center     Atomic      Atomic             Coordinates (Angstroms)
 Number     Number       Type             X           Y           Z
 ---------------------------------------------------------------------
      1          6           0       -2.656466    1.849698   -0.908834
      2          6           0       -3.567600    1.260516   -1.881684
      3          6           0       -1.642601    2.709427   -1.314370
      4          6           0       -0.730839    3.215564   -0.387433
      5          1           0       -1.545850    3.012400   -2.345795
      6          6           0       -0.808995    2.810519    0.941141
      7          6           0       -1.816586    1.944205    1.360674
      8          1           0       -0.095249    3.158292    1.672402
      9          6           0       -2.752135    1.494494    0.436053
     10          6           0       -1.883075    1.463964    2.732820
     11          1           0       -3.553781    0.837169    0.733341
     12          6           0        0.318765    4.134331   -0.798676
     13          1           0       -2.809024    0.933399    2.997891
     14          1           0       -3.245926    1.322550   -2.932970
     15          1           0        0.960483    4.509070    0.012927
     16          6           0        2.901516    0.637050    1.457922
     17          6           0        2.653931    1.013652    2.855898
     18          6           0        3.184970   -0.691988    1.143016
     19          6           0        3.380004   -1.082575   -0.176846
     20          1           0        3.252146   -1.410861    1.947741
     21          6           0        3.279929   -0.127138   -1.187805
     22          6           0        3.026251    1.206762   -0.885711
     23          1           0        3.418905   -0.449660   -2.208549
     24          6           0        2.840997    1.585134    0.443052
     25          6           0        2.908027    2.193201   -1.953102
     26          1           0        2.640651    2.621631    0.663610
     27          6           0        3.641971   -2.480521   -0.485669
     28          1           0        2.712988    1.788042   -2.957800
     29          1           0        2.443758    2.088314    3.005186
     30          1           0        3.686865   -3.154913    0.382168
     31          6           0       -2.583468   -2.300801   -0.117145
     32          6           0       -3.941021   -1.938156   -0.493826
     33          6           0       -2.108622   -1.945885    1.140364
     34          6           0       -0.778194   -2.170516    1.491689
     35          1           0       -2.748382   -1.456477    1.857903
     36          6           0        0.058113   -2.819450    0.590875
     37          6           0       -0.408465   -3.199489   -0.667336
     38          1           0        1.088335   -3.021537    0.838604
     39          6           0       -1.721127   -2.914298   -1.025100
     40          6           0        0.501063   -3.808820   -1.629083
     41          1           0       -2.099127   -3.163681   -2.004732
     42          6           0       -0.245978   -1.630583    2.735892
     43          1           0        0.201425   -3.725473   -2.685590
     44          1           0        0.848785   -1.648566    2.832877
     45          6           0       -5.644595   -1.451205   -1.975822
     46          6           0       -5.426462   -0.012303   -2.494909
     47          7           0       -4.363352   -2.015448   -1.681256
     48          7           0       -4.633959    0.685321   -1.534411
     49          8           0        2.659252    0.245494    3.785669
     50          6           0        1.625374    5.295168   -2.313937
     51          6           0        2.773634    4.371129   -2.772602
     52          7           0        0.491490    4.481142   -2.000293
     53          7           0        3.014323    3.428261   -1.729463
     54          6           0       -1.055815    0.959908    4.827498
     55          6           0       -0.417589   -0.444650    4.737758
     56          7           0       -0.935488    1.606805    3.555228
     57          7           0       -0.990055   -1.118038    3.615439
     58          6           0        3.897790   -4.310907   -1.870879
     59          6           0        2.499091   -4.844353   -2.249428
     60          7           0        3.792979   -2.899457   -1.666669
     61          7           0        1.570268   -4.372045   -1.272932
     62          1           0       -4.566371   -1.545508    0.321509
     63          1           0       -0.678102   -0.995731    5.646136
     64          1           0        0.675777   -0.358821    4.665298
     65          1           0       -2.107911    0.843522    5.127852
     66          1           0       -0.516545    1.548439    5.571843
     67          1           0        1.974306    5.874970   -1.446261
     68          1           0        1.358398    5.968019   -3.131338
     69          1           0        3.673055    4.977874   -2.907983
     70          1           0        2.506805    3.889074   -3.726314
     71          1           0        2.524807   -5.937401   -2.210813
     72          1           0        2.235082   -4.525625   -3.269999
     73          1           0        4.236752   -4.835365   -0.964935
     74          1           0        4.590789   -4.498655   -2.693409
     75          1           0       -6.401175    0.478749   -2.568596
     76          1           0       -4.956197   -0.039129   -3.490558
     77          1           0       -6.123034   -2.046119   -2.756310
     78          1           0       -6.291651   -1.404238   -1.086922
 ---------------------------------------------------------------------

 SCF Done:  E(RPBE1PBE) =  -1865.86292864     a.u. after    6 cycles
 SCF Done:  E(RPBE1PBE) =  -1865.86295462     A.U. after   10 cycles

 The electronic state is 1-A.
 Alpha  occ. eigenvalues --  -19.20931 -14.38653 -14.38182 -14.38154 -14.38018
 Alpha  occ. eigenvalues --  -14.37760 -14.37476 -14.37402 -14.37294 -10.31440
 Alpha  occ. eigenvalues --  -10.27517 -10.27066 -10.26991 -10.26896 -10.26683
 Alpha  occ. eigenvalues --  -10.26388 -10.26222 -10.26141 -10.25688 -10.25586
 Alpha  occ. eigenvalues --  -10.25399 -10.25322 -10.25300 -10.25291 -10.25281
 Alpha  occ. eigenvalues --  -10.25246 -10.25166 -10.25062 -10.25057 -10.24913
 Alpha  occ. eigenvalues --  -10.24300 -10.24291 -10.24280 -10.24279 -10.24161
 Alpha  occ. eigenvalues --  -10.24130 -10.24085 -10.24047 -10.23864 -10.23807
 Alpha  occ. eigenvalues --  -10.23776 -10.23767 -10.23737 -10.23666  -1.08608
 Alpha  occ. eigenvalues --   -0.98110  -0.97943  -0.97581  -0.97020  -0.95443
 Alpha  occ. eigenvalues --   -0.95325  -0.94887  -0.94381  -0.91121  -0.90062
 Alpha  occ. eigenvalues --   -0.89510  -0.82794  -0.82402  -0.82193  -0.81372
 Alpha  occ. eigenvalues --   -0.80650  -0.80259  -0.77921  -0.76608  -0.76378
 Alpha  occ. eigenvalues --   -0.75545  -0.70271  -0.70189  -0.69667  -0.69327
 Alpha  occ. eigenvalues --   -0.68735  -0.66663  -0.66475  -0.66084  -0.63934
 Alpha  occ. eigenvalues --   -0.63168  -0.62703  -0.61774  -0.60513  -0.57638
 Alpha  occ. eigenvalues --   -0.57100  -0.56736  -0.56595  -0.55921  -0.55507
 Alpha  occ. eigenvalues --   -0.54776  -0.53975  -0.53838  -0.52856  -0.52485
 Alpha  occ. eigenvalues --   -0.51983  -0.51024  -0.50843  -0.50492  -0.50421
 Alpha  occ. eigenvalues --   -0.49667  -0.49527  -0.49443  -0.48644  -0.47677
 Alpha  occ. eigenvalues --   -0.47500  -0.47227  -0.46843  -0.46607  -0.46538
 Alpha  occ. eigenvalues --   -0.46270  -0.45968  -0.45560  -0.45205  -0.44623
 Alpha  occ. eigenvalues --   -0.44410  -0.44119  -0.43896  -0.43764  -0.41899
 Alpha  occ. eigenvalues --   -0.41653  -0.41255  -0.41060  -0.40741  -0.40482
 Alpha  occ. eigenvalues --   -0.40106  -0.39880  -0.39691  -0.39384  -0.38619
 Alpha  occ. eigenvalues --   -0.38213  -0.37567  -0.36995  -0.36783  -0.36554
 Alpha  occ. eigenvalues --   -0.36287  -0.35543  -0.35365  -0.35155  -0.34909
 Alpha  occ. eigenvalues --   -0.34564  -0.32900  -0.30861  -0.30430  -0.28499
 Alpha  occ. eigenvalues --   -0.28067  -0.27792  -0.27663  -0.27497  -0.27425
 Alpha  occ. eigenvalues --   -0.27078  -0.26967  -0.26889  -0.26712  -0.26291
 Alpha  occ. eigenvalues --   -0.26041  -0.25705  -0.25446  -0.25390
 Alpha virt. eigenvalues --   -0.07789  -0.06839  -0.06355  -0.05738  -0.05607
 Alpha virt. eigenvalues --   -0.05224  -0.03152  -0.02436  -0.01215   0.04243
 Alpha virt. eigenvalues --    0.04686   0.04916   0.05019   0.05196   0.05508

 Mulliken charges:
               1
     1  C    0.338881
     2  C   -0.144195
     3  C   -0.373839
     4  C    0.402766
     5  H    0.122890
     6  C   -0.355393
     7  C    0.376249
     8  H    0.121293
     9  C   -0.283696
    10  C   -0.180666
    11  H    0.120781
    12  C   -0.181832
    13  H    0.082931
    14  H    0.068213
    15  H    0.078280
    16  C    0.295444
    17  C    0.084137
    18  C   -0.380843
    19  C    0.402537
    20  H    0.152552
    21  C   -0.372673
    22  C    0.365391
    23  H    0.126650
    24  C   -0.299039
    25  C   -0.143932
    26  H    0.121811
    27  C   -0.160991
    28  H    0.072764
    29  H    0.079976
    30  H    0.079559
    31  C    0.391132
    32  C   -0.170828
    33  C   -0.300967
    34  C    0.332909
    35  H    0.125723
    36  C   -0.301720
    37  C    0.356826
    38  H    0.111397
    39  C   -0.385169
    40  C   -0.140485
    41  H    0.121407
    42  C   -0.144460
    43  H    0.070439
    44  H    0.071876
    45  C   -0.064992
    46  C   -0.082353
    47  N   -0.183055
    48  N   -0.188462
    49  O   -0.313481
    50  C   -0.070021
    51  C   -0.077214
    52  N   -0.178155
    53  N   -0.185838
    54  C   -0.043266
    55  C   -0.128195
    56  N   -0.205041
    57  N   -0.194997
    58  C   -0.063539
    59  C   -0.082863
    60  N   -0.175539
    61  N   -0.190848
    62  H    0.079489
    63  H    0.110449
    64  H    0.123531
    65  H    0.079703
    66  H    0.112705
    67  H    0.081478
    68  H    0.118685
    69  H    0.117996
    70  H    0.073815
    71  H    0.117136
    72  H    0.075194
    73  H    0.080798
    74  H    0.118050
    75  H    0.115846
    76  H    0.072967
    77  H    0.115718
    78  H    0.080214
 Sum of Mulliken charges =   0.00000

 Dipole moment (field-independent basis, Debye):
    X=              0.3079    Y=              0.1562    Z=             -2.9193  Tot=              2.9396
 Quadrupole moment (field-independent basis, Debye-Ang):
   XX=           -249.1643   YY=           -248.9368   ZZ=           -249.1915
   XY=             -0.2709   XZ=             -4.7649   YZ=              1.8971

 Normal termination of Gaussian 16 at Mon Oct 18 08:49:12 2021.
