 Gaussian 16, Revision C.01,
 Gaussian 16:  ES64L-G16RevC.01  3-Jul-2019

 ----------------------------------------------------------------------
 #P PBE1PBE/Def2TZVP SP SCF=(YQC,MaxCycle=900) int=(Grid=Superfinegrid)
  EmpiricalDispersion=GD3 SCRF=(PCM,Solvent=Dichloromethane)
 ----------------------------------------------------------------------

 -------------------------
 _3_alde1_5_ami3_2_opt_dcm
 -------------------------
 Symbolic Z-matrix:
 Charge =  0 Multiplicity = 1

                         Standard orientation:
 ---------------------------------------------------------------------
 Center     Atomic      Atomic             Coordinates (Angstroms)
 Number     Number       Type             X           Y           Z
 ---------------------------------------------------------------------
      1          6           0        0.727597   -2.972786   -0.649754
      2          6           0       -0.118204   -3.095539   -1.825646
      3          6           0        0.197633   -2.957553    0.639250
      4          6           0        1.023971   -2.757391    1.740375
      5          1           0       -0.865508   -3.099684    0.759807
      6          6           0        2.384113   -2.516131    1.543852
      7          6           0        2.926141   -2.528564    0.264287
      8          1           0        2.999671   -2.327873    2.410215
      9          6           0        2.094858   -2.789117   -0.823574
     10          6           0        4.321674   -2.176631    0.038197
     11          1           0        2.536366   -2.807412   -1.807471
     12          6           0        0.460092   -2.772277    3.081381
     13          1           0        4.813524   -1.639378    0.864563
     14          1           0        0.424526   -3.186654   -2.778871
     15          1           0       -0.622369   -2.961729    3.136298
     16          6           0       -2.734780    0.659471    1.291395
     17          6           0       -3.786133   -0.176463    0.724408
     18          6           0       -2.458365    1.921515    0.766909
     19          6           0       -1.462329    2.719706    1.318150
     20          1           0       -3.040730    2.268610   -0.073796
     21          6           0       -0.714228    2.235661    2.390896
     22          6           0       -0.979855    0.981232    2.926640
     23          1           0        0.063982    2.863412    2.796960
     24          6           0       -1.997788    0.202766    2.377667
     25          6           0       -0.180574    0.464816    4.029152
     26          1           0       -2.191805   -0.765726    2.812167
     27          6           0       -1.191814    4.030464    0.748764
     28          1           0        0.785691    0.966387    4.194869
     29          1           0       -3.933314   -1.135478    1.233570
     30          1           0       -1.748889    4.267963   -0.171205
     31          6           0        0.441693    0.773621   -2.482727
     32          6           0       -0.881529    0.174873   -2.602780
     33          6           0        1.568209    0.055490   -2.879039
     34          6           0        2.847452    0.522951   -2.598047
     35          1           0        1.420553   -0.894288   -3.368455
     36          6           0        2.999373    1.747594   -1.949830
     37          6           0        1.885832    2.508620   -1.614479
     38          1           0        3.997642    2.088024   -1.720808
     39          6           0        0.609205    2.009913   -1.869766
     40          6           0        2.037558    3.775548   -0.908804
     41          1           0       -0.243333    2.594472   -1.560797
     42          6           0        3.991098   -0.327241   -2.886773
     43          1           0        2.946989    3.871297   -0.293966
     44          1           0        3.764124   -1.236775   -3.463578
     45          6           0       -2.369833   -1.474155   -3.313205
     46          6           0       -2.081142   -2.969937   -3.032422
     47          7           0       -1.106245   -0.807386   -3.360620
     48          7           0       -1.379058   -3.039487   -1.786445
     49          6           0       -6.785661    0.383377   -0.833480
     50          6           0       -5.527622   -0.531100   -0.862943
     51          7           0       -6.555781    1.706893   -1.375172
     52          7           0       -4.452526    0.206716   -0.276130
     53          6           0        0.515542   -2.535040    5.389968
     54          6           0        0.285727   -1.045827    5.743471
     55          7           0        1.160861   -2.584986    4.114100
     56          7           0       -0.568878   -0.503347    4.736514
     57          6           0        6.216774   -1.897398   -1.291629
     58          6           0        6.152567   -1.098473   -2.617603
     59          7           0        4.907821   -2.417787   -1.051470
     60          7           0        5.152586   -0.088190   -2.453868
     61          6           0       -0.080415    6.047813    0.542838
     62          6           0        1.285004    5.848425   -0.153806
     63          7           0       -0.370956    4.843110    1.256623
     64          7           0        1.167334    4.683315   -0.974167
     65          1           0       -5.788902    2.143501   -0.874777
     66          1           0       -6.280689    1.638261   -2.350501
     67          1           0       -1.654381    0.598850   -1.942667
     68          6           0       -5.862508   -1.899835   -0.265577
     69          6           0       -3.100209   -1.349532   -4.651571
     70          6           0        1.604112    7.092858   -0.983218
     71          6           0        7.244116   -3.020485   -1.439060
     72          6           0       -0.382769   -0.949274    7.115750
     73          1           0        1.266568   -0.536768    5.768800
     74          6           0        0.481796   -1.614071    8.181165
     75          1           0       -0.543012    0.103629    7.357801
     76          1           0       -1.358957   -1.434244    7.062783
     77          6           0        0.741541   -3.075708    7.828871
     78          1           0       -0.015771   -1.546501    9.150757
     79          1           0        1.434713   -1.084787    8.255487
     80          6           0        1.392556   -3.188520    6.454714
     81          1           0       -0.205283   -3.620873    7.826262
     82          1           0        1.388259   -3.531044    8.581375
     83          1           0        2.365721   -2.694908    6.454518
     84          1           0        1.548130   -4.236639    6.191793
     85          1           0       -0.476978   -3.018240    5.361698
     86          1           0       -3.003258   -1.078917   -2.499712
     87          6           0       -4.400974   -2.145789   -4.632021
     88          1           0       -2.444092   -1.717046   -5.442613
     89          1           0       -3.303517   -0.294238   -4.847545
     90          6           0       -4.138924   -3.612852   -4.303349
     91          1           0       -4.894777   -2.064012   -5.602701
     92          1           0       -5.072215   -1.722542   -3.880655
     93          6           0       -3.392708   -3.746013   -2.979840
     94          1           0       -3.540885   -4.059583   -5.101048
     95          1           0       -5.084517   -4.156728   -4.250352
     96          1           0       -3.179235   -4.795728   -2.768515
     97          1           0       -3.999222   -3.355343   -2.162312
     98          1           0       -1.457028   -3.339429   -3.865716
     99          1           0        2.063234    5.719649    0.619860
    100          6           0       -0.001324    7.252619    1.475416
    101          1           0       -0.827669    6.233526   -0.249708
    102          6           0        0.349400    8.505212    0.678034
    103          1           0        0.756007    7.060537    2.237149
    104          1           0       -0.961065    7.380030    1.980054
    105          6           0        1.662426    8.320356   -0.078949
    106          1           0        0.427926    9.360967    1.351338
    107          1           0       -0.451752    8.712935   -0.035261
    108          1           0        2.478322    8.200251    0.637833
    109          1           0        1.872325    9.207892   -0.679340
    110          1           0        0.833473    7.217253   -1.745896
    111          1           0        2.560605    6.948572   -1.490749
    112          1           0        6.535183   -1.213061   -0.484445
    113          6           0        7.520905   -0.492245   -2.911487
    114          1           0        5.875496   -1.812948   -3.413226
    115          6           0        8.568689   -1.594607   -3.030639
    116          1           0        7.781490    0.195450   -2.105363
    117          1           0        7.466356    0.081671   -3.838543
    118          6           0        8.617096   -2.437781   -1.759063
    119          1           0        9.548979   -1.152988   -3.219866
    120          1           0        8.321043   -2.236129   -3.879825
    121          1           0        9.339789   -3.247602   -1.877607
    122          1           0        8.946538   -1.814227   -0.924617
    123          1           0        6.920443   -3.692390   -2.235702
    124          1           0        7.281485   -3.593205   -0.509691
    125          1           0       -5.250454   -0.655554   -1.920779
    126          6           0       -7.923181   -0.292748   -1.597894
    127          1           0       -7.079053    0.515538    0.215524
    128          6           0       -8.239513   -1.668649   -1.022815
    129          1           0       -7.635150   -0.391131   -2.648064
    130          1           0       -8.801143    0.352707   -1.552792
    131          6           0       -6.997916   -2.554584   -1.045221
    132          1           0       -9.040379   -2.134774   -1.600153
    133          1           0       -8.588318   -1.559564    0.006547
    134          1           0       -6.685299   -2.718037   -2.079784
    135          1           0       -7.227122   -3.529935   -0.610137
    136          1           0       -6.166053   -1.773125    0.777081
    137          1           0       -4.975864   -2.539626   -0.288298
 ---------------------------------------------------------------------

 SCF Done:  E(RPBE1PBE) =  -2759.54279784     a.u. after    7 cycles
 SCF Done:  E(RPBE1PBE) =  -2759.54282670     A.U. after    8 cycles

 The electronic state is 1-A.
 Alpha  occ. eigenvalues --  -14.37911 -14.37910 -14.37891 -14.37827 -14.37792
 Alpha  occ. eigenvalues --  -14.37711 -14.37678 -14.37650 -14.37633 -14.35470
 Alpha  occ. eigenvalues --  -10.26796 -10.26753 -10.26737 -10.26699 -10.26693
 Alpha  occ. eigenvalues --  -10.26541 -10.26538 -10.26520 -10.26510 -10.25243
 Alpha  occ. eigenvalues --  -10.25228 -10.25203 -10.25177 -10.25013 -10.25011
 Alpha  occ. eigenvalues --  -10.24989 -10.24930 -10.24842 -10.24654 -10.24464
 Alpha  occ. eigenvalues --  -10.24455 -10.24453 -10.24431 -10.24430 -10.24408
 Alpha  occ. eigenvalues --  -10.24388 -10.24387 -10.24381 -10.24000 -10.23980
 Alpha  occ. eigenvalues --  -10.23958 -10.23940 -10.23939 -10.23935 -10.23927
 Alpha  occ. eigenvalues --  -10.23920 -10.23920 -10.21712 -10.21681 -10.21657
 Alpha  occ. eigenvalues --  -10.21594 -10.21569 -10.21504 -10.21460 -10.21444
 Alpha  occ. eigenvalues --  -10.21431 -10.21412 -10.21408 -10.21372 -10.21366
 Alpha  occ. eigenvalues --  -10.21347 -10.21345 -10.21323 -10.21319 -10.21288
 Alpha  occ. eigenvalues --  -10.21242 -10.21141  -0.98040  -0.97915  -0.97894
 Alpha  occ. eigenvalues --   -0.97860  -0.96606  -0.95376  -0.95257  -0.94981
 Alpha  occ. eigenvalues --   -0.94913  -0.91381  -0.90602  -0.89864  -0.89852
 Alpha  occ. eigenvalues --   -0.85943  -0.85773  -0.85723  -0.85125  -0.84261
 Alpha  occ. eigenvalues --   -0.81074  -0.81048  -0.81033  -0.80927  -0.80872
 Alpha  occ. eigenvalues --   -0.80855  -0.76924  -0.76830  -0.76670  -0.76345
 Alpha  occ. eigenvalues --   -0.76278  -0.75936  -0.75547  -0.75482  -0.75349
 Alpha  occ. eigenvalues --   -0.74174  -0.68741  -0.68663  -0.68569  -0.68205
 Alpha  occ. eigenvalues --   -0.67996  -0.67350  -0.66885  -0.66750  -0.65793
 Alpha  occ. eigenvalues --   -0.63354  -0.63019  -0.62887  -0.62748  -0.62404
 Alpha  occ. eigenvalues --   -0.62372  -0.61762  -0.61412  -0.60690  -0.60553
 Alpha  occ. eigenvalues --   -0.58911  -0.58365  -0.58323  -0.58210  -0.58140
 Alpha  occ. eigenvalues --   -0.56388  -0.56343  -0.56205  -0.56095  -0.55898
 Alpha  occ. eigenvalues --   -0.55315  -0.54134  -0.53645  -0.53377  -0.52800
 Alpha  occ. eigenvalues --   -0.52653  -0.52604  -0.51355  -0.51228  -0.50980
 Alpha  occ. eigenvalues --   -0.50481  -0.49829  -0.49777  -0.49647  -0.49278
 Alpha  occ. eigenvalues --   -0.49150  -0.49033  -0.48303  -0.47748  -0.47574
 Alpha  occ. eigenvalues --   -0.47524  -0.47362  -0.47265  -0.47202  -0.46762
 Alpha  occ. eigenvalues --   -0.46270  -0.46132  -0.45874  -0.45574  -0.45187
 Alpha  occ. eigenvalues --   -0.45082  -0.44837  -0.44670  -0.44399  -0.44241
 Alpha  occ. eigenvalues --   -0.44145  -0.43772  -0.43682  -0.43642  -0.43442
 Alpha  occ. eigenvalues --   -0.43240  -0.42447  -0.42330  -0.42198  -0.42120
 Alpha  occ. eigenvalues --   -0.42085  -0.41637  -0.41489  -0.41378  -0.40951
 Alpha  occ. eigenvalues --   -0.40172  -0.40128  -0.40011  -0.39940  -0.39593
 Alpha  occ. eigenvalues --   -0.38726  -0.38538  -0.38438  -0.38122  -0.38004
 Alpha  occ. eigenvalues --   -0.37635  -0.37278  -0.37011  -0.36692  -0.36459
 Alpha  occ. eigenvalues --   -0.36246  -0.36180  -0.36124  -0.36047  -0.35981
 Alpha  occ. eigenvalues --   -0.35801  -0.35723  -0.35661  -0.35575  -0.35540
 Alpha  occ. eigenvalues --   -0.35512  -0.35230  -0.34368  -0.34035  -0.34000
 Alpha  occ. eigenvalues --   -0.33869  -0.33712  -0.33660  -0.33565  -0.33336
 Alpha  occ. eigenvalues --   -0.32945  -0.32416  -0.32346  -0.32189  -0.32063
 Alpha  occ. eigenvalues --   -0.31940  -0.31711  -0.30069  -0.30025  -0.29253
 Alpha  occ. eigenvalues --   -0.27879  -0.27691  -0.27603  -0.27573  -0.27249
 Alpha  occ. eigenvalues --   -0.27131  -0.27032  -0.26964  -0.26307  -0.26120
 Alpha  occ. eigenvalues --   -0.25987  -0.25811  -0.25735  -0.25596  -0.25425
 Alpha  occ. eigenvalues --   -0.24612
 Alpha virt. eigenvalues --   -0.06556  -0.06447  -0.06185  -0.05715  -0.05629
 Alpha virt. eigenvalues --   -0.05332  -0.02530  -0.02138  -0.01213   0.03367
 Alpha virt. eigenvalues --    0.03848   0.04163   0.04488   0.04689   0.04908

 Mulliken charges:
               1
     1  C    0.354226
     2  C   -0.191736
     3  C   -0.363911
     4  C    0.368651
     5  H    0.129020
     6  C   -0.375961
     7  C    0.321960
     8  H    0.123589
     9  C   -0.286646
    10  C   -0.167443
    11  H    0.133157
    12  C   -0.166442
    13  H    0.089065
    14  H    0.102739
    15  H    0.096127
    16  C    0.360817
    17  C   -0.157186
    18  C   -0.364210
    19  C    0.370376
    20  H    0.138404
    21  C   -0.364016
    22  C    0.360077
    23  H    0.120663
    24  C   -0.364576
    25  C   -0.174224
    26  H    0.124448
    27  C   -0.184027
    28  H    0.091264
    29  H    0.113834
    30  H    0.093110
    31  C    0.302921
    32  C   -0.156688
    33  C   -0.297291
    34  C    0.370096
    35  H    0.132720
    36  C   -0.387100
    37  C    0.362438
    38  H    0.122546
    39  C   -0.335659
    40  C   -0.171146
    41  H    0.128884
    42  C   -0.178458
    43  H    0.091506
    44  H    0.101535
    45  C    0.014161
    46  C    0.085518
    47  N   -0.206134
    48  N   -0.223970
    49  C    0.012092
    50  C   -0.023549
    51  N   -0.531502
    52  N   -0.202440
    53  C    0.031935
    54  C    0.028431
    55  N   -0.199071
    56  N   -0.196985
    57  C    0.017052
    58  C    0.047845
    59  N   -0.197272
    60  N   -0.204075
    61  C    0.068667
    62  C    0.011954
    63  N   -0.196759
    64  N   -0.200869
    65  H    0.232676
    66  H    0.221097
    67  H    0.093116
    68  C   -0.253640
    69  C   -0.180176
    70  C   -0.195935
    71  C   -0.196362
    72  C   -0.192629
    73  H    0.055841
    74  C   -0.181440
    75  H    0.112968
    76  H    0.103888
    77  C   -0.190292
    78  H    0.113730
    79  H    0.094202
    80  C   -0.169308
    81  H    0.094263
    82  H    0.113287
    83  H    0.100131
    84  H    0.109482
    85  H    0.061876
    86  H    0.049729
    87  C   -0.191795
    88  H    0.105049
    89  H    0.112201
    90  C   -0.193746
    91  H    0.111971
    92  H    0.099630
    93  C   -0.158420
    94  H    0.098657
    95  H    0.114191
    96  H    0.105412
    97  H    0.078482
    98  H    0.065711
    99  H    0.059522
   100  C   -0.174663
   101  H    0.056992
   102  C   -0.193469
   103  H    0.100768
   104  H    0.109869
   105  C   -0.181476
   106  H    0.113672
   107  H    0.095181
   108  H    0.094954
   109  H    0.113871
   110  H    0.105415
   111  H    0.113512
   112  H    0.057548
   113  C   -0.172376
   114  H    0.061401
   115  C   -0.194704
   116  H    0.100391
   117  H    0.109274
   118  C   -0.180483
   119  H    0.113324
   120  H    0.095090
   121  H    0.113788
   122  H    0.094735
   123  H    0.104887
   124  H    0.113351
   125  H    0.049945
   126  C   -0.183802
   127  H    0.089406
   128  C   -0.190480
   129  H    0.097520
   130  H    0.109276
   131  C   -0.170793
   132  H    0.112222
   133  H    0.097311
   134  H    0.100047
   135  H    0.111690
   136  H    0.118781
   137  H    0.132172
 Sum of Mulliken charges =   0.00000

 Dipole moment (field-independent basis, Debye):
    X=              1.2811    Y=             -1.2350    Z=              0.8161  Tot=              1.9576
 Quadrupole moment (field-independent basis, Debye-Ang):
   XX=           -383.0104   YY=           -388.0258   ZZ=           -383.4309
   XY=             19.4461   XZ=              7.3947   YZ=              5.9429

 Normal termination of Gaussian 16 at Tue Oct 19 04:06:35 2021.
