 Gaussian 16, Revision C.01,
 Gaussian 16:  ES64L-G16RevC.01  3-Jul-2019

 ----------------------------------------------------------------------
 #P PBE1PBE/Def2TZVP SP SCF=(YQC,MaxCycle=900) int=(Grid=Superfinegrid)
  EmpiricalDispersion=GD3 SCRF=(PCM,Solvent=Dichloromethane)
 ----------------------------------------------------------------------

 -------------------------
 _3_alde1_6_ami1_2_opt_dcm
 -------------------------
 Symbolic Z-matrix:
 Charge =  0 Multiplicity = 1

                         Standard orientation:
 ---------------------------------------------------------------------
 Center     Atomic      Atomic             Coordinates (Angstroms)
 Number     Number       Type             X           Y           Z
 ---------------------------------------------------------------------
      1          6           0        1.624795    2.820995    0.065714
      2          6           0        1.137824    3.543453   -1.102009
      3          6           0        0.985143    2.956776    1.294328
      4          6           0        1.445092    2.271455    2.414724
      5          1           0        0.121419    3.595443    1.377566
      6          6           0        2.572668    1.464782    2.305918
      7          6           0        3.241007    1.339404    1.089673
      8          1           0        2.962302    0.933440    3.160801
      9          6           0        2.748531    2.003121   -0.030679
     10          6           0        4.447688    0.532522    0.987042
     11          1           0        3.248497    1.887803   -0.982530
     12          6           0        0.741070    2.392277    3.684973
     13          1           0        4.833130    0.377223   -0.032205
     14          1           0        1.732318    3.429694   -2.021346
     15          1           0        0.933751    1.594297    4.419572
     16          6           0       -3.476620   -0.014611   -0.098053
     17          6           0       -3.866383    0.083432   -1.497240
     18          6           0       -3.359358   -1.260539    0.509415
     19          6           0       -2.961379   -1.370493    1.838110
     20          1           0       -3.569078   -2.153112   -0.056441
     21          6           0       -2.706784   -0.216560    2.571009
     22          6           0       -2.847619    1.040600    1.985819
     23          1           0       -2.408435   -0.268669    3.606942
     24          6           0       -3.213276    1.133680    0.645682
     25          6           0       -2.629819    2.249848    2.766361
     26          1           0       -3.303611    2.106383    0.181880
     27          6           0       -2.790681   -2.689602    2.432895
     28          1           0       -2.610220    3.191172    2.195750
     29          1           0       -3.931645    1.101681   -1.910066
     30          1           0       -2.187020   -2.731823    3.353135
     31          6           0        1.511761   -2.218565   -1.767748
     32          6           0        1.694540   -1.594818   -3.070604
     33          6           0        2.529811   -2.159948   -0.821089
     34          6           0        2.388727   -2.777947    0.417185
     35          1           0        3.440834   -1.631878   -1.047340
     36          6           0        1.217406   -3.468720    0.704860
     37          6           0        0.195561   -3.555406   -0.239374
     38          1           0        1.082495   -3.968616    1.651777
     39          6           0        0.344121   -2.917725   -1.468257
     40          6           0       -1.004802   -4.328523    0.044562
     41          1           0       -0.449179   -2.974761   -2.200720
     42          6           0        3.466100   -2.686935    1.394274
     43          1           0       -1.814399   -4.248875   -0.697287
     44          1           0        0.918469   -1.806295   -3.822763
     45          1           0        3.187640   -2.871445    2.443752
     46          6           0       -0.007192    6.498539   -1.879399
     47          6           0       -0.335520    5.014095   -2.181957
     48          7           0        1.446014    6.627486   -1.914586
     49          1           0       -0.415496    6.719364   -0.876987
     50          6           0       -0.629057    7.494198   -2.877779
     51          7           0        0.104209    4.263019   -1.045802
     52          1           0        0.227819    4.737923   -3.091015
     53          6           0       -1.830986    4.712933   -2.402839
     54          1           0       -1.713785    7.354282   -2.861791
     55          6           0       -0.110354    7.269288   -4.295434
     56          6           0       -0.354316    8.935899   -2.443984
     57          1           0       -2.190967    5.328627   -3.231960
     58          6           0       -2.654815    5.013595   -1.153451
     59          6           0       -1.998318    3.247914   -2.805303
     60          1           0        0.693573    9.190307   -2.581750
     61          1           0       -0.618473    9.083634   -1.398272
     62          1           0       -0.946895    9.622517   -3.044564
     63          1           0       -0.452774    8.066558   -4.951168
     64          1           0       -0.462880    6.322720   -4.696310
     65          1           0        0.975857    7.259456   -4.286270
     66          1           0       -1.647319    2.591508   -2.011376
     67          1           0       -1.431404    3.027093   -3.707221
     68          1           0       -3.046945    3.033781   -3.003466
     69          1           0       -2.224736    4.492482   -0.302532
     70          1           0       -3.683481    4.685499   -1.292989
     71          1           0       -2.665375    6.078697   -0.938085
     72          6           0       -5.827674   -1.599131   -3.775164
     73          6           0       -4.471183   -0.854002   -3.558823
     74          7           0       -6.129411   -2.596195   -2.763716
     75          1           0       -5.763092   -2.138966   -4.728743
     76          6           0       -7.035700   -0.644911   -3.888925
     77          7           0       -4.108444   -0.945409   -2.182176
     78          1           0       -4.580195    0.197503   -3.880155
     79          6           0       -3.335395   -1.462500   -4.415568
     80          1           0       -7.915339   -1.296166   -3.845375
     81          6           0       -7.046842    0.084473   -5.230812
     82          6           0       -7.138504    0.356990   -2.740103
     83          1           0       -3.677746   -1.449270   -5.457071
     84          6           0       -3.014479   -2.899987   -4.014858
     85          6           0       -2.081657   -0.595062   -4.311512
     86          1           0       -7.074440   -0.141725   -1.776142
     87          1           0       -8.093438    0.875846   -2.789755
     88          1           0       -6.349205    1.102903   -2.794558
     89          1           0       -6.174973    0.726725   -5.336343
     90          1           0       -7.936113    0.705503   -5.311913
     91          1           0       -7.049173   -0.626097   -6.054203
     92          1           0       -1.701921   -0.590757   -3.291099
     93          1           0       -2.295442    0.432314   -4.599790
     94          1           0       -1.305131   -0.979415   -4.969858
     95          1           0       -2.141956   -3.254608   -4.561438
     96          1           0       -3.843765   -3.565151   -4.242019
     97          1           0       -2.806261   -2.945088   -2.948378
     98          6           0        4.398055   -0.621709   -5.027597
     99          6           0        2.924694   -0.326923   -4.613279
    100          7           0        5.366820   -0.035825   -4.120917
    101          1           0        4.543727   -0.165593   -6.013354
    102          6           0        4.736778   -2.122943   -5.204926
    103          7           0        2.708954   -0.886805   -3.318421
    104          1           0        2.242257   -0.751349   -5.370729
    105          6           0        2.635557    1.193811   -4.537308
    106          1           0        5.686582   -2.132163   -5.752176
    107          6           0        3.698549   -2.854407   -6.053354
    108          6           0        4.972309   -2.867649   -3.892010
    109          1           0        3.223510    1.610347   -3.711720
    110          6           0        1.156424    1.422626   -4.229564
    111          6           0        2.994568    1.923614   -5.830552
    112          1           0        5.192758   -3.912021   -4.103955
    113          1           0        4.099427   -2.823666   -3.248262
    114          1           0        5.820596   -2.441950   -3.364445
    115          1           0        4.081646   -3.829778   -6.345096
    116          1           0        3.469266   -2.294400   -6.957956
    117          1           0        2.780378   -3.011142   -5.492184
    118          1           0        2.513132    1.445832   -6.681602
    119          1           0        4.066989    1.944467   -6.005724
    120          1           0        2.647116    2.953608   -5.776398
    121          1           0        0.535920    1.009096   -5.022438
    122          1           0        0.951539    2.488688   -4.158842
    123          1           0        0.871522    0.958013   -3.287741
    124          6           0       -0.768530    3.414790    5.145450
    125          6           0       -2.264526    3.436870    4.737692
    126          7           0       -0.039487    3.352476    3.915439
    127          1           0       -0.591496    2.512856    5.757313
    128          6           0       -0.317991    4.651102    5.949397
    129          7           0       -2.500450    2.219602    4.019529
    130          1           0       -2.409316    4.312435    4.081400
    131          6           0       -3.248439    3.525660    5.918531
    132          1           0       -0.922717    4.699111    6.860338
    133          6           0       -0.491160    5.944346    5.158169
    134          6           0        1.144251    4.479207    6.361607
    135          1           0       -3.047981    4.454842    6.461134
    136          6           0       -3.107328    2.342224    6.871056
    137          6           0       -4.674986    3.592286    5.372457
    138          1           0        1.783765    4.450011    5.482104
    139          1           0        1.282734    3.555729    6.920714
    140          1           0        1.457973    5.309699    6.990033
    141          1           0       -1.542378    6.175196    5.007298
    142          1           0       -0.010432    5.847048    4.188604
    143          1           0       -0.036078    6.773126    5.696224
    144          1           0       -4.913119    2.675114    4.838393
    145          1           0       -4.787359    4.429939    4.686775
    146          1           0       -5.386287    3.716376    6.185850
    147          1           0       -3.906469    2.359985    7.608917
    148          1           0       -2.157785    2.372601    7.399032
    149          1           0       -3.168113    1.414408    6.309230
    150          6           0        6.175281   -0.777994    1.829768
    151          6           0        5.675894   -2.236884    2.011666
    152          7           0        5.024962    0.059307    2.002909
    153          1           0        6.564944   -0.696718    0.800747
    154          6           0        7.273279   -0.350267    2.818973
    155          7           0        4.640628   -2.406621    1.039700
    156          1           0        5.278850   -2.340599    3.036596
    157          6           0        6.768226   -3.302805    1.793436
    158          1           0        8.134545   -1.011569    2.681356
    159          6           0        6.801918   -0.427837    4.268136
    160          6           0        7.709128    1.076742    2.485248
    161          1           0        7.577979   -3.106319    2.503270
    162          6           0        7.322515   -3.275031    0.371703
    163          6           0        6.190207   -4.683734    2.103715
    164          1           0        6.874536    1.761180    2.619951
    165          1           0        8.049023    1.145160    1.453700
    166          1           0        8.523164    1.386868    3.136479
    167          1           0        5.863596    0.109294    4.374098
    168          1           0        7.542024    0.022825    4.925762
    169          1           0        6.655299   -1.458724    4.580019
    170          1           0        6.964111   -5.443230    2.019524
    171          1           0        5.392626   -4.923918    1.403828
    172          1           0        5.786324   -4.716996    3.113849
    173          1           0        6.504780   -3.326609   -0.342072
    174          1           0        7.981889   -4.125728    0.213958
    175          1           0        7.892263   -2.368086    0.188331
    176          6           0       -3.044811   -5.013338    2.443501
    177          6           0       -2.307637   -5.785067    1.316346
    178          7           0       -3.297949   -3.713334    1.904189
    179          1           0       -2.372461   -4.957676    3.317847
    180          6           0       -4.374971   -5.657914    2.880897
    181          7           0       -1.095591   -5.063949    1.064097
    182          1           0       -2.965500   -5.768371    0.430490
    183          6           0       -1.963257   -7.245122    1.661049
    184          1           0       -4.157002   -6.664992    3.249947
    185          6           0       -5.375924   -5.744606    1.732381
    186          6           0       -4.968279   -4.849137    4.034788
    187          1           0       -2.897614   -7.779210    1.859914
    188          6           0       -1.052858   -7.344925    2.881292
    189          6           0       -1.291750   -7.895011    0.450886
    190          1           0       -5.872224   -5.327856    4.404173
    191          1           0       -5.220175   -3.845014    3.700439
    192          1           0       -4.260321   -4.772144    4.857952
    193          1           0       -6.343384   -6.072385    2.106531
    194          1           0       -5.047886   -6.453410    0.976743
    195          1           0       -5.490495   -4.767726    1.270950
    196          1           0       -0.351531   -7.393500    0.232423
    197          1           0       -1.930918   -7.828134   -0.427390
    198          1           0       -1.088889   -8.945057    0.648925
    199          1           0       -1.572283   -7.040120    3.786034
    200          1           0       -0.185863   -6.705751    2.741013
    201          1           0       -0.716253   -8.370991    3.012577
    202          1           0        5.120748   -0.303318   -3.173830
    203          1           0        5.338448    0.975975   -4.174070
    204          1           0        1.719018    7.547137   -1.587877
    205          1           0        1.866112    5.949154   -1.287359
    206          1           0       -6.214426   -2.148564   -1.856768
    207          1           0       -5.361841   -3.252842   -2.685206
 ---------------------------------------------------------------------

 SCF Done:  E(RPBE1PBE) =  -3584.37446363     a.u. after    6 cycles
 SCF Done:  E(RPBE1PBE) =  -3584.37450070     A.U. after    9 cycles

 The electronic state is 1-A.
 Alpha  occ. eigenvalues --  -14.37783 -14.37759 -14.37576 -14.37532 -14.37529
 Alpha  occ. eigenvalues --  -14.37462 -14.37437 -14.37416 -14.37399 -14.35758
 Alpha  occ. eigenvalues --  -14.35493 -14.35176 -10.26751 -10.26600 -10.26599
 Alpha  occ. eigenvalues --  -10.26542 -10.26531 -10.26516 -10.26455 -10.26436
 Alpha  occ. eigenvalues --  -10.26414 -10.24971 -10.24970 -10.24968 -10.24818
 Alpha  occ. eigenvalues --  -10.24796 -10.24792 -10.24726 -10.24634 -10.24625
 Alpha  occ. eigenvalues --  -10.24515 -10.24352 -10.24346 -10.24330 -10.24325
 Alpha  occ. eigenvalues --  -10.24321 -10.24318 -10.24294 -10.24286 -10.24272
 Alpha  occ. eigenvalues --  -10.24239 -10.24222 -10.24213 -10.24189 -10.24187
 Alpha  occ. eigenvalues --  -10.23820 -10.23803 -10.23762 -10.23454 -10.23369
 Alpha  occ. eigenvalues --  -10.23364 -10.22717 -10.22594 -10.22571 -10.22532
 Alpha  occ. eigenvalues --  -10.22526 -10.22393 -10.22363 -10.22334 -10.22319
 Alpha  occ. eigenvalues --  -10.22144 -10.21952 -10.21728 -10.20700 -10.20424
 Alpha  occ. eigenvalues --  -10.20405 -10.20348 -10.20278 -10.20269 -10.20268
 Alpha  occ. eigenvalues --  -10.20249 -10.20224 -10.20186 -10.20185 -10.20131
 Alpha  occ. eigenvalues --  -10.20112 -10.20087 -10.20087 -10.19976 -10.19961
 Alpha  occ. eigenvalues --  -10.19915 -10.19883 -10.19876 -10.19862 -10.19862
 Alpha  occ. eigenvalues --  -10.19727 -10.19307  -0.97954  -0.97861  -0.97823
 Alpha  occ. eigenvalues --   -0.97088  -0.96857  -0.96822  -0.95142  -0.95095
 Alpha  occ. eigenvalues --   -0.94846  -0.91372  -0.91316  -0.91096  -0.90099
 Alpha  occ. eigenvalues --   -0.89726  -0.89674  -0.84726  -0.84705  -0.84212
 Alpha  occ. eigenvalues --   -0.83388  -0.83098  -0.82893  -0.82285  -0.81817
 Alpha  occ. eigenvalues --   -0.81776  -0.81230  -0.80907  -0.80893  -0.80069
 Alpha  occ. eigenvalues --   -0.80044  -0.79997  -0.79553  -0.79510  -0.79311
 Alpha  occ. eigenvalues --   -0.74823  -0.74293  -0.74273  -0.73348  -0.73085
 Alpha  occ. eigenvalues --   -0.72909  -0.70673  -0.70470  -0.70378  -0.70373
 Alpha  occ. eigenvalues --   -0.70349  -0.70338  -0.70330  -0.70087  -0.70062
 Alpha  occ. eigenvalues --   -0.70037  -0.70019  -0.69828  -0.69220  -0.69154
 Alpha  occ. eigenvalues --   -0.69141  -0.67644  -0.67568  -0.67444  -0.66175
 Alpha  occ. eigenvalues --   -0.66111  -0.65420  -0.64243  -0.64190  -0.64026
 Alpha  occ. eigenvalues --   -0.62783  -0.62274  -0.62136  -0.59886  -0.59826
 Alpha  occ. eigenvalues --   -0.59563  -0.58991  -0.58591  -0.58474  -0.57894
 Alpha  occ. eigenvalues --   -0.57616  -0.57546  -0.57185  -0.56495  -0.56379
 Alpha  occ. eigenvalues --   -0.55957  -0.55608  -0.55238  -0.54962  -0.54866
 Alpha  occ. eigenvalues --   -0.54683  -0.53608  -0.53559  -0.53336  -0.52292
 Alpha  occ. eigenvalues --   -0.52221  -0.51981  -0.51826  -0.51429  -0.51205
 Alpha  occ. eigenvalues --   -0.51037  -0.50581  -0.50400  -0.50106  -0.49962
 Alpha  occ. eigenvalues --   -0.49917  -0.49148  -0.49060  -0.48942  -0.48774
 Alpha  occ. eigenvalues --   -0.48640  -0.48593  -0.48243  -0.48087  -0.47730
 Alpha  occ. eigenvalues --   -0.47398  -0.47319  -0.47275  -0.46511  -0.46491
 Alpha  occ. eigenvalues --   -0.46319  -0.46197  -0.45491  -0.45376  -0.45226
 Alpha  occ. eigenvalues --   -0.44923  -0.44865  -0.44833  -0.44775  -0.44726
 Alpha  occ. eigenvalues --   -0.44716  -0.44433  -0.44257  -0.44063  -0.43868
 Alpha  occ. eigenvalues --   -0.43814  -0.43553  -0.43394  -0.43367  -0.43144
 Alpha  occ. eigenvalues --   -0.42969  -0.42964  -0.42837  -0.42792  -0.42613
 Alpha  occ. eigenvalues --   -0.42434  -0.42367  -0.42295  -0.42124  -0.41960
 Alpha  occ. eigenvalues --   -0.41872  -0.41758  -0.41651  -0.41316  -0.40502
 Alpha  occ. eigenvalues --   -0.40377  -0.40281  -0.40246  -0.40182  -0.39945
 Alpha  occ. eigenvalues --   -0.39918  -0.39794  -0.39772  -0.39656  -0.39581
 Alpha  occ. eigenvalues --   -0.39161  -0.39053  -0.39042  -0.39003  -0.38978
 Alpha  occ. eigenvalues --   -0.38956  -0.38839  -0.38746  -0.38672  -0.38410
 Alpha  occ. eigenvalues --   -0.38330  -0.38169  -0.38127  -0.38039  -0.37958
 Alpha  occ. eigenvalues --   -0.37640  -0.37575  -0.37457  -0.37238  -0.37008
 Alpha  occ. eigenvalues --   -0.36937  -0.36822  -0.36406  -0.36378  -0.36170
 Alpha  occ. eigenvalues --   -0.35669  -0.35387  -0.35325  -0.34906  -0.34889
 Alpha  occ. eigenvalues --   -0.34838  -0.34810  -0.34772  -0.34686  -0.34654
 Alpha  occ. eigenvalues --   -0.34635  -0.34612  -0.34543  -0.34455  -0.34414
 Alpha  occ. eigenvalues --   -0.34349  -0.34285  -0.34157  -0.34081  -0.34030
 Alpha  occ. eigenvalues --   -0.33991  -0.33846  -0.33770  -0.33580  -0.33022
 Alpha  occ. eigenvalues --   -0.32987  -0.32930  -0.32707  -0.32573  -0.32479
 Alpha  occ. eigenvalues --   -0.32444  -0.32176  -0.31946  -0.31927  -0.31756
 Alpha  occ. eigenvalues --   -0.31590  -0.30005  -0.29903  -0.29325  -0.27275
 Alpha  occ. eigenvalues --   -0.27149  -0.27131  -0.27037  -0.26959  -0.26804
 Alpha  occ. eigenvalues --   -0.26683  -0.26632  -0.26566  -0.26187  -0.26070
 Alpha  occ. eigenvalues --   -0.25967  -0.25602  -0.25553  -0.25466  -0.25002
 Alpha  occ. eigenvalues --   -0.24485  -0.24455
 Alpha virt. eigenvalues --   -0.07024  -0.06378  -0.06277  -0.05399  -0.05369
 Alpha virt. eigenvalues --   -0.05048  -0.02056  -0.02003  -0.01570   0.02760
 Alpha virt. eigenvalues --    0.02942   0.03343   0.03682   0.03846   0.03979

 Mulliken charges:
               1
     1  C    0.423315
     2  C   -0.282225
     3  C   -0.372610
     4  C    0.413927
     5  H    0.135377
     6  C   -0.377559
     7  C    0.369360
     8  H    0.134555
     9  C   -0.355314
    10  C   -0.213301
    11  H    0.140850
    12  C   -0.190684
    13  H    0.103710
    14  H    0.116344
    15  H    0.091191
    16  C    0.427221
    17  C   -0.267353
    18  C   -0.375810
    19  C    0.417902
    20  H    0.136514
    21  C   -0.380253
    22  C    0.359716
    23  H    0.131986
    24  C   -0.359549
    25  C   -0.200520
    26  H    0.148960
    27  C   -0.194175
    28  H    0.105786
    29  H    0.097715
    30  H    0.090757
    31  C    0.438918
    32  C   -0.283987
    33  C   -0.373720
    34  C    0.410416
    35  H    0.151633
    36  C   -0.381457
    37  C    0.363382
    38  H    0.134052
    39  C   -0.344136
    40  C   -0.197663
    41  H    0.129346
    42  C   -0.189479
    43  H    0.105023
    44  H    0.108907
    45  H    0.091708
    46  C    0.069285
    47  C    0.087032
    48  N   -0.578374
    49  H    0.112337
    50  C   -0.052147
    51  N   -0.245384
    52  H    0.086628
    53  C    0.043549
    54  H    0.089787
    55  C   -0.401068
    56  C   -0.425858
    57  H    0.092195
    58  C   -0.419766
    59  C   -0.489019
    60  H    0.124890
    61  H    0.129431
    62  H    0.132057
    63  H    0.125944
    64  H    0.126273
    65  H    0.120969
    66  H    0.140889
    67  H    0.131304
    68  H    0.132300
    69  H    0.122363
    70  H    0.122149
    71  H    0.135044
    72  C    0.037854
    73  C    0.035762
    74  N   -0.511993
    75  H    0.094677
    76  C   -0.027044
    77  N   -0.229621
    78  H    0.074345
    79  C    0.077336
    80  H    0.073209
    81  C   -0.393194
    82  C   -0.391615
    83  H    0.084544
    84  C   -0.454675
    85  C   -0.488084
    86  H    0.122406
    87  H    0.137292
    88  H    0.110074
    89  H    0.116023
    90  H    0.128759
    91  H    0.126407
    92  H    0.138352
    93  H    0.129235
    94  H    0.132088
    95  H    0.126001
    96  H    0.147069
    97  H    0.128815
    98  C    0.102458
    99  C   -0.043084
   100  N   -0.559857
   101  H    0.113730
   102  C    0.061391
   103  N   -0.218722
   104  H    0.081773
   105  C   -0.005537
   106  H    0.069096
   107  C   -0.420321
   108  C   -0.451916
   109  H    0.073352
   110  C   -0.470853
   111  C   -0.403386
   112  H    0.119704
   113  H    0.130981
   114  H    0.129399
   115  H    0.131374
   116  H    0.126730
   117  H    0.123109
   118  H    0.126874
   119  H    0.137466
   120  H    0.131980
   121  H    0.123362
   122  H    0.132044
   123  H    0.149352
   124  C    0.085692
   125  C    0.110198
   126  N   -0.251996
   127  H    0.090046
   128  C   -0.022225
   129  N   -0.255852
   130  H    0.086455
   131  C   -0.011172
   132  H    0.092181
   133  C   -0.426110
   134  C   -0.397575
   135  H    0.090938
   136  C   -0.426926
   137  C   -0.400884
   138  H    0.126621
   139  H    0.120519
   140  H    0.130731
   141  H    0.129306
   142  H    0.132284
   143  H    0.125887
   144  H    0.127469
   145  H    0.120340
   146  H    0.129188
   147  H    0.125189
   148  H    0.128512
   149  H    0.132571
   150  C    0.105213
   151  C    0.085070
   152  N   -0.256532
   153  H    0.087408
   154  C   -0.003801
   155  N   -0.255752
   156  H    0.089975
   157  C   -0.016782
   158  H    0.089388
   159  C   -0.427992
   160  C   -0.403753
   161  H    0.090282
   162  C   -0.433207
   163  C   -0.397479
   164  H    0.126970
   165  H    0.120895
   166  H    0.128894
   167  H    0.132545
   168  H    0.124920
   169  H    0.128213
   170  H    0.130095
   171  H    0.126221
   172  H    0.120411
   173  H    0.139499
   174  H    0.125199
   175  H    0.128158
   176  C    0.088999
   177  C    0.097823
   178  N   -0.250587
   179  H    0.090458
   180  C   -0.023679
   181  N   -0.255278
   182  H    0.088141
   183  C   -0.008428
   184  H    0.092467
   185  C   -0.426704
   186  C   -0.396950
   187  H    0.091351
   188  C   -0.427211
   189  C   -0.402087
   190  H    0.130346
   191  H    0.126404
   192  H    0.120449
   193  H    0.126147
   194  H    0.129382
   195  H    0.133205
   196  H    0.127772
   197  H    0.120456
   198  H    0.129038
   199  H    0.128528
   200  H    0.133004
   201  H    0.125121
   202  H    0.238557
   203  H    0.226563
   204  H    0.229941
   205  H    0.227420
   206  H    0.224647
   207  H    0.223150
 Sum of Mulliken charges =  -0.00000

 Dipole moment (field-independent basis, Debye):
    X=             -0.5607    Y=              2.4784    Z=             -0.2181  Tot=              2.5503
 Quadrupole moment (field-independent basis, Debye-Ang):
   XX=           -570.9695   YY=           -532.5729   ZZ=           -519.7064
   XY=            -11.1414   XZ=             10.7029   YZ=             -8.7963

 Normal termination of Gaussian 16 at Mon Oct 18 16:55:28 2021.
