 Gaussian 16, Revision C.01,
 Gaussian 16:  ES64L-G16RevC.01  3-Jul-2019

 ----------------------------------------------------------------------
 #P PBE1PBE/Def2TZVP SP SCF=(YQC,MaxCycle=900) int=(Grid=Superfinegrid)
  EmpiricalDispersion=GD3
 ----------------------------------------------------------------------

 -------------------------
 _3_alde1_5_ami3_2_opt_gas
 -------------------------
 Symbolic Z-matrix:
 Charge =  0 Multiplicity = 1

                         Standard orientation:
 ---------------------------------------------------------------------
 Center     Atomic      Atomic             Coordinates (Angstroms)
 Number     Number       Type             X           Y           Z
 ---------------------------------------------------------------------
      1          6           0        0.727597   -2.972786   -0.649754
      2          6           0       -0.118204   -3.095539   -1.825646
      3          6           0        0.197633   -2.957553    0.639250
      4          6           0        1.023971   -2.757391    1.740375
      5          1           0       -0.865508   -3.099684    0.759807
      6          6           0        2.384113   -2.516131    1.543852
      7          6           0        2.926141   -2.528564    0.264287
      8          1           0        2.999671   -2.327873    2.410215
      9          6           0        2.094858   -2.789117   -0.823574
     10          6           0        4.321674   -2.176631    0.038197
     11          1           0        2.536366   -2.807412   -1.807471
     12          6           0        0.460092   -2.772277    3.081381
     13          1           0        4.813524   -1.639378    0.864563
     14          1           0        0.424526   -3.186654   -2.778871
     15          1           0       -0.622369   -2.961729    3.136298
     16          6           0       -2.734780    0.659471    1.291395
     17          6           0       -3.786133   -0.176463    0.724408
     18          6           0       -2.458365    1.921515    0.766909
     19          6           0       -1.462329    2.719706    1.318150
     20          1           0       -3.040730    2.268610   -0.073796
     21          6           0       -0.714228    2.235661    2.390896
     22          6           0       -0.979855    0.981232    2.926640
     23          1           0        0.063982    2.863412    2.796960
     24          6           0       -1.997788    0.202766    2.377667
     25          6           0       -0.180574    0.464816    4.029152
     26          1           0       -2.191805   -0.765726    2.812167
     27          6           0       -1.191814    4.030464    0.748764
     28          1           0        0.785691    0.966387    4.194869
     29          1           0       -3.933314   -1.135478    1.233570
     30          1           0       -1.748889    4.267963   -0.171205
     31          6           0        0.441693    0.773621   -2.482727
     32          6           0       -0.881529    0.174873   -2.602780
     33          6           0        1.568209    0.055490   -2.879039
     34          6           0        2.847452    0.522951   -2.598047
     35          1           0        1.420553   -0.894288   -3.368455
     36          6           0        2.999373    1.747594   -1.949830
     37          6           0        1.885832    2.508620   -1.614479
     38          1           0        3.997642    2.088024   -1.720808
     39          6           0        0.609205    2.009913   -1.869766
     40          6           0        2.037558    3.775548   -0.908804
     41          1           0       -0.243333    2.594472   -1.560797
     42          6           0        3.991098   -0.327241   -2.886773
     43          1           0        2.946989    3.871297   -0.293966
     44          1           0        3.764124   -1.236775   -3.463578
     45          6           0       -2.369833   -1.474155   -3.313205
     46          6           0       -2.081142   -2.969937   -3.032422
     47          7           0       -1.106245   -0.807386   -3.360620
     48          7           0       -1.379058   -3.039487   -1.786445
     49          6           0       -6.785661    0.383377   -0.833480
     50          6           0       -5.527622   -0.531100   -0.862943
     51          7           0       -6.555781    1.706893   -1.375172
     52          7           0       -4.452526    0.206716   -0.276130
     53          6           0        0.515542   -2.535040    5.389968
     54          6           0        0.285727   -1.045827    5.743471
     55          7           0        1.160861   -2.584986    4.114100
     56          7           0       -0.568878   -0.503347    4.736514
     57          6           0        6.216774   -1.897398   -1.291629
     58          6           0        6.152567   -1.098473   -2.617603
     59          7           0        4.907821   -2.417787   -1.051470
     60          7           0        5.152586   -0.088190   -2.453868
     61          6           0       -0.080415    6.047813    0.542838
     62          6           0        1.285004    5.848425   -0.153806
     63          7           0       -0.370956    4.843110    1.256623
     64          7           0        1.167334    4.683315   -0.974167
     65          1           0       -5.788902    2.143501   -0.874777
     66          1           0       -6.280689    1.638261   -2.350501
     67          1           0       -1.654381    0.598850   -1.942667
     68          6           0       -5.862508   -1.899835   -0.265577
     69          6           0       -3.100209   -1.349532   -4.651571
     70          6           0        1.604112    7.092858   -0.983218
     71          6           0        7.244116   -3.020485   -1.439060
     72          6           0       -0.382769   -0.949274    7.115750
     73          1           0        1.266568   -0.536768    5.768800
     74          6           0        0.481796   -1.614071    8.181165
     75          1           0       -0.543012    0.103629    7.357801
     76          1           0       -1.358957   -1.434244    7.062783
     77          6           0        0.741541   -3.075708    7.828871
     78          1           0       -0.015771   -1.546501    9.150757
     79          1           0        1.434713   -1.084787    8.255487
     80          6           0        1.392556   -3.188520    6.454714
     81          1           0       -0.205283   -3.620873    7.826262
     82          1           0        1.388259   -3.531044    8.581375
     83          1           0        2.365721   -2.694908    6.454518
     84          1           0        1.548130   -4.236639    6.191793
     85          1           0       -0.476978   -3.018240    5.361698
     86          1           0       -3.003258   -1.078917   -2.499712
     87          6           0       -4.400974   -2.145789   -4.632021
     88          1           0       -2.444092   -1.717046   -5.442613
     89          1           0       -3.303517   -0.294238   -4.847545
     90          6           0       -4.138924   -3.612852   -4.303349
     91          1           0       -4.894777   -2.064012   -5.602701
     92          1           0       -5.072215   -1.722542   -3.880655
     93          6           0       -3.392708   -3.746013   -2.979840
     94          1           0       -3.540885   -4.059583   -5.101048
     95          1           0       -5.084517   -4.156728   -4.250352
     96          1           0       -3.179235   -4.795728   -2.768515
     97          1           0       -3.999222   -3.355343   -2.162312
     98          1           0       -1.457028   -3.339429   -3.865716
     99          1           0        2.063234    5.719649    0.619860
    100          6           0       -0.001324    7.252619    1.475416
    101          1           0       -0.827669    6.233526   -0.249708
    102          6           0        0.349400    8.505212    0.678034
    103          1           0        0.756007    7.060537    2.237149
    104          1           0       -0.961065    7.380030    1.980054
    105          6           0        1.662426    8.320356   -0.078949
    106          1           0        0.427926    9.360967    1.351338
    107          1           0       -0.451752    8.712935   -0.035261
    108          1           0        2.478322    8.200251    0.637833
    109          1           0        1.872325    9.207892   -0.679340
    110          1           0        0.833473    7.217253   -1.745896
    111          1           0        2.560605    6.948572   -1.490749
    112          1           0        6.535183   -1.213061   -0.484445
    113          6           0        7.520905   -0.492245   -2.911487
    114          1           0        5.875496   -1.812948   -3.413226
    115          6           0        8.568689   -1.594607   -3.030639
    116          1           0        7.781490    0.195450   -2.105363
    117          1           0        7.466356    0.081671   -3.838543
    118          6           0        8.617096   -2.437781   -1.759063
    119          1           0        9.548979   -1.152988   -3.219866
    120          1           0        8.321043   -2.236129   -3.879825
    121          1           0        9.339789   -3.247602   -1.877607
    122          1           0        8.946538   -1.814227   -0.924617
    123          1           0        6.920443   -3.692390   -2.235702
    124          1           0        7.281485   -3.593205   -0.509691
    125          1           0       -5.250454   -0.655554   -1.920779
    126          6           0       -7.923181   -0.292748   -1.597894
    127          1           0       -7.079053    0.515538    0.215524
    128          6           0       -8.239513   -1.668649   -1.022815
    129          1           0       -7.635150   -0.391131   -2.648064
    130          1           0       -8.801143    0.352707   -1.552792
    131          6           0       -6.997916   -2.554584   -1.045221
    132          1           0       -9.040379   -2.134774   -1.600153
    133          1           0       -8.588318   -1.559564    0.006547
    134          1           0       -6.685299   -2.718037   -2.079784
    135          1           0       -7.227122   -3.529935   -0.610137
    136          1           0       -6.166053   -1.773125    0.777081
    137          1           0       -4.975864   -2.539626   -0.288298
 ---------------------------------------------------------------------

 SCF Done:  E(RPBE1PBE) =  -2759.52453521     a.u. after    7 cycles
 SCF Done:  E(RPBE1PBE) =  -2759.52454667     A.U. after    8 cycles

 The electronic state is 1-A.
 Alpha  occ. eigenvalues --  -14.37704 -14.37615 -14.37481 -14.37454 -14.37311
 Alpha  occ. eigenvalues --  -14.37246 -14.37202 -14.37168 -14.37059 -14.34980
 Alpha  occ. eigenvalues --  -10.26695 -10.26573 -10.26472 -10.26396 -10.26233
 Alpha  occ. eigenvalues --  -10.26191 -10.26182 -10.26092 -10.26033 -10.25205
 Alpha  occ. eigenvalues --  -10.25122 -10.25093 -10.24976 -10.24935 -10.24929
 Alpha  occ. eigenvalues --  -10.24844 -10.24827 -10.24815 -10.24585 -10.24150
 Alpha  occ. eigenvalues --  -10.24142 -10.24123 -10.23938 -10.23913 -10.23876
 Alpha  occ. eigenvalues --  -10.23875 -10.23770 -10.23762 -10.23694 -10.23690
 Alpha  occ. eigenvalues --  -10.23627 -10.23510 -10.23460 -10.23435 -10.23404
 Alpha  occ. eigenvalues --  -10.23347 -10.23341 -10.21866 -10.21853 -10.21826
 Alpha  occ. eigenvalues --  -10.21748 -10.21735 -10.21716 -10.21700 -10.21696
 Alpha  occ. eigenvalues --  -10.21683 -10.21641 -10.21638 -10.21582 -10.21555
 Alpha  occ. eigenvalues --  -10.21540 -10.21535 -10.21442 -10.21374 -10.21332
 Alpha  occ. eigenvalues --  -10.21294 -10.21228  -0.97679  -0.97571  -0.97530
 Alpha  occ. eigenvalues --   -0.97414  -0.96541  -0.94921  -0.94884  -0.94577
 Alpha  occ. eigenvalues --   -0.94420  -0.91099  -0.90104  -0.89530  -0.89309
 Alpha  occ. eigenvalues --   -0.85867  -0.85746  -0.85691  -0.85115  -0.84419
 Alpha  occ. eigenvalues --   -0.80841  -0.80806  -0.80705  -0.80673  -0.80438
 Alpha  occ. eigenvalues --   -0.80379  -0.76888  -0.76841  -0.76620  -0.76270
 Alpha  occ. eigenvalues --   -0.76224  -0.75990  -0.75399  -0.75353  -0.75117
 Alpha  occ. eigenvalues --   -0.74201  -0.68444  -0.68340  -0.68253  -0.67938
 Alpha  occ. eigenvalues --   -0.67848  -0.66966  -0.66663  -0.66549  -0.65628
 Alpha  occ. eigenvalues --   -0.63332  -0.62887  -0.62784  -0.62644  -0.62273
 Alpha  occ. eigenvalues --   -0.62190  -0.61808  -0.61247  -0.60641  -0.60403
 Alpha  occ. eigenvalues --   -0.59048  -0.58323  -0.58310  -0.58191  -0.58109
 Alpha  occ. eigenvalues --   -0.56199  -0.56140  -0.55972  -0.55841  -0.55584
 Alpha  occ. eigenvalues --   -0.55240  -0.53878  -0.53378  -0.52956  -0.52526
 Alpha  occ. eigenvalues --   -0.52412  -0.52330  -0.51305  -0.51018  -0.50829
 Alpha  occ. eigenvalues --   -0.50327  -0.49643  -0.49538  -0.49495  -0.49037
 Alpha  occ. eigenvalues --   -0.48939  -0.48753  -0.48351  -0.47587  -0.47465
 Alpha  occ. eigenvalues --   -0.47421  -0.47278  -0.47229  -0.47158  -0.46736
 Alpha  occ. eigenvalues --   -0.46352  -0.45985  -0.45647  -0.45530  -0.44885
 Alpha  occ. eigenvalues --   -0.44824  -0.44583  -0.44502  -0.44224  -0.44133
 Alpha  occ. eigenvalues --   -0.43900  -0.43573  -0.43500  -0.43431  -0.43324
 Alpha  occ. eigenvalues --   -0.43106  -0.42338  -0.42310  -0.42174  -0.42094
 Alpha  occ. eigenvalues --   -0.42012  -0.41538  -0.41349  -0.41109  -0.40608
 Alpha  occ. eigenvalues --   -0.40091  -0.40075  -0.39985  -0.39930  -0.39618
 Alpha  occ. eigenvalues --   -0.38395  -0.38298  -0.38208  -0.38009  -0.37670
 Alpha  occ. eigenvalues --   -0.37390  -0.37252  -0.36803  -0.36379  -0.36358
 Alpha  occ. eigenvalues --   -0.36173  -0.36084  -0.36021  -0.35977  -0.35881
 Alpha  occ. eigenvalues --   -0.35766  -0.35676  -0.35518  -0.35504  -0.35390
 Alpha  occ. eigenvalues --   -0.35345  -0.35203  -0.34577  -0.34131  -0.34096
 Alpha  occ. eigenvalues --   -0.34039  -0.33856  -0.33688  -0.33592  -0.33409
 Alpha  occ. eigenvalues --   -0.33024  -0.32435  -0.32319  -0.32118  -0.31991
 Alpha  occ. eigenvalues --   -0.31875  -0.31597  -0.29840  -0.29704  -0.28982
 Alpha  occ. eigenvalues --   -0.27412  -0.27250  -0.27116  -0.27046  -0.26754
 Alpha  occ. eigenvalues --   -0.26661  -0.26494  -0.26441  -0.26080  -0.25840
 Alpha  occ. eigenvalues --   -0.25513  -0.25444  -0.25224  -0.25053  -0.24885
 Alpha  occ. eigenvalues --   -0.24074
 Alpha virt. eigenvalues --   -0.06008  -0.05987  -0.05892  -0.05279  -0.05065
 Alpha virt. eigenvalues --   -0.04789  -0.02063  -0.01854  -0.00781   0.02966
 Alpha virt. eigenvalues --    0.03565   0.04119   0.04323   0.04587   0.04781

 Mulliken charges:
               1
     1  C    0.360445
     2  C   -0.185743
     3  C   -0.352265
     4  C    0.377922
     5  H    0.119590
     6  C   -0.370451
     7  C    0.334176
     8  H    0.121216
     9  C   -0.274359
    10  C   -0.157654
    11  H    0.119755
    12  C   -0.162819
    13  H    0.068148
    14  H    0.083768
    15  H    0.075559
    16  C    0.374715
    17  C   -0.146529
    18  C   -0.362874
    19  C    0.377620
    20  H    0.128275
    21  C   -0.353621
    22  C    0.372156
    23  H    0.118022
    24  C   -0.353846
    25  C   -0.166420
    26  H    0.113080
    27  C   -0.183093
    28  H    0.071608
    29  H    0.093896
    30  H    0.076606
    31  C    0.316678
    32  C   -0.158259
    33  C   -0.285597
    34  C    0.377184
    35  H    0.118425
    36  C   -0.381278
    37  C    0.374212
    38  H    0.119487
    39  C   -0.314028
    40  C   -0.167909
    41  H    0.112024
    42  C   -0.173354
    43  H    0.070073
    44  H    0.082124
    45  C    0.021320
    46  C    0.079424
    47  N   -0.199857
    48  N   -0.206398
    49  C    0.004085
    50  C   -0.021669
    51  N   -0.476888
    52  N   -0.193839
    53  C    0.031473
    54  C    0.036111
    55  N   -0.182691
    56  N   -0.185724
    57  C    0.026351
    58  C    0.049816
    59  N   -0.187135
    60  N   -0.186983
    61  C    0.067549
    62  C    0.024786
    63  N   -0.179946
    64  N   -0.187010
    65  H    0.220121
    66  H    0.201944
    67  H    0.087725
    68  C   -0.253026
    69  C   -0.185658
    70  C   -0.196450
    71  C   -0.195434
    72  C   -0.191519
    73  H    0.043917
    74  C   -0.171225
    75  H    0.108089
    76  H    0.104439
    77  C   -0.180691
    78  H    0.109084
    79  H    0.087290
    80  C   -0.165802
    81  H    0.087806
    82  H    0.108646
    83  H    0.099613
    84  H    0.106619
    85  H    0.050686
    86  H    0.049816
    87  C   -0.175914
    88  H    0.105541
    89  H    0.107019
    90  C   -0.187898
    91  H    0.106714
    92  H    0.088147
    93  C   -0.148920
    94  H    0.092473
    95  H    0.108598
    96  H    0.100993
    97  H    0.077320
    98  H    0.053522
    99  H    0.046354
   100  C   -0.170844
   101  H    0.046015
   102  C   -0.184643
   103  H    0.099762
   104  H    0.106945
   105  C   -0.171043
   106  H    0.109030
   107  H    0.089227
   108  H    0.087657
   109  H    0.109246
   110  H    0.106307
   111  H    0.107967
   112  H    0.045187
   113  C   -0.169593
   114  H    0.049748
   115  C   -0.185477
   116  H    0.099331
   117  H    0.106182
   118  C   -0.169975
   119  H    0.108450
   120  H    0.088694
   121  H    0.108903
   122  H    0.087483
   123  H    0.104950
   124  H    0.107940
   125  H    0.039060
   126  C   -0.180733
   127  H    0.081748
   128  C   -0.182775
   129  H    0.084793
   130  H    0.118880
   131  C   -0.164454
   132  H    0.108410
   133  H    0.092381
   134  H    0.094490
   135  H    0.107716
   136  H    0.109550
   137  H    0.134100
 Sum of Mulliken charges =   0.00000

 Dipole moment (field-independent basis, Debye):
    X=              1.1454    Y=             -0.8222    Z=              0.7811  Tot=              1.6118
 Quadrupole moment (field-independent basis, Debye-Ang):
   XX=           -389.1777   YY=           -391.9664   ZZ=           -388.1481
   XY=             15.5339   XZ=              5.4960   YZ=              4.6428

 Normal termination of Gaussian 16 at Mon Oct 18 16:59:51 2021.
