 Gaussian 16, Revision C.01,
 Gaussian 16:  ES64L-G16RevC.01  3-Jul-2019

 ----------------------------------------------------------------------
 #P PBE1PBE/Def2TZVP SP SCF=(YQC,MaxCycle=900) int=(Grid=Superfinegrid)
  EmpiricalDispersion=GD3 SCRF=(PCM,Solvent=Chloroform)
 ----------------------------------------------------------------------

 -------------------------
 _3_alde1_6_ami4_1_opt_cfm
 -------------------------
 Symbolic Z-matrix:
 Charge =  0 Multiplicity = 1

                         Standard orientation:
 ---------------------------------------------------------------------
 Center     Atomic      Atomic             Coordinates (Angstroms)
 Number     Number       Type             X           Y           Z
 ---------------------------------------------------------------------
      1          6           0        3.132171   -1.426707    0.124162
      2          6           0        3.625467   -1.639482    1.534442
      3          6           0        2.343948   -2.395943   -0.484875
      4          6           0        1.911024   -2.237381   -1.800179
      5          1           0        2.084222   -3.287431    0.068679
      6          6           0        2.251850   -1.078837   -2.495289
      7          6           0        3.043535   -0.108129   -1.896840
      8          1           0        1.903756   -0.969786   -3.510729
      9          6           0        3.486521   -0.293885   -0.586509
     10          6           0        3.392488    1.105726   -2.621140
     11          1           0        4.100416    0.461471   -0.125720
     12          6           0        1.128252   -3.280029   -2.446898
     13          1           0        2.749172    1.352069   -3.480616
     14          1           0        0.803092   -4.108558   -1.797601
     15          6           0       -2.606347   -1.789614    0.569552
     16          6           0       -2.151239   -2.574723    1.772665
     17          6           0       -3.270208   -0.579117    0.695238
     18          6           0       -3.664751    0.132839   -0.437627
     19          1           0       -3.484081   -0.179032    1.676289
     20          6           0       -3.343078   -0.355701   -1.701670
     21          6           0       -2.666777   -1.561700   -1.835572
     22          1           0       -3.640391    0.218993   -2.565419
     23          6           0       -2.318938   -2.280483   -0.692924
     24          6           0       -2.260799   -2.062007   -3.141455
     25          1           0       -1.821407   -3.229304   -0.811666
     26          6           0       -4.392123    1.381717   -0.281712
     27          1           0       -2.277615   -1.333877   -3.967044
     28          1           0       -4.524543    1.724183    0.755547
     29          6           0       -0.101212    2.402689    1.793514
     30          6           0       -0.279768    1.743093    3.135947
     31          6           0        1.183421    2.579341    1.294139
     32          6           0        1.389059    3.219202    0.074224
     33          1           0        2.029804    2.217816    1.859863
     34          6           0        0.290077    3.652984   -0.664126
     35          6           0       -0.997189    3.474758   -0.176037
     36          1           0        0.467503    4.143514   -1.608991
     37          6           0       -1.184617    2.853009    1.060024
     38          6           0       -2.146854    3.902566   -0.960471
     39          1           0       -2.187147    2.718045    1.429697
     40          6           0        2.743313    3.437009   -0.408151
     41          1           0       -1.967417    4.027937   -2.040095
     42          1           0        3.541101    3.001181    0.210468
     43          6           0        3.587540   -0.292985    3.471498
     44          6           0        3.000631   -1.689399    3.737535
     45          7           0        4.168560   -0.402493    2.134533
     46          1           0        2.766355    0.431640    3.436952
     47          7           0        2.572380   -2.123710    2.417006
     48          1           0        3.776849   -2.375704    4.093570
     49          6           0       -0.315307   -3.696182    2.594672
     50          6           0       -1.214048   -4.746732    1.920302
     51          7           0       -0.710112   -2.444154    1.962424
     52          1           0        0.751948   -3.871060    2.480662
     53          7           0       -2.433063   -4.012541    1.594785
     54          1           0       -1.408552   -5.612959    2.552598
     55          6           0       -0.412450   -0.176329    4.357124
     56          6           0       -1.774186    0.543639    4.496280
     57          7           0        0.197968    0.371223    3.155626
     58          1           0       -0.506110   -1.255682    4.276732
     59          7           0       -1.682367    1.655453    3.554668
     60          1           0       -1.951218    0.864325    5.528893
     61          6           0        0.052487   -4.278273   -4.251425
     62          6           0       -1.347419   -3.699842   -4.536648
     63          7           0        0.865336   -3.251723   -3.680512
     64          1           0        0.507683   -4.590864   -5.194611
     65          7           0       -1.883598   -3.254657   -3.293337
     66          1           0       -1.980903   -4.503212   -4.923750
     67          6           0        4.594819    3.072630   -2.937718
     68          6           0        4.344236    4.191494   -1.903188
     69          7           0        4.370029    1.826477   -2.282876
     70          1           0        5.640134    3.119138   -3.253660
     71          7           0        2.989517    4.099459   -1.455464
     72          1           0        4.486012    5.161785   -2.383933
     73          6           0       -5.458708    3.300477   -1.012895
     74          6           0       -4.402532    4.397989   -1.263485
     75          7           0       -4.852461    2.029647   -1.263033
     76          1           0       -6.289830    3.435735   -1.708426
     77          7           0       -3.275268    4.107677   -0.438114
     78          1           0       -4.822881    5.360437   -0.959038
     79          1           0       -0.269378   -2.384336    1.046341
     80          1           0       -2.645400   -2.186094    2.679370
     81          1           0       -3.219184   -4.302521    2.160260
     82          1           0       -2.019352    2.528375    3.940027
     83          1           0       -0.177224   -0.123985    2.348293
     84          1           0        0.329779    2.299670    3.879711
     85          1           0        1.710708   -1.628513    2.196736
     86          1           0        5.179610   -0.442112    2.170875
     87          1           0        4.408018   -2.421378    1.502210
     88          1           0       -0.554514   -3.630001    3.661673
     89          1           0        4.321572    0.022055    4.213042
     90          1           0       -2.600500   -0.108489    4.193421
     91          1           0       -1.276310   -2.895038   -5.285658
     92          1           0        5.066245    4.066593   -1.082397
     93          1           0       -4.146754    4.430594   -2.334815
     94          1           0        2.167871   -1.685364    4.435582
     95          1           0        0.230449    0.070093    5.209048
     96          1           0       -0.058763   -5.146492   -3.582707
     97          1           0        3.934934    3.224204   -3.807222
     98          1           0       -5.815449    3.394680    0.024105
     99          1           0       -0.754485   -5.093448    0.986619
 ---------------------------------------------------------------------

 SCF Done:  E(RPBE1PBE) =  -2170.29026662     a.u. after    7 cycles
 SCF Done:  E(RPBE1PBE) =  -2170.29027660     A.U. after    9 cycles

 The electronic state is 1-A.
 Alpha  occ. eigenvalues --  -14.38205 -14.37600 -14.37583 -14.37571 -14.37542
 Alpha  occ. eigenvalues --  -14.37296 -14.37260 -14.37101 -14.36870 -14.36775
 Alpha  occ. eigenvalues --  -14.36735 -14.36483 -10.28176 -10.27743 -10.27730
 Alpha  occ. eigenvalues --  -10.26419 -10.26412 -10.26383 -10.26353 -10.26157
 Alpha  occ. eigenvalues --  -10.26132 -10.24768 -10.24754 -10.24743 -10.24595
 Alpha  occ. eigenvalues --  -10.24533 -10.24519 -10.24156 -10.24115 -10.24029
 Alpha  occ. eigenvalues --  -10.23955 -10.23865 -10.23777 -10.23745 -10.23736
 Alpha  occ. eigenvalues --  -10.23688 -10.23629 -10.23617 -10.23604 -10.23599
 Alpha  occ. eigenvalues --  -10.23572 -10.23418 -10.23385 -10.23231 -10.23217
 Alpha  occ. eigenvalues --  -10.23135 -10.23028 -10.22979 -10.22817 -10.22609
 Alpha  occ. eigenvalues --  -10.22523  -0.99507  -0.99057  -0.98864  -0.97337
 Alpha  occ. eigenvalues --   -0.97251  -0.97213  -0.94872  -0.94663  -0.94448
 Alpha  occ. eigenvalues --   -0.89725  -0.89338  -0.89249  -0.88085  -0.87480
 Alpha  occ. eigenvalues --   -0.87402  -0.81831  -0.81755  -0.81410  -0.80652
 Alpha  occ. eigenvalues --   -0.80541  -0.79795  -0.77275  -0.75900  -0.75861
 Alpha  occ. eigenvalues --   -0.74542  -0.74249  -0.74117  -0.69377  -0.69286
 Alpha  occ. eigenvalues --   -0.69169  -0.66399  -0.66316  -0.66038  -0.64840
 Alpha  occ. eigenvalues --   -0.64632  -0.63799  -0.63227  -0.62911  -0.62204
 Alpha  occ. eigenvalues --   -0.61652  -0.61104  -0.60910  -0.58990  -0.58566
 Alpha  occ. eigenvalues --   -0.58134  -0.56036  -0.55830  -0.55776  -0.54124
 Alpha  occ. eigenvalues --   -0.53963  -0.53719  -0.53331  -0.52903  -0.52521
 Alpha  occ. eigenvalues --   -0.51791  -0.51329  -0.51136  -0.50866  -0.50717
 Alpha  occ. eigenvalues --   -0.50616  -0.50056  -0.49963  -0.49199  -0.48301
 Alpha  occ. eigenvalues --   -0.48142  -0.47652  -0.47011  -0.46415  -0.46271
 Alpha  occ. eigenvalues --   -0.46140  -0.45685  -0.45595  -0.45539  -0.45137
 Alpha  occ. eigenvalues --   -0.44886  -0.44372  -0.44189  -0.43919  -0.43762
 Alpha  occ. eigenvalues --   -0.43647  -0.43227  -0.41975  -0.41283  -0.41231
 Alpha  occ. eigenvalues --   -0.40684  -0.40505  -0.40344  -0.40165  -0.40096
 Alpha  occ. eigenvalues --   -0.39984  -0.39892  -0.39717  -0.39385  -0.39066
 Alpha  occ. eigenvalues --   -0.38993  -0.38888  -0.38585  -0.38575  -0.38286
 Alpha  occ. eigenvalues --   -0.36709  -0.36261  -0.36229  -0.36038  -0.35983
 Alpha  occ. eigenvalues --   -0.35712  -0.35488  -0.35376  -0.35199  -0.34678
 Alpha  occ. eigenvalues --   -0.34604  -0.34497  -0.31976  -0.31798  -0.31380
 Alpha  occ. eigenvalues --   -0.27417  -0.27263  -0.27166  -0.27098  -0.26972
 Alpha  occ. eigenvalues --   -0.26860  -0.26841  -0.26546  -0.26292  -0.26088
 Alpha  occ. eigenvalues --   -0.25919  -0.25497  -0.25411  -0.25224  -0.25078
 Alpha  occ. eigenvalues --   -0.23906  -0.23711  -0.23590
 Alpha virt. eigenvalues --   -0.05909  -0.05459  -0.05325  -0.04154  -0.04064
 Alpha virt. eigenvalues --   -0.03774   0.01708   0.01777   0.02149   0.03263
 Alpha virt. eigenvalues --    0.04095   0.04657   0.05164   0.05257   0.05610

 Mulliken charges:
               1
     1  C    0.237120
     2  C   -0.028783
     3  C   -0.382866
     4  C    0.375244
     5  H    0.154695
     6  C   -0.378327
     7  C    0.397911
     8  H    0.117248
     9  C   -0.362656
    10  C   -0.167750
    11  H    0.125505
    12  C   -0.179438
    13  H    0.083987
    14  H    0.084035
    15  C    0.363012
    16  C   -0.101567
    17  C   -0.363441
    18  C    0.372122
    19  H    0.120121
    20  C   -0.395399
    21  C    0.359001
    22  H    0.116671
    23  C   -0.361453
    24  C   -0.160240
    25  H    0.131299
    26  C   -0.183500
    27  H    0.086139
    28  H    0.084849
    29  C    0.262100
    30  C   -0.044245
    31  C   -0.337770
    32  C    0.349896
    33  H    0.133020
    34  C   -0.386573
    35  C    0.384525
    36  H    0.116996
    37  C   -0.328864
    38  C   -0.164144
    39  H    0.124844
    40  C   -0.179716
    41  H    0.082453
    42  H    0.089124
    43  C   -0.156143
    44  C   -0.089499
    45  N   -0.329758
    46  H    0.096499
    47  N   -0.315145
    48  H    0.091352
    49  C   -0.138637
    50  C   -0.125151
    51  N   -0.349513
    52  H    0.153998
    53  N   -0.301899
    54  H    0.125530
    55  C   -0.146670
    56  C   -0.094344
    57  N   -0.312765
    58  H    0.122936
    59  N   -0.336239
    60  H    0.108771
    61  C   -0.062867
    62  C   -0.084759
    63  N   -0.193499
    64  H    0.122947
    65  N   -0.201800
    66  H    0.123864
    67  C   -0.078294
    68  C   -0.071664
    69  N   -0.194840
    70  H    0.123128
    71  N   -0.195203
    72  H    0.122977
    73  C   -0.065786
    74  C   -0.082011
    75  N   -0.191084
    76  H    0.122111
    77  N   -0.199849
    78  H    0.122263
    79  H    0.218599
    80  H    0.094589
    81  H    0.215129
    82  H    0.216267
    83  H    0.217705
    84  H    0.085289
    85  H    0.196946
    86  H    0.218563
    87  H    0.095914
    88  H    0.087420
    89  H    0.112553
    90  H    0.080721
    91  H    0.079003
    92  H    0.085704
    93  H    0.079125
    94  H    0.124194
    95  H    0.102755
    96  H    0.078141
    97  H    0.079226
    98  H    0.082936
    99  H    0.085084
 Sum of Mulliken charges =   0.00000

 Dipole moment (field-independent basis, Debye):
    X=              0.1553    Y=             -1.8789    Z=              5.0171  Tot=              5.3596
 Quadrupole moment (field-independent basis, Debye-Ang):
   XX=           -296.2501   YY=           -293.9787   ZZ=           -267.9038
   XY=             -3.1525   XZ=             -0.5179   YZ=             -9.4787

 Normal termination of Gaussian 16 at Mon Oct 18 00:20:49 2021.
