 Gaussian 16, Revision C.01,
 Gaussian 16:  ES64L-G16RevC.01  3-Jul-2019

 ----------------------------------------------------------------------
 #P PBE1PBE/Def2TZVP SP SCF=(YQC,MaxCycle=900) int=(Grid=Superfinegrid)
  EmpiricalDispersion=GD3 SCRF=(PCM,Solvent=Chloroform)
 ----------------------------------------------------------------------

 -------------------------
 _3_alde1_5_ami4_2_opt_cfm
 -------------------------
 Symbolic Z-matrix:
 Charge =  0 Multiplicity = 1

                         Standard orientation:
 ---------------------------------------------------------------------
 Center     Atomic      Atomic             Coordinates (Angstroms)
 Number     Number       Type             X           Y           Z
 ---------------------------------------------------------------------
      1          6           0       -4.025328    1.412035    0.289217
      2          6           0       -5.104719    0.717570   -0.396229
      3          6           0       -3.399625    2.523488   -0.274341
      4          6           0       -2.307079    3.110466    0.354291
      5          1           0       -3.779043    2.908103   -1.209083
      6          6           0       -1.807732    2.550443    1.531429
      7          6           0       -2.433271    1.455142    2.113206
      8          1           0       -0.934064    2.999744    1.978091
      9          6           0       -3.560833    0.910799    1.499890
     10          6           0       -1.880021    0.832106    3.308853
     11          1           0       -4.040882    0.068124    1.971656
     12          6           0       -1.670934    4.288848   -0.218934
     13          1           0       -0.837243    1.096551    3.542377
     14          1           0       -5.640553   -0.030232    0.206523
     15          1           0       -2.175092    4.720045   -1.098314
     16          6           0        4.279166    1.244300   -0.442744
     17          6           0        5.418297    1.410637    0.449828
     18          6           0        4.044564    0.025625   -1.077014
     19          6           0        2.953240   -0.133691   -1.925547
     20          1           0        4.717368   -0.800784   -0.917187
     21          6           0        2.087137    0.938437   -2.130719
     22          6           0        2.317580    2.166219   -1.517290
     23          1           0        1.233312    0.819147   -2.784253
     24          6           0        3.416570    2.311999   -0.673157
     25          6           0        1.423618    3.283912   -1.776289
     26          1           0        3.577430    3.272139   -0.207279
     27          6           0        2.721093   -1.391384   -2.620466
     28          1           0        0.529800    3.047069   -2.377591
     29          1           0        5.532019    2.408841    0.901364
     30          1           0        1.838977   -1.416101   -3.279592
     31          6           0       -2.596201   -2.423703   -1.112307
     32          6           0       -3.497521   -1.936435   -2.148335
     33          6           0       -2.989132   -2.376153    0.224592
     34          6           0       -2.098078   -2.698697    1.241131
     35          1           0       -3.992993   -2.051075    0.447739
     36          6           0       -0.810841   -3.120451    0.911303
     37          6           0       -0.425992   -3.238352   -0.419859
     38          1           0       -0.128074   -3.362764    1.711344
     39          6           0       -1.317110   -2.867531   -1.427690
     40          6           0        0.899893   -3.743892   -0.749253
     41          1           0       -0.990338   -2.940459   -2.453890
     42          6           0       -2.507858   -2.526363    2.626384
     43          1           0        1.600758   -3.834732    0.094311
     44          1           0       -3.580185   -2.334192    2.779000
     45          6           0       -5.551419   -1.119806   -2.910327
     46          6           0       -6.321427    0.038060   -2.238179
     47          7           0       -4.721085   -1.732507   -1.924338
     48          7           0       -5.372535    0.909716   -1.615169
     49          6           0        7.147178   -0.343754    2.766748
     50          6           0        7.310151    0.643458    1.587010
     51          7           0        7.083372   -1.734737    2.381581
     52          7           0        6.223602    0.468882    0.682337
     53          6           0        0.029408    5.899763   -0.314629
     54          6           0        0.735734    5.497463   -1.625654
     55          7           0       -0.617191    4.768631    0.282247
     56          7           0        1.666161    4.450320   -1.363750
     57          6           0       -1.928091   -0.676495    5.089933
     58          6           0       -2.170897   -2.188113    4.885812
     59          7           0       -2.544654    0.019821    4.006978
     60          7           0       -1.689479   -2.547544    3.587287
     61          6           0        3.200718   -3.594875   -3.185390
     62          6           0        2.518077   -4.571213   -2.209455
     63          7           0        3.495685   -2.379165   -2.496787
     64          7           0        1.206722   -4.088447   -1.923051
     65          1           0        6.310946   -1.865461    1.736110
     66          1           0        7.932170   -2.000696    1.892105
     67          1           0       -3.032554   -1.723607   -3.123852
     68          1           0        6.223437   -0.102255    3.300106
     69          1           0        7.988071   -0.210493    3.452978
     70          1           0        8.230370    0.393277    1.047590
     71          1           0        7.388820    1.673762    1.974435
     72          1           0       -4.977196   -0.742552   -3.771065
     73          1           0       -6.280112   -1.857168   -3.261079
     74          1           0       -7.026296   -0.393379   -1.511705
     75          1           0       -6.866518    0.597361   -3.001254
     76          1           0        4.146027   -4.029989   -3.517855
     77          1           0        2.531302   -3.444059   -4.046242
     78          1           0        3.141799   -4.680453   -1.308223
     79          1           0        2.415033   -5.539837   -2.706781
     80          1           0        0.774473    6.257228    0.398913
     81          1           0       -0.679358    6.706632   -0.546324
     82          1           0       -3.248206   -2.382112    4.997297
     83          1           0       -1.609594   -2.746863    5.637276
     84          1           0       -2.414137   -0.373043    6.021772
     85          1           0       -0.847428   -0.475943    5.160283
     86          1           0        1.292101    6.361625   -1.998555
     87          1           0       -0.028413    5.204635   -2.367399
 ---------------------------------------------------------------------

 SCF Done:  E(RPBE1PBE) =  -1979.86608098     a.u. after    6 cycles
 SCF Done:  E(RPBE1PBE) =  -1979.86610973     A.U. after    9 cycles

 The electronic state is 1-A.
 Alpha  occ. eigenvalues --  -14.38271 -14.38161 -14.38095 -14.38064 -14.37963
 Alpha  occ. eigenvalues --  -14.37917 -14.37875 -14.37860 -14.37760 -14.35552
 Alpha  occ. eigenvalues --  -10.27092 -10.27034 -10.26944 -10.26890 -10.26827
 Alpha  occ. eigenvalues --  -10.26726 -10.26701 -10.26696 -10.26597 -10.25328
 Alpha  occ. eigenvalues --  -10.25291 -10.25140 -10.25050 -10.25021 -10.24899
 Alpha  occ. eigenvalues --  -10.24842 -10.24802 -10.24592 -10.24571 -10.24566
 Alpha  occ. eigenvalues --  -10.24540 -10.24536 -10.24482 -10.24474 -10.24431
 Alpha  occ. eigenvalues --  -10.24414 -10.24358 -10.24235 -10.24150 -10.24143
 Alpha  occ. eigenvalues --  -10.24118 -10.24092 -10.24065 -10.24049 -10.23970
 Alpha  occ. eigenvalues --  -10.23939 -10.23552  -0.97849  -0.97665  -0.97622
 Alpha  occ. eigenvalues --   -0.97552  -0.96479  -0.95487  -0.95374  -0.95105
 Alpha  occ. eigenvalues --   -0.94960  -0.90795  -0.90437  -0.89845  -0.89745
 Alpha  occ. eigenvalues --   -0.82571  -0.82303  -0.82261  -0.81276  -0.80622
 Alpha  occ. eigenvalues --   -0.80512  -0.78050  -0.76552  -0.76012  -0.75965
 Alpha  occ. eigenvalues --   -0.74676  -0.70155  -0.69940  -0.69907  -0.69806
 Alpha  occ. eigenvalues --   -0.67398  -0.66801  -0.66732  -0.66009  -0.63728
 Alpha  occ. eigenvalues --   -0.63409  -0.63031  -0.62322  -0.60735  -0.60463
 Alpha  occ. eigenvalues --   -0.57774  -0.56847  -0.56597  -0.56298  -0.55887
 Alpha  occ. eigenvalues --   -0.55457  -0.54321  -0.54066  -0.53326  -0.52944
 Alpha  occ. eigenvalues --   -0.52547  -0.52119  -0.51282  -0.50950  -0.50822
 Alpha  occ. eigenvalues --   -0.50586  -0.49972  -0.49786  -0.49390  -0.49122
 Alpha  occ. eigenvalues --   -0.48882  -0.48322  -0.47457  -0.46861  -0.46780
 Alpha  occ. eigenvalues --   -0.46668  -0.46483  -0.46388  -0.46350  -0.45676
 Alpha  occ. eigenvalues --   -0.45347  -0.45294  -0.45011  -0.44357  -0.44144
 Alpha  occ. eigenvalues --   -0.43967  -0.42358  -0.42258  -0.41995  -0.41641
 Alpha  occ. eigenvalues --   -0.41544  -0.40898  -0.40530  -0.40422  -0.39832
 Alpha  occ. eigenvalues --   -0.39756  -0.39702  -0.39076  -0.38781  -0.37471
 Alpha  occ. eigenvalues --   -0.37268  -0.37101  -0.36884  -0.36649  -0.36563
 Alpha  occ. eigenvalues --   -0.36414  -0.35740  -0.35666  -0.35405  -0.35200
 Alpha  occ. eigenvalues --   -0.35098  -0.34833  -0.31427  -0.31253  -0.30475
 Alpha  occ. eigenvalues --   -0.27899  -0.27776  -0.27687  -0.27581  -0.27320
 Alpha  occ. eigenvalues --   -0.27180  -0.27127  -0.27044  -0.26925  -0.26582
 Alpha  occ. eigenvalues --   -0.26248  -0.26095  -0.25987  -0.25829  -0.25335
 Alpha  occ. eigenvalues --   -0.24716
 Alpha virt. eigenvalues --   -0.06769  -0.06667  -0.06266  -0.06045  -0.05576
 Alpha virt. eigenvalues --   -0.05444  -0.02925  -0.02012  -0.01633   0.04358
 Alpha virt. eigenvalues --    0.04801   0.04871   0.05018   0.05406   0.05450

 Mulliken charges:
               1
     1  C    0.374120
     2  C   -0.174960
     3  C   -0.379144
     4  C    0.396419
     5  H    0.121898
     6  C   -0.360072
     7  C    0.326021
     8  H    0.128286
     9  C   -0.300690
    10  C   -0.151173
    11  H    0.134282
    12  C   -0.183172
    13  H    0.088876
    14  H    0.096211
    15  H    0.094346
    16  C    0.395850
    17  C   -0.175309
    18  C   -0.377207
    19  C    0.374994
    20  H    0.124719
    21  C   -0.330693
    22  C    0.324053
    23  H    0.126034
    24  C   -0.357337
    25  C   -0.143098
    26  H    0.124447
    27  C   -0.173164
    28  H    0.080716
    29  H    0.084842
    30  H    0.082838
    31  C    0.318330
    32  C   -0.149648
    33  C   -0.290146
    34  C    0.380236
    35  H    0.132425
    36  C   -0.375239
    37  C    0.372625
    38  H    0.124592
    39  C   -0.368310
    40  C   -0.164255
    41  H    0.128852
    42  C   -0.180972
    43  H    0.091075
    44  H    0.096257
    45  C   -0.096028
    46  C   -0.067926
    47  N   -0.199091
    48  N   -0.205329
    49  C   -0.085733
    50  C   -0.117315
    51  N   -0.541541
    52  N   -0.183944
    53  C   -0.088848
    54  C   -0.132755
    55  N   -0.183365
    56  N   -0.182312
    57  C   -0.093137
    58  C   -0.070077
    59  N   -0.201491
    60  N   -0.199781
    61  C   -0.073651
    62  C   -0.076992
    63  N   -0.185707
    64  N   -0.195934
    65  H    0.235276
    66  H    0.224606
    67  H    0.083843
    68  H    0.110415
    69  H    0.114721
    70  H    0.120548
    71  H    0.077442
    72  H    0.083984
    73  H    0.127295
    74  H    0.090529
    75  H    0.123295
    76  H    0.126557
    77  H    0.084191
    78  H    0.082215
    79  H    0.126968
    80  H    0.114844
    81  H    0.112829
    82  H    0.089938
    83  H    0.124215
    84  H    0.126401
    85  H    0.085388
    86  H    0.128867
    87  H    0.097837
 Sum of Mulliken charges =   0.00000

 Dipole moment (field-independent basis, Debye):
    X=             -1.9219    Y=              2.1817    Z=             -2.3372  Tot=              3.7304
 Quadrupole moment (field-independent basis, Debye-Ang):
   XX=           -267.2310   YY=           -268.2827   ZZ=           -259.0649
   XY=              6.1103   XZ=              4.5603   YZ=              1.4259

 Normal termination of Gaussian 16 at Mon Oct 18 08:33:02 2021.
