 Gaussian 16, Revision C.01,
 Gaussian 16:  ES64L-G16RevC.01  3-Jul-2019

 ----------------------------------------------------------------------
 #P PBE1PBE/Def2TZVP SP SCF=(YQC,MaxCycle=900) int=(Grid=Superfinegrid)
  EmpiricalDispersion=GD3
 ----------------------------------------------------------------------

 -------------------------
 _3_alde1_4_ami3_1_opt_gas
 -------------------------
 Symbolic Z-matrix:
 Charge =  0 Multiplicity = 1

                         Standard orientation:
 ---------------------------------------------------------------------
 Center     Atomic      Atomic             Coordinates (Angstroms)
 Number     Number       Type             X           Y           Z
 ---------------------------------------------------------------------
      1          6           0       -3.415786   -1.635382    0.544088
      2          6           0       -3.594363   -2.874555   -0.194150
      3          6           0       -3.736992   -0.394367   -0.003949
      4          6           0       -3.467426    0.775407    0.698424
      5          1           0       -4.191140   -0.364782   -0.982512
      6          6           0       -2.837472    0.706138    1.942546
      7          6           0       -2.489747   -0.522783    2.489631
      8          1           0       -2.610720    1.630155    2.452296
      9          6           0       -2.813289   -1.688161    1.794128
     10          6           0       -1.667031   -0.614982    3.688705
     11          1           0       -2.549984   -2.634549    2.240696
     12          6           0       -3.799834    2.065291    0.112583
     13          1           0       -1.379308    0.340055    4.148086
     14          1           0       -3.341057   -3.787592    0.366484
     15          1           0       -4.177020    2.037213   -0.921527
     16          6           0        1.088407    2.752603   -3.311670
     17          6           0        0.906190    2.686335   -4.769189
     18          6           0        2.264499    2.273369   -2.736720
     19          6           0        2.437432    2.305360   -1.356810
     20          1           0        3.048762    1.879097   -3.363919
     21          6           0        1.418874    2.820799   -0.557657
     22          6           0        0.257126    3.343953   -1.121706
     23          1           0        1.545841    2.841859    0.516109
     24          6           0        0.094961    3.299177   -2.504500
     25          6           0       -0.744265    3.976457   -0.273125
     26          1           0       -0.811831    3.702054   -2.928982
     27          6           0        3.673135    1.832547   -0.745327
     28          1           0       -0.559175    3.917821    0.810287
     29          1           0       -0.042882    3.140949   -5.117524
     30          1           0        3.631007    1.649781    0.339335
     31          6           0        0.488826   -2.804299   -1.260142
     32          6           0       -0.561630   -3.180412   -2.198065
     33          6           0        0.286645   -2.910816    0.113586
     34          6           0        1.234879   -2.425937    1.011587
     35          1           0       -0.644425   -3.327901    0.463733
     36          6           0        2.430278   -1.903239    0.527172
     37          6           0        2.662957   -1.826124   -0.843276
     38          1           0        3.174790   -1.536642    1.214587
     39          6           0        1.674032   -2.246306   -1.729908
     40          6           0        3.897532   -1.257296   -1.361458
     41          1           0        1.834128   -2.147226   -2.794961
     42          6           0        0.890279   -2.360062    2.428047
     43          1           0        3.916730   -1.071765   -2.446887
     44          1           0       -0.016285   -2.906123    2.709086
     45          6           0       -2.538493   -4.225158   -2.844993
     46          6           0       -3.874682   -4.186241   -2.068297
     47          7           0       -1.479644   -3.993857   -1.909530
     48          7           0       -3.942588   -2.919104   -1.406517
     49          8           0        1.679418    2.190683   -5.547352
     50          6           0       -3.968727    4.393222    0.128554
     51          6           0       -2.672930    5.234188    0.106314
     52          7           0       -3.661611    3.144363    0.749947
     53          7           0       -1.732433    4.591571   -0.757325
     54          6           0       -0.231046   -1.937949    5.048681
     55          6           0        1.118727   -1.338917    4.561069
     56          7           0       -1.250948   -1.748648    4.063575
     57          7           0        1.526438   -1.615602    3.222294
     58          6           0        5.902826    1.166981   -0.788341
     59          6           0        6.019341   -0.331835   -1.172711
     60          7           0        4.728448    1.678075   -1.417911
     61          7           0        4.881606   -0.991710   -0.618158
     62          1           0       -0.513593   -2.675090   -3.176813
     63          6           0        7.130899    1.924509   -1.289741
     64          6           0       -2.964705    6.632748   -0.439665
     65          6           0       -5.032128   -4.380237   -3.042512
     66          6           0        2.228380   -1.737980    5.538766
     67          1           0        1.022414   -0.242520    4.588628
     68          6           0        1.917764   -1.217376    6.938381
     69          1           0        3.174816   -1.332073    5.179420
     70          1           0        2.312015   -2.826888    5.552153
     71          6           0        0.560719   -1.725974    7.418405
     72          1           0        1.910436   -0.124833    6.923450
     73          1           0        2.698829   -1.536585    7.631088
     74          6           0       -0.539935   -1.352110    6.431104
     75          1           0        0.596677   -2.813045    7.521064
     76          1           0        0.332688   -1.305196    8.399889
     77          1           0       -0.621499   -0.265081    6.361072
     78          1           0       -1.502373   -1.740153    6.772492
     79          1           0       -0.114174   -3.026543    5.149869
     80          1           0       -2.301324    5.295787    1.144584
     81          6           0       -4.035982    7.332462    0.387575
     82          1           0       -3.292778    6.534659   -1.475804
     83          1           0       -2.039407    7.212451   -0.434790
     84          6           0       -5.316031    6.504001    0.405076
     85          1           0       -4.234762    8.320941   -0.030905
     86          1           0       -3.676475    7.466597    1.410416
     87          6           0       -5.037393    5.111265    0.956653
     88          1           0       -5.709000    6.421188   -0.610817
     89          1           0       -6.072979    6.995771    1.019161
     90          1           0       -5.948170    4.508695    0.950369
     91          1           0       -4.686411    5.177451    1.987894
     92          1           0       -4.318328    4.265422   -0.911976
     93          1           0       -3.851628   -5.016488   -1.339743
     94          6           0       -4.898010   -5.724861   -3.750690
     95          1           0       -5.023522   -3.564814   -3.767572
     96          1           0       -5.974799   -4.332544   -2.494048
     97          6           0       -3.558863   -5.826606   -4.476542
     98          1           0       -4.970758   -6.528128   -3.013685
     99          1           0       -5.715508   -5.849884   -4.463487
    100          6           0       -2.397208   -5.593473   -3.515512
    101          1           0       -3.521947   -5.079346   -5.272730
    102          1           0       -3.460235   -6.811723   -4.937243
    103          1           0       -1.446430   -5.631434   -4.052338
    104          1           0       -2.379589   -6.365605   -2.744403
    105          1           0       -2.560061   -3.443606   -3.625272
    106          1           0        5.837520    1.220996    0.312806
    107          6           0        8.409968    1.328608   -0.713450
    108          1           0        7.037917    2.974408   -1.004786
    109          1           0        7.146553    1.873403   -2.379519
    110          6           0        8.523908   -0.147426   -1.080905
    111          1           0        8.400248    1.431390    0.374249
    112          1           0        9.273741    1.876709   -1.094579
    113          6           0        7.303250   -0.915244   -0.587210
    114          1           0        9.428081   -0.573484   -0.641620
    115          1           0        8.599636   -0.245541   -2.166295
    116          1           0        7.373374   -1.966650   -0.872870
    117          1           0        7.239490   -0.867288    0.500991
    118          1           0        6.036452   -0.390697   -2.275644
 ---------------------------------------------------------------------

 SCF Done:  E(RPBE1PBE) =  -2489.57874960     a.u. after    7 cycles
 SCF Done:  E(RPBE1PBE) =  -2489.57876629     A.U. after    9 cycles

 The electronic state is 1-A.
 Alpha  occ. eigenvalues --  -19.20294 -14.37979 -14.37742 -14.37713 -14.37628
 Alpha  occ. eigenvalues --  -14.37523 -14.37183 -14.37151 -14.37107 -10.30880
 Alpha  occ. eigenvalues --  -10.27017 -10.26927 -10.26689 -10.26684 -10.26499
 Alpha  occ. eigenvalues --  -10.26171 -10.26079 -10.25777 -10.25716 -10.25463
 Alpha  occ. eigenvalues --  -10.25451 -10.25400 -10.25107 -10.25102 -10.25086
 Alpha  occ. eigenvalues --  -10.24969 -10.24952 -10.24811 -10.24772 -10.24689
 Alpha  occ. eigenvalues --  -10.24547 -10.24220 -10.24213 -10.24212 -10.24046
 Alpha  occ. eigenvalues --  -10.23961 -10.23852 -10.23779 -10.23751 -10.23704
 Alpha  occ. eigenvalues --  -10.23676 -10.23512 -10.23411 -10.22852 -10.22467
 Alpha  occ. eigenvalues --  -10.22167 -10.22026 -10.21927 -10.21866 -10.21815
 Alpha  occ. eigenvalues --  -10.21783 -10.21776 -10.21723 -10.21665 -10.21559
 Alpha  occ. eigenvalues --  -10.21390 -10.21342 -10.21319 -10.21319 -10.21233
 Alpha  occ. eigenvalues --   -1.07966  -0.97924  -0.97768  -0.97640  -0.97465
 Alpha  occ. eigenvalues --   -0.95432  -0.94950  -0.94671  -0.94480  -0.90752
 Alpha  occ. eigenvalues --   -0.90053  -0.89405  -0.86105  -0.85954  -0.85661
 Alpha  occ. eigenvalues --   -0.85190  -0.81409  -0.81172  -0.80939  -0.80822
 Alpha  occ. eigenvalues --   -0.80722  -0.80379  -0.77160  -0.76939  -0.76713
 Alpha  occ. eigenvalues --   -0.76477  -0.76205  -0.75590  -0.75452  -0.75024
 Alpha  occ. eigenvalues --   -0.69470  -0.69176  -0.68445  -0.68193  -0.68121
 Alpha  occ. eigenvalues --   -0.67273  -0.66785  -0.66560  -0.65623  -0.63322
 Alpha  occ. eigenvalues --   -0.63220  -0.63030  -0.62653  -0.62412  -0.61334
 Alpha  occ. eigenvalues --   -0.60600  -0.60083  -0.59471  -0.58716  -0.58438
 Alpha  occ. eigenvalues --   -0.58255  -0.57844  -0.56886  -0.56237  -0.56012
 Alpha  occ. eigenvalues --   -0.55942  -0.54933  -0.54009  -0.53592  -0.53201
 Alpha  occ. eigenvalues --   -0.52950  -0.52657  -0.52068  -0.51372  -0.50996
 Alpha  occ. eigenvalues --   -0.50602  -0.50020  -0.49962  -0.49648  -0.48987
 Alpha  occ. eigenvalues --   -0.48549  -0.48046  -0.47588  -0.47534  -0.47453
 Alpha  occ. eigenvalues --   -0.47389  -0.47244  -0.46868  -0.46648  -0.46066
 Alpha  occ. eigenvalues --   -0.45828  -0.45626  -0.45286  -0.44994  -0.44735
 Alpha  occ. eigenvalues --   -0.44504  -0.44364  -0.44305  -0.44105  -0.43786
 Alpha  occ. eigenvalues --   -0.43583  -0.43369  -0.43300  -0.43222  -0.42353
 Alpha  occ. eigenvalues --   -0.42221  -0.41917  -0.41893  -0.41344  -0.41314
 Alpha  occ. eigenvalues --   -0.40693  -0.40159  -0.40128  -0.40012  -0.39823
 Alpha  occ. eigenvalues --   -0.39101  -0.38737  -0.38453  -0.38103  -0.37748
 Alpha  occ. eigenvalues --   -0.37602  -0.37402  -0.37028  -0.36887  -0.36409
 Alpha  occ. eigenvalues --   -0.36355  -0.36288  -0.36088  -0.36045  -0.35892
 Alpha  occ. eigenvalues --   -0.35794  -0.35651  -0.35372  -0.35202  -0.34593
 Alpha  occ. eigenvalues --   -0.34420  -0.34354  -0.34135  -0.33955  -0.33770
 Alpha  occ. eigenvalues --   -0.33562  -0.32997  -0.32729  -0.32168  -0.32102
 Alpha  occ. eigenvalues --   -0.31961  -0.31092  -0.29970  -0.29552  -0.27844
 Alpha  occ. eigenvalues --   -0.27642  -0.27469  -0.27274  -0.27161  -0.27029
 Alpha  occ. eigenvalues --   -0.26706  -0.26490  -0.26393  -0.25958  -0.25831
 Alpha  occ. eigenvalues --   -0.25606  -0.25272  -0.24984  -0.24141
 Alpha virt. eigenvalues --   -0.07093  -0.06524  -0.06263  -0.05705  -0.05502
 Alpha virt. eigenvalues --   -0.04717  -0.02391  -0.02132  -0.01182   0.03223
 Alpha virt. eigenvalues --    0.04222   0.04499   0.04525   0.04609   0.04680

 Mulliken charges:
               1
     1  C    0.363601
     2  C   -0.146635
     3  C   -0.392792
     4  C    0.379243
     5  H    0.117914
     6  C   -0.359927
     7  C    0.389202
     8  H    0.116734
     9  C   -0.359697
    10  C   -0.141645
    11  H    0.146534
    12  C   -0.155188
    13  H    0.074619
    14  H    0.077644
    15  H    0.074966
    16  C    0.295739
    17  C    0.043971
    18  C   -0.363492
    19  C    0.366090
    20  H    0.144949
    21  C   -0.314760
    22  C    0.315158
    23  H    0.110186
    24  C   -0.306522
    25  C   -0.146716
    26  H    0.127246
    27  C   -0.160198
    28  H    0.073037
    29  H    0.075245
    30  H    0.084936
    31  C    0.295145
    32  C   -0.169071
    33  C   -0.260754
    34  C    0.361048
    35  H    0.107777
    36  C   -0.395718
    37  C    0.362376
    38  H    0.127785
    39  C   -0.318799
    40  C   -0.174959
    41  H    0.116947
    42  C   -0.127453
    43  H    0.079062
    44  H    0.108838
    45  C    0.021277
    46  C    0.066438
    47  N   -0.184443
    48  N   -0.185776
    49  O   -0.277108
    50  C    0.037597
    51  C    0.038881
    52  N   -0.186968
    53  N   -0.181893
    54  C   -0.047301
    55  C   -0.017633
    56  N   -0.211802
    57  N   -0.170647
    58  C    0.036026
    59  C    0.024115
    60  N   -0.175652
    61  N   -0.175364
    62  H    0.069105
    63  C   -0.172525
    64  C   -0.176482
    65  C   -0.170953
    66  C   -0.183272
    67  H    0.074000
    68  C   -0.180392
    69  H    0.116743
    70  H    0.101771
    71  C   -0.169676
    72  H    0.088696
    73  H    0.111395
    74  C   -0.185198
    75  H    0.094153
    76  H    0.111455
    77  H    0.096606
    78  H    0.113338
    79  H    0.086711
    80  H    0.048175
    81  C   -0.174996
    82  H    0.101917
    83  H    0.107772
    84  C   -0.168635
    85  H    0.109935
    86  H    0.087019
    87  C   -0.196403
    88  H    0.087936
    89  H    0.109666
    90  H    0.109690
    91  H    0.103266
    92  H    0.045986
    93  H    0.048766
    94  C   -0.187689
    95  H    0.099703
    96  H    0.105647
    97  C   -0.168359
    98  H    0.088992
    99  H    0.108760
   100  C   -0.199496
   101  H    0.088697
   102  H    0.109078
   103  H    0.108065
   104  H    0.105646
   105  H    0.049779
   106  H    0.052305
   107  C   -0.176211
   108  H    0.104925
   109  H    0.106902
   110  C   -0.177453
   111  H    0.086404
   112  H    0.108989
   113  C   -0.175315
   114  H    0.108392
   115  H    0.088538
   116  H    0.106814
   117  H    0.104241
   118  H    0.055661
 Sum of Mulliken charges =   0.00000

 Dipole moment (field-independent basis, Debye):
    X=             -1.3595    Y=              0.7765    Z=              3.5089  Tot=              3.8423
 Quadrupole moment (field-independent basis, Debye-Ang):
   XX=           -348.2971   YY=           -342.3017   ZZ=           -351.7067
   XY=             -3.0107   XZ=             14.8319   YZ=             13.7536

 Normal termination of Gaussian 16 at Sun Oct 17 23:33:58 2021.
