 Gaussian 16, Revision C.01,
 Gaussian 16:  ES64L-G16RevC.01  3-Jul-2019

 ----------------------------------------------------------------------
 #P MP2/aug-cc-pVDZ SP SCF=(YQC,MaxCycle=900) int=(Grid=Superfinegrid)
 SCRF=(PCM,Solvent=Chloroform)
 ----------------------------------------------------------------------

 -----------------------------
 _3_alde1_6_ami4_2_opt_cfm_mp2
 -----------------------------
 Symbolic Z-matrix:
 Charge =  0 Multiplicity = 1

                         Standard orientation:
 ---------------------------------------------------------------------
 Center     Atomic      Atomic             Coordinates (Angstroms)
 Number     Number       Type             X           Y           Z
 ---------------------------------------------------------------------
      1          6           0        2.564023    1.871743    0.587156
      2          6           0        3.514128    1.918011   -0.513960
      3          6           0        2.516682    0.790789    1.469992
      4          6           0        1.630516    0.789866    2.541628
      5          1           0        3.197263   -0.033763    1.322123
      6          6           0        0.756492    1.863924    2.705097
      7          6           0        0.789621    2.947242    1.835635
      8          1           0        0.070889    1.839983    3.538065
      9          6           0        1.705940    2.949558    0.785720
     10          6           0       -0.140470    4.051570    2.024347
     11          1           0        1.733131    3.805526    0.129072
     12          6           0        1.627852   -0.300220    3.509774
     13          1           0       -0.997644    3.836654    2.681431
     14          1           0        3.527433    2.858534   -1.083815
     15          1           0        2.244302   -1.175681    3.258041
     16          6           0       -0.472386   -3.633459    0.155161
     17          6           0        0.769157   -4.051663   -0.483381
     18          6           0       -1.654050   -3.541675   -0.576482
     19          6           0       -2.817382   -3.052216    0.013475
     20          1           0       -1.664785   -3.843639   -1.615469
     21          6           0       -2.790285   -2.637950    1.344678
     22          6           0       -1.618899   -2.733223    2.087783
     23          1           0       -3.698107   -2.244931    1.776189
     24          6           0       -0.469055   -3.239441    1.488729
     25          6           0       -1.546421   -2.249401    3.460773
     26          1           0        0.441833   -3.307235    2.060073
     27          6           0       -4.032449   -2.932126   -0.777363
     28          1           0       -2.370184   -1.600695    3.796443
     29          1           0        0.700765   -4.370141   -1.533294
     30          1           0       -3.929676   -3.181566   -1.845380
     31          6           0       -1.283164    1.018425   -2.492037
     32          6           0       -0.322354    0.209657   -3.235877
     33          6           0       -0.935220    2.293459   -2.049900
     34          6           0       -1.838046    3.068598   -1.331612
     35          1           0        0.052898    2.660636   -2.281200
     36          6           0       -3.093345    2.545360   -1.021491
     37          6           0       -3.456459    1.278309   -1.462701
     38          1           0       -3.776514    3.153418   -0.448193
     39          6           0       -2.551202    0.525129   -2.210450
     40          6           0       -4.755479    0.718175   -1.112955
     41          1           0       -2.855594   -0.455031   -2.545035
     42          6           0       -1.445975    4.401970   -0.905771
     43          1           0       -5.263945    1.190330   -0.257766
     44          1           0       -0.733244   -0.717258   -3.656203
     45          1           0       -0.446755    4.720544   -1.237660
     46          6           0        6.660532    0.877049   -1.287221
     47          6           0        5.240497    1.099480   -1.856716
     48          7           0        6.877110   -0.424742   -0.699231
     49          7           0        4.285544    0.960047   -0.802453
     50          6           0        3.950627   -2.968568   -0.444968
     51          6           0        3.098048   -4.243346   -0.533111
     52          7           0        3.270482   -1.878075   -1.128228
     53          7           0        1.865483   -3.986451    0.137715
     54          6           0        1.601897   -1.563183   -4.538823
     55          6           0        1.893838   -0.132622   -4.049216
     56          7           0        1.443737   -2.547446   -3.483287
     57          7           0        0.873893    0.588731   -3.354597
     58          6           0        0.977506   -1.297098    5.516119
     59          6           0       -0.404464   -1.977265    5.487642
     60          7           0        0.979165   -0.212178    4.588191
     61          7           0       -0.566555   -2.548231    4.193386
     62          6           0       -0.990050    6.175003    1.623777
     63          6           0       -1.644849    6.395526    0.241598
     64          7           0        0.020626    5.178172    1.480790
     65          7           0       -2.187033    5.150352   -0.208324
     66          6           0       -6.247399   -2.359677   -1.151413
     67          6           0       -6.476940   -0.843252   -1.304406
     68          7           0       -5.131324   -2.559846   -0.282293
     69          7           0       -5.253286   -0.252518   -1.743149
     70          1           0        0.651596   -2.299092   -2.897429
     71          1           0        2.263023   -2.519679   -2.875282
     72          1           0        6.708589   -1.152971   -1.385923
     73          1           0        6.224341   -0.566239    0.064091
     74          1           0        3.782610   -1.004511   -1.011383
     75          1           0        2.362816   -1.734735   -0.691409
     76          1           0       -6.832367   -0.418170   -0.352437
     77          1           0       -7.236337   -0.685019   -2.076053
     78          1           0       -6.081793   -2.795171   -2.149711
     79          1           0       -7.131942   -2.808490   -0.693026
     80          1           0        3.615859   -5.047953   -0.003201
     81          1           0        2.957179   -4.527907   -1.587674
     82          1           0        4.908892   -3.142791   -0.942580
     83          1           0        4.143515   -2.759101    0.618871
     84          1           0       -1.189302   -1.246798    5.740974
     85          1           0       -0.405440   -2.785233    6.225129
     86          1           0        1.742495   -2.053930    5.284026
     87          1           0        1.149499   -0.885428    6.514103
     88          1           0        6.853949    1.629059   -0.517345
     89          1           0        7.383603    1.015178   -2.095461
     90          1           0        5.040649    0.319038   -2.599790
     91          1           0        5.186479    2.083100   -2.350402
     92          1           0        2.442594   -1.882635   -5.161410
     93          1           0        0.704555   -1.571614   -5.165381
     94          1           0        2.183517    0.495431   -4.899830
     95          1           0        2.748094   -0.160144   -3.361507
     96          1           0       -0.877916    6.787216   -0.442805
     97          1           0       -2.459280    7.115283    0.343655
     98          1           0       -1.766228    5.889013    2.351440
     99          1           0       -0.516279    7.109133    1.935318
 ---------------------------------------------------------------------

 SCF Done:  E(RHF) =  -2158.34309639     a.u. after    6 cycles
 SCF Done:  E(RHF) =  -2158.34325498     A.U. after   23 cycles
 E2 =    -0.7482183153D+01 EUMP2 =    -0.21658254381291D+04

 The electronic state is 1-A.
 Alpha  occ. eigenvalues --  -15.56809 -15.56474 -15.56456 -15.56401 -15.56324
 Alpha  occ. eigenvalues --  -15.56272 -15.56209 -15.56178 -15.56019 -15.54781
 Alpha  occ. eigenvalues --  -15.53520 -15.53374 -11.29491 -11.28960 -11.28759
 Alpha  occ. eigenvalues --  -11.28750 -11.28713 -11.28711 -11.28696 -11.28683
 Alpha  occ. eigenvalues --  -11.28647 -11.25900 -11.25862 -11.25849 -11.25783
 Alpha  occ. eigenvalues --  -11.25771 -11.25745 -11.25738 -11.25688 -11.25687
 Alpha  occ. eigenvalues --  -11.25605 -11.25522 -11.25502 -11.25500 -11.25359
 Alpha  occ. eigenvalues --  -11.25358 -11.25331 -11.25322 -11.25290 -11.25283
 Alpha  occ. eigenvalues --  -11.25194 -11.25164 -11.25126 -11.25123 -11.25087
 Alpha  occ. eigenvalues --  -11.25051 -11.25046 -11.25040 -11.24995 -11.24857
 Alpha  occ. eigenvalues --  -11.24659  -1.26596  -1.26334  -1.26216  -1.25665
 Alpha  occ. eigenvalues --   -1.25324  -1.24839  -1.23734  -1.23612  -1.23303
 Alpha  occ. eigenvalues --   -1.18548  -1.18033  -1.17466  -1.17228  -1.16805
 Alpha  occ. eigenvalues --   -1.16337  -1.07593  -1.07482  -1.06916  -1.06235
 Alpha  occ. eigenvalues --   -1.05974  -1.05528  -1.01346  -1.00115  -1.00013
 Alpha  occ. eigenvalues --   -0.98428  -0.98334  -0.98054  -0.91786  -0.91546
 Alpha  occ. eigenvalues --   -0.91516  -0.89123  -0.88948  -0.88640  -0.87217
 Alpha  occ. eigenvalues --   -0.86661  -0.85313  -0.83320  -0.83066  -0.82665
 Alpha  occ. eigenvalues --   -0.81219  -0.80250  -0.79039  -0.76773  -0.75406
 Alpha  occ. eigenvalues --   -0.75093  -0.74786  -0.74290  -0.73788  -0.71384
 Alpha  occ. eigenvalues --   -0.71252  -0.70695  -0.69420  -0.68971  -0.68805
 Alpha  occ. eigenvalues --   -0.67940  -0.67703  -0.67360  -0.66991  -0.66883
 Alpha  occ. eigenvalues --   -0.66398  -0.66021  -0.65583  -0.64991  -0.64756
 Alpha  occ. eigenvalues --   -0.64439  -0.63686  -0.63434  -0.62787  -0.62244
 Alpha  occ. eigenvalues --   -0.62074  -0.61702  -0.61612  -0.61418  -0.61025
 Alpha  occ. eigenvalues --   -0.60446  -0.60331  -0.60061  -0.59999  -0.59025
 Alpha  occ. eigenvalues --   -0.58765  -0.58444  -0.56712  -0.56042  -0.55690
 Alpha  occ. eigenvalues --   -0.55272  -0.55053  -0.54849  -0.54644  -0.54336
 Alpha  occ. eigenvalues --   -0.54108  -0.53831  -0.53702  -0.53332  -0.53207
 Alpha  occ. eigenvalues --   -0.53012  -0.52937  -0.51775  -0.51272  -0.50893
 Alpha  occ. eigenvalues --   -0.50402  -0.50250  -0.50052  -0.49809  -0.49352
 Alpha  occ. eigenvalues --   -0.49178  -0.46415  -0.46069  -0.45802  -0.45588
 Alpha  occ. eigenvalues --   -0.45336  -0.45204  -0.42820  -0.41760  -0.41445
 Alpha  occ. eigenvalues --   -0.41176  -0.41125  -0.40901  -0.40762  -0.40730
 Alpha  occ. eigenvalues --   -0.40524  -0.40279  -0.40130  -0.39990  -0.38627
 Alpha  occ. eigenvalues --   -0.38385  -0.36126  -0.33064  -0.32880  -0.32768
 Alpha  occ. eigenvalues --   -0.32466  -0.32335  -0.32002
 Alpha virt. eigenvalues --    0.03234   0.03540   0.03785   0.03847   0.04248
 Alpha virt. eigenvalues --    0.04300   0.04371   0.04714   0.04775   0.05212
 Alpha virt. eigenvalues --    0.05303   0.05436   0.05552   0.05587   0.05682

 Mulliken charges:
               1
     1  C    0.863074
     2  C    0.191302
     3  C    0.859178
     4  C    0.856982
     5  H   -0.819389
     6  C   -0.612988
     7  C    1.402442
     8  H   -0.928197
     9  C    0.411512
    10  C    0.970416
    11  H   -0.988331
    12  C    1.099261
    13  H   -0.694837
    14  H   -0.865823
    15  H   -0.745084
    16  C    0.873925
    17  C    0.817353
    18  C    0.617198
    19  C    1.099340
    20  H   -0.918157
    21  C    0.595522
    22  C    0.985698
    23  H   -0.944352
    24  C   -0.073394
    25  C    0.712578
    26  H   -1.182819
    27  C    1.069200
    28  H   -0.668266
    29  H   -0.638593
    30  H   -0.720044
    31  C    0.543248
    32  C    0.850371
    33  C    0.608088
    34  C    1.108036
    35  H   -0.931200
    36  C    0.198215
    37  C    0.900598
    38  H   -0.871370
    39  C    0.489082
    40  C    0.692833
    41  H   -0.990846
    42  C    1.016455
    43  H   -0.648429
    44  H   -0.744916
    45  H   -0.759979
    46  C    0.996506
    47  C    0.549877
    48  N   -0.368905
    49  N    0.068516
    50  C    1.254993
    51  C    0.594424
    52  N   -0.944251
    53  N   -0.587722
    54  C    0.713112
    55  C    1.164439
    56  N   -0.104329
    57  N   -0.904951
    58  C    0.659835
    59  C    0.691379
    60  N   -0.720088
    61  N   -0.663067
    62  C    0.667906
    63  C    0.558001
    64  N   -0.841842
    65  N   -0.897965
    66  C    0.615535
    67  C    0.683145
    68  N   -0.809474
    69  N   -0.689373
    70  H   -0.115166
    71  H    0.084335
    72  H    0.038003
    73  H    0.080649
    74  H   -0.140191
    75  H   -0.446925
    76  H   -0.115897
    77  H   -0.246831
    78  H   -0.087007
    79  H   -0.293426
    80  H   -0.343429
    81  H   -0.140935
    82  H   -0.286581
    83  H   -0.144830
    84  H   -0.130218
    85  H   -0.261027
    86  H   -0.132894
    87  H   -0.317249
    88  H   -0.226738
    89  H   -0.150064
    90  H   -0.305750
    91  H   -0.277269
    92  H   -0.293492
    93  H   -0.166559
    94  H   -0.239067
    95  H   -0.296662
    96  H   -0.104285
    97  H   -0.335492
    98  H   -0.100710
    99  H   -0.274888
 Sum of Mulliken charges =   0.00000

 Dipole moment (field-independent basis, Debye):
    X=             -1.6518    Y=              1.8287    Z=             -0.8850  Tot=              2.6184
 Quadrupole moment (field-independent basis, Debye-Ang):
   XX=           -308.6538   YY=           -309.1602   ZZ=           -299.5800
   XY=              4.8747   XZ=            -12.5988   YZ=              3.8744

 Normal termination of Gaussian 16 at Sun Nov  7 02:36:39 2021.
