 Gaussian 16, Revision C.01,
 Gaussian 16:  ES64L-G16RevC.01  3-Jul-2019

 ----------------------------------------------------------------------
 #P PBE1PBE/Def2TZVP SP SCF=(YQC,MaxCycle=900) int=(Grid=Superfinegrid)
  EmpiricalDispersion=GD3 SCRF=(PCM,Solvent=Dichloromethane)
 ----------------------------------------------------------------------

 -------------------------
 _3_alde1_5_ami2_2_opt_dcm
 -------------------------
 Symbolic Z-matrix:
 Charge =  0 Multiplicity = 1

                         Standard orientation:
 ---------------------------------------------------------------------
 Center     Atomic      Atomic             Coordinates (Angstroms)
 Number     Number       Type             X           Y           Z
 ---------------------------------------------------------------------
      1          6           0       -3.722738    1.521424    1.575872
      2          6           0       -4.987054    1.895844    0.962304
      3          6           0       -2.617076    2.365433    1.537213
      4          6           0       -1.389969    1.949803    2.048639
      5          1           0       -2.709806    3.351715    1.113051
      6          6           0       -1.262833    0.658849    2.559139
      7          6           0       -2.361909   -0.193867    2.611021
      8          1           0       -0.302223    0.320106    2.924222
      9          6           0       -3.592503    0.256652    2.141320
     10          6           0       -2.218396   -1.569108    3.080281
     11          1           0       -4.434116   -0.414917    2.202749
     12          6           0       -0.255417    2.864180    2.057430
     13          1           0       -1.182546   -1.922585    3.149347
     14          1           0       -5.813256    1.185659    1.119205
     15          1           0        0.670626    2.491138    2.523185
     16          6           0        4.890111    0.604731    0.149066
     17          6           0        6.116295    0.663925    0.930860
     18          6           0        4.615994   -0.495842   -0.663184
     19          6           0        3.442554   -0.555491   -1.405648
     20          1           0        5.335342   -1.300129   -0.698883
     21          6           0        2.529422    0.498359   -1.330030
     22          6           0        2.798994    1.611128   -0.543033
     23          1           0        1.619675    0.432079   -1.907172
     24          6           0        3.982081    1.655475    0.195621
     25          6           0        1.880268    2.746646   -0.517900
     26          1           0        4.173767    2.530897    0.797177
     27          6           0        3.186449   -1.707411   -2.256794
     28          1           0        0.946534    2.610594   -1.076956
     29          1           0        6.255867    1.573885    1.535121
     30          1           0        3.993839   -2.455265   -2.299640
     31          6           0       -3.795963   -0.347203   -1.866223
     32          6           0       -4.370597    0.948353   -2.212222
     33          6           0       -4.384148   -1.139472   -0.883509
     34          6           0       -3.764496   -2.304700   -0.442588
     35          1           0       -5.312323   -0.802924   -0.448970
     36          6           0       -2.576039   -2.713169   -1.041445
     37          6           0       -1.992124   -1.951536   -2.048505
     38          1           0       -2.090687   -3.615552   -0.708511
     39          6           0       -2.594654   -0.757010   -2.437717
     40          6           0       -0.732241   -2.369133   -2.656076
     41          1           0       -2.124277   -0.142353   -3.193844
     42          6           0       -4.292492   -2.995368    0.723240
     43          1           0       -0.250461   -1.626889   -3.300066
     44          1           0       -5.248964   -2.611047    1.110565
     45          6           0       -6.076626    2.599446   -1.957909
     46          6           0       -6.332685    3.078071   -0.494740
     47          7           0       -5.514294    1.285013   -1.806241
     48          7           0       -5.120673    2.924209    0.242646
     49          6           0        9.392994   -0.250989    0.714235
     50          6           0        8.165080   -0.177060    1.670131
     51          7           0        9.345592   -1.423177   -0.141910
     52          7           0        6.959850   -0.274367    0.919351
     53          6           0        0.739858    4.928896    1.589762
     54          6           0        1.403254    4.984745    0.184282
     55          7           0       -0.360819    4.028226    1.583154
     56          7           0        2.207225    3.799269    0.092704
     57          6           0       -3.192257   -3.672726    3.665106
     58          6           0       -4.105111   -4.343705    2.592480
     59          7           0       -3.230269   -2.272485    3.338980
     60          7           0       -3.654622   -3.912451    1.310415
     61          6           0        1.875740   -2.995621   -3.690875
     62          6           0        0.971802   -4.017362   -2.935767
     63          7           0        2.113496   -1.829171   -2.911613
     64          7           0       -0.259994   -3.511145   -2.416141
     65          1           0        9.348601   -2.268634    0.418996
     66          1           0        8.482705   -1.413325   -0.675273
     67          1           0       -3.711095    1.594535   -2.804216
     68          6           0       10.670573   -0.315751    1.551837
     69          6           0        9.415436    0.987700   -0.183564
     70          6           0       -5.207727    3.633916   -2.678615
     71          6           0       -7.420959    2.440655   -2.675431
     72          1           0       -7.155358    2.479205   -0.074802
     73          1           0       -6.609102    4.133806   -0.509269
     74          1           0        2.805459   -3.522233   -3.959903
     75          1           0        1.363352   -2.686066   -4.606930
     76          6           0        1.730792   -4.594795   -1.734009
     77          6           0        0.611093   -5.152090   -3.904984
     78          1           0        1.517170    4.652891    2.319903
     79          1           0        0.347338    5.921379    1.824355
     80          1           0       -5.148663   -4.052724    2.790689
     81          1           0       -4.000564   -5.427956    2.664097
     82          6           0       -3.836421   -3.836593    5.045801
     83          6           0       -1.813516   -4.337924    3.637958
     84          6           0        2.387711    6.159869    0.149934
     85          6           0        0.333061    5.160934   -0.896999
     86          1           0       -4.291124    3.805966   -2.119659
     87          1           0       -5.751345    4.572208   -2.751044
     88          1           0       -4.965735    3.300779   -3.686404
     89          1           0       -8.000378    1.649020   -2.207939
     90          1           0       -7.253641    2.175305   -3.717026
     91          1           0       -7.984499    3.369213   -2.633401
     92          1           0       -1.141616   -3.865224    4.352137
     93          1           0       -1.389338   -4.273068    2.638942
     94          1           0       -1.913631   -5.386137    3.906884
     95          1           0       -4.016015   -4.887681    5.256486
     96          1           0       -4.779661   -3.298088    5.082293
     97          1           0       -3.178197   -3.429975    5.810446
     98          1           0        0.786658    5.090000   -1.884163
     99          1           0       -0.128478    6.138560   -0.790800
    100          1           0       -0.444147    4.407938   -0.797551
    101          1           0        1.870112    7.099610    0.322009
    102          1           0        2.876292    6.198260   -0.820731
    103          1           0        3.149946    6.026496    0.912674
    104          1           0       -0.017671   -5.875743   -3.393885
    105          1           0        1.510342   -5.648279   -4.260961
    106          1           0        0.061818   -4.759903   -4.758181
    107          1           0        2.016418   -3.796637   -1.051850
    108          1           0        2.623575   -5.121842   -2.062050
    109          1           0        1.083218   -5.285103   -1.201291
    110          1           0        9.530671    1.890641    0.410746
    111          1           0        8.490558    1.057930   -0.752225
    112          1           0       10.245084    0.912265   -0.880440
    113          1           0       10.661194   -1.190611    2.198910
    114          1           0       10.771054    0.572471    2.169951
    115          1           0       11.529717   -0.386546    0.890731
    116          1           0        8.220039    0.743000    2.276030
    117          1           0        8.201839   -1.044210    2.339138
 ---------------------------------------------------------------------

 SCF Done:  E(RPBE1PBE) =  -2372.68834645     a.u. after    6 cycles
 SCF Done:  E(RPBE1PBE) =  -2372.68838170     A.U. after   10 cycles

 The electronic state is 1-A.
 Alpha  occ. eigenvalues --  -14.38096 -14.38038 -14.37769 -14.37722 -14.37660
 Alpha  occ. eigenvalues --  -14.37618 -14.37564 -14.37515 -14.37365 -14.35487
 Alpha  occ. eigenvalues --  -10.26936 -10.26891 -10.26863 -10.26837 -10.26684
 Alpha  occ. eigenvalues --  -10.26650 -10.26634 -10.26629 -10.26626 -10.26611
 Alpha  occ. eigenvalues --  -10.26459 -10.26430 -10.26192 -10.25873 -10.24694
 Alpha  occ. eigenvalues --  -10.24648 -10.24589 -10.24543 -10.24516 -10.24444
 Alpha  occ. eigenvalues --  -10.24426 -10.24403 -10.24347 -10.24274 -10.24262
 Alpha  occ. eigenvalues --  -10.24244 -10.24161 -10.24153 -10.24143 -10.24084
 Alpha  occ. eigenvalues --  -10.24070 -10.24050 -10.23937 -10.23792 -10.23703
 Alpha  occ. eigenvalues --  -10.23479 -10.23262 -10.20970 -10.20891 -10.20869
 Alpha  occ. eigenvalues --  -10.20622 -10.20591 -10.20566 -10.20515 -10.20496
 Alpha  occ. eigenvalues --  -10.20476 -10.20215  -0.97910  -0.97753  -0.97745
 Alpha  occ. eigenvalues --   -0.97622  -0.96826  -0.95370  -0.95302  -0.94878
 Alpha  occ. eigenvalues --   -0.94613  -0.91805  -0.90439  -0.89938  -0.89636
 Alpha  occ. eigenvalues --   -0.83978  -0.83678  -0.83570  -0.82145  -0.81076
 Alpha  occ. eigenvalues --   -0.80761  -0.80171  -0.79034  -0.78589  -0.78034
 Alpha  occ. eigenvalues --   -0.77850  -0.72963  -0.72350  -0.72290  -0.72082
 Alpha  occ. eigenvalues --   -0.72076  -0.71414  -0.71358  -0.71342  -0.71139
 Alpha  occ. eigenvalues --   -0.71013  -0.68607  -0.68311  -0.68148  -0.67096
 Alpha  occ. eigenvalues --   -0.65873  -0.65542  -0.65013  -0.64137  -0.63714
 Alpha  occ. eigenvalues --   -0.61054  -0.60340  -0.58855  -0.57897  -0.57337
 Alpha  occ. eigenvalues --   -0.57262  -0.56667  -0.56167  -0.54923  -0.54866
 Alpha  occ. eigenvalues --   -0.54656  -0.54058  -0.53244  -0.52793  -0.52427
 Alpha  occ. eigenvalues --   -0.51632  -0.51333  -0.50996  -0.50713  -0.50268
 Alpha  occ. eigenvalues --   -0.50069  -0.49659  -0.49566  -0.49126  -0.48730
 Alpha  occ. eigenvalues --   -0.48601  -0.48360  -0.48022  -0.47984  -0.47867
 Alpha  occ. eigenvalues --   -0.47341  -0.47268  -0.46806  -0.46395  -0.46344
 Alpha  occ. eigenvalues --   -0.45819  -0.45393  -0.45125  -0.45008  -0.44876
 Alpha  occ. eigenvalues --   -0.44728  -0.44179  -0.43559  -0.42954  -0.42730
 Alpha  occ. eigenvalues --   -0.42160  -0.42012  -0.41810  -0.41598  -0.41301
 Alpha  occ. eigenvalues --   -0.41085  -0.40999  -0.40834  -0.40716  -0.39820
 Alpha  occ. eigenvalues --   -0.39803  -0.39645  -0.39612  -0.39510  -0.39452
 Alpha  occ. eigenvalues --   -0.39260  -0.39059  -0.39013  -0.38725  -0.38568
 Alpha  occ. eigenvalues --   -0.38350  -0.38260  -0.37867  -0.37661  -0.37309
 Alpha  occ. eigenvalues --   -0.37079  -0.37050  -0.36892  -0.36841  -0.36574
 Alpha  occ. eigenvalues --   -0.36300  -0.36127  -0.36069  -0.35835  -0.35318
 Alpha  occ. eigenvalues --   -0.34946  -0.34803  -0.34399  -0.34367  -0.33989
 Alpha  occ. eigenvalues --   -0.33850  -0.33674  -0.31301  -0.30524  -0.30167
 Alpha  occ. eigenvalues --   -0.27876  -0.27403  -0.27181  -0.26987  -0.26882
 Alpha  occ. eigenvalues --   -0.26827  -0.26586  -0.26579  -0.26481  -0.26412
 Alpha  occ. eigenvalues --   -0.26066  -0.25725  -0.25405  -0.25168  -0.25049
 Alpha  occ. eigenvalues --   -0.24797
 Alpha virt. eigenvalues --   -0.07064  -0.06308  -0.06179  -0.05928  -0.05578
 Alpha virt. eigenvalues --   -0.04988  -0.02328  -0.02223  -0.01313   0.03481
 Alpha virt. eigenvalues --    0.04159   0.04522   0.04696   0.04995   0.05079

 Mulliken charges:
               1
     1  C    0.395851
     2  C   -0.175134
     3  C   -0.388608
     4  C    0.383359
     5  H    0.124626
     6  C   -0.354596
     7  C    0.269722
     8  H    0.133956
     9  C   -0.290859
    10  C   -0.139513
    11  H    0.133241
    12  C   -0.177799
    13  H    0.102079
    14  H    0.094808
    15  H    0.093042
    16  C    0.357977
    17  C   -0.176115
    18  C   -0.352070
    19  C    0.377646
    20  H    0.131278
    21  C   -0.367910
    22  C    0.390072
    23  H    0.138754
    24  C   -0.351947
    25  C   -0.199032
    26  H    0.126852
    27  C   -0.209371
    28  H    0.103318
    29  H    0.089549
    30  H    0.097787
    31  C    0.269283
    32  C   -0.139748
    33  C   -0.303010
    34  C    0.397933
    35  H    0.134735
    36  C   -0.390017
    37  C    0.339536
    38  H    0.120230
    39  C   -0.359250
    40  C   -0.136224
    41  H    0.132420
    42  C   -0.179039
    43  H    0.105614
    44  H    0.093583
    45  C    0.148063
    46  C   -0.060014
    47  N   -0.203654
    48  N   -0.208661
    49  C    0.154774
    50  C   -0.134158
    51  N   -0.550061
    52  N   -0.193516
    53  C   -0.100901
    54  C    0.144170
    55  N   -0.202232
    56  N   -0.192746
    57  C    0.151502
    58  C   -0.063051
    59  N   -0.203004
    60  N   -0.207767
    61  C   -0.126136
    62  C    0.158422
    63  N   -0.201708
    64  N   -0.197888
    65  H    0.223831
    66  H    0.231383
    67  H    0.099778
    68  C   -0.372578
    69  C   -0.386241
    70  C   -0.448875
    71  C   -0.374713
    72  H    0.088032
    73  H    0.122032
    74  H    0.113458
    75  H    0.136898
    76  C   -0.399433
    77  C   -0.376826
    78  H    0.092821
    79  H    0.129441
    80  H    0.086457
    81  H    0.122129
    82  C   -0.373718
    83  C   -0.448658
    84  C   -0.357709
    85  C   -0.427074
    86  H    0.147510
    87  H    0.136551
    88  H    0.136733
    89  H    0.129189
    90  H    0.129090
    91  H    0.127514
    92  H    0.135753
    93  H    0.148763
    94  H    0.135932
    95  H    0.127867
    96  H    0.129297
    97  H    0.129155
    98  H    0.135177
    99  H    0.133918
   100  H    0.149723
   101  H    0.124673
   102  H    0.127586
   103  H    0.125679
   104  H    0.133514
   105  H    0.127305
   106  H    0.129732
   107  H    0.137997
   108  H    0.126039
   109  H    0.132855
   110  H    0.119708
   111  H    0.132577
   112  H    0.126350
   113  H    0.125538
   114  H    0.122972
   115  H    0.128564
   116  H    0.083815
   117  H    0.124043
 Sum of Mulliken charges =   0.00000

 Dipole moment (field-independent basis, Debye):
    X=              1.1793    Y=              0.4353    Z=              0.5913  Tot=              1.3892
 Quadrupole moment (field-independent basis, Debye-Ang):
   XX=           -348.2007   YY=           -333.2324   ZZ=           -324.1511
   XY=             -3.3415   XZ=             16.2591   YZ=             -9.5501

 Normal termination of Gaussian 16 at Mon Oct 18 12:05:12 2021.
