 Gaussian 16, Revision C.01,
 Gaussian 16:  ES64L-G16RevC.01  3-Jul-2019

 ----------------------------------------------------------------------
 #P MP2/aug-cc-pVDZ SP SCF=(YQC,MaxCycle=900) int=(Grid=Superfinegrid)
 SCRF=(PCM,Solvent=Chloroform)
 ----------------------------------------------------------------------

 -----------------------------
 _3_alde1_5_ami3_1_opt_cfm_mp2
 -----------------------------
 Symbolic Z-matrix:
 Charge =  0 Multiplicity = 1

                         Standard orientation:
 ---------------------------------------------------------------------
 Center     Atomic      Atomic             Coordinates (Angstroms)
 Number     Number       Type             X           Y           Z
 ---------------------------------------------------------------------
      1          6           0       -0.900568    0.020281   -2.792257
      2          6           0       -0.176461   -1.129426   -3.310537
      3          6           0       -0.297659    1.255068   -2.555796
      4          6           0       -1.044037    2.318226   -2.054122
      5          1           0        0.751861    1.371721   -2.778758
      6          6           0       -2.384635    2.121655   -1.722241
      7          6           0       -2.997456    0.895098   -1.946008
      8          1           0       -2.932516    2.953062   -1.305636
      9          6           0       -2.255239   -0.137957   -2.512940
     10          6           0       -4.373948    0.661484   -1.528568
     11          1           0       -2.752421   -1.076286   -2.701496
     12          6           0       -0.436610    3.629194   -1.874711
     13          1           0       -4.753427    1.349679   -0.756476
     14          1           0       -0.826837   -1.963262   -3.617141
     15          1           0        0.624480    3.705295   -2.152671
     16          6           0        2.840820    1.169554    0.453350
     17          6           0        3.740434    0.792637   -0.694216
     18          6           0        2.680609    0.326452    1.542970
     19          6           0        1.853295    0.684513    2.606298
     20          1           0        3.193626   -0.623871    1.552782
     21          6           0        1.153118    1.887510    2.553453
     22          6           0        1.309209    2.739718    1.468068
     23          1           0        0.496060    2.136599    3.372435
     24          6           0        2.171946    2.380277    0.432302
     25          6           0        0.521514    3.957228    1.342126
     26          1           0        2.290212    3.060593   -0.395488
     27          6           0        1.708937   -0.217841    3.736576
     28          1           0       -0.380736    4.016229    1.971163
     29          1           0        2.227863   -1.184711    3.637434
     30          6           0       -0.513862   -2.840130    0.117777
     31          6           0        0.713986   -2.948626   -0.657267
     32          6           0       -1.749939   -2.986425   -0.508435
     33          6           0       -2.930230   -2.696727    0.167364
     34          1           0       -1.763701   -3.287712   -1.544373
     35          6           0       -2.872667   -2.300829    1.502753
     36          6           0       -1.650784   -2.218388    2.160204
     37          1           0       -3.795842   -2.062067    2.008251
     38          6           0       -0.473637   -2.473220    1.458076
     39          6           0       -1.587097   -1.781732    3.549546
     40          1           0        0.467647   -2.356454    1.971972
     41          6           0       -4.181754   -2.689901   -0.571454
     42          1           0       -2.434458   -1.168561    3.895507
     43          1           0       -4.111580   -3.043863   -1.611555
     44          6           0        1.932317   -3.359672   -2.591669
     45          6           0        1.604255   -2.487727   -3.831328
     46          7           0        0.739485   -3.459001   -1.811688
     47          1           0        2.743586   -2.876256   -2.021244
     48          6           0        2.396386   -4.734257   -3.074912
     49          7           0        1.081117   -1.223905   -3.394830
     50          1           0        0.847514   -3.041551   -4.414865
     51          6           0        2.865837   -2.313091   -4.671129
     52          1           0        1.584887   -5.205432   -3.632011
     53          6           0        3.636043   -4.597813   -3.953875
     54          1           0        3.628710   -1.811073   -4.073168
     55          6           0        3.370774   -3.674232   -5.140369
     56          1           0        3.939663   -5.583051   -4.313658
     57          1           0        4.456849   -4.193300   -3.357770
     58          1           0        4.285493   -3.548745   -5.723594
     59          1           0        2.620040   -4.128652   -5.791090
     60          6           0        5.223841   -1.016110   -0.701597
     61          6           0        5.949870    0.287910   -1.074378
     62          7           0        3.816452   -0.676732   -0.864133
     63          1           0        5.386285   -1.205754    0.371846
     64          6           0        5.797282   -2.177503   -1.488211
     65          7           0        5.100320    1.314449   -0.490779
     66          1           0        5.891837    0.422720   -2.164538
     67          6           0        7.404753    0.219645   -0.659402
     68          1           0        5.673529   -1.998237   -2.559683
     69          6           0        7.286655   -2.277387   -1.141780
     70          1           0        7.477091    0.072331    0.421077
     71          6           0        8.035138   -0.965688   -1.398453
     72          1           0        7.746692   -3.074508   -1.729209
     73          1           0        7.384254   -2.544081   -0.086615
     74          1           0        9.075521   -1.080676   -1.088663
     75          1           0        8.029052   -0.754532   -2.470389
     76          6           0       -0.425398    5.864817   -1.232431
     77          6           0       -0.047072    5.951620    0.267951
     78          7           0       -1.093792    4.618356   -1.445923
     79          1           0        0.516806    5.923046   -1.804932
     80          6           0       -1.342446    7.028194   -1.600815
     81          7           0        0.834036    4.858816    0.518712
     82          1           0       -0.972825    5.884942    0.868496
     83          6           0        0.651286    7.284752    0.536115
     84          1           0       -2.263670    6.941831   -1.022233
     85          6           0       -0.659148    8.360515   -1.313307
     86          1           0        1.575432    7.316303   -0.043409
     87          6           0       -0.254059    8.450767    0.154996
     88          1           0       -1.332823    9.182039   -1.565142
     89          1           0        0.231002    8.452614   -1.940073
     90          1           0        0.264277    9.393470    0.341688
     91          1           0       -1.150545    8.431494    0.779376
     92          6           0       -6.351953   -0.563974   -1.415543
     93          6           0       -6.359273   -2.055010   -0.995421
     94          7           0       -5.067907   -0.288552   -1.981068
     95          1           0       -6.537473    0.053285   -0.517849
     96          6           0       -7.473303   -0.330888   -2.428550
     97          7           0       -5.260857   -2.237365   -0.097493
     98          1           0       -6.229581   -2.653184   -1.915350
     99          6           0       -7.694957   -2.388786   -0.340013
    100          1           0       -7.286880   -0.945991   -3.310568
    101          6           0       -8.820764   -0.684941   -1.806797
    102          1           0       -7.813610   -1.772962    0.552981
    103          6           0       -8.835632   -2.132011   -1.320269
    104          1           0       -9.614345   -0.532359   -2.541063
    105          1           0       -9.012901   -0.018412   -0.962559
    106          1           0       -9.791360   -2.351087   -0.839947
    107          1           0       -8.730464   -2.801683   -2.177173
    108          6           0        0.875335   -0.925401    5.778652
    109          6           0       -0.536839   -1.530793    5.615864
    110          7           0        1.038110    0.071408    4.765736
    111          1           0        1.599973   -1.750207    5.651669
    112          6           0        1.012625   -0.319289    7.172821
    113          7           0       -0.613788   -2.071105    4.294507
    114          1           0       -1.285507   -0.733461    5.772544
    115          6           0       -0.736405   -2.623855    6.667490
    116          1           0        0.281234    0.483406    7.279444
    117          6           0        0.788191   -1.388757    8.236954
    118          1           0       -0.000657   -3.412303    6.499537
    119          6           0       -0.581188   -2.041534    8.068684
    120          1           0        0.866940   -0.942642    9.230461
    121          1           0        1.564949   -2.152160    8.150042
    122          1           0       -0.709836   -2.832504    8.810312
    123          1           0       -1.360562   -1.294526    8.236561
    124          1           0        1.605997   -2.498637   -0.196829
    125          1           0        5.289417    1.391019    0.506135
    126          1           0        3.348194    1.250081   -1.614031
    127          1           0        3.479519   -0.924438   -1.788380
    128          1           0        2.615503   -5.360605   -2.207522
    129          1           0        2.640103   -1.675544   -5.528153
    130          1           0        5.290203   -3.110479   -1.232563
    131          1           0        7.924716    1.144414   -0.913049
    132          1           0       -1.602590    6.954028   -2.658603
    133          1           0        0.916048    7.338530    1.594392
    134          1           0       -7.461713    0.716135   -2.739443
    135          1           0       -7.690221   -3.435142   -0.028732
    136          1           0        2.007784    0.117574    7.276616
    137          1           0       -1.730619   -3.059226    6.544176
 ---------------------------------------------------------------------

 SCF Done:  E(RHF) =  -2744.02358816     a.u. after    7 cycles
 SCF Done:  E(RHF) =  -2744.02363681     A.U. after   25 cycles
 E2 =    -0.9748114338D+01 EUMP2 =    -0.27537717511534D+04

 The electronic state is 1-A.
 Alpha  occ. eigenvalues --  -15.56036 -15.56001 -15.55882 -15.55761 -15.55688
 Alpha  occ. eigenvalues --  -15.55620 -15.55619 -15.55569 -15.55323 -15.54644
 Alpha  occ. eigenvalues --  -11.28962 -11.28578 -11.28524 -11.28462 -11.28357
 Alpha  occ. eigenvalues --  -11.28351 -11.28280 -11.28255 -11.28184 -11.25574
 Alpha  occ. eigenvalues --  -11.25549 -11.25492 -11.25480 -11.25434 -11.25432
 Alpha  occ. eigenvalues --  -11.25367 -11.25268 -11.25265 -11.25251 -11.25204
 Alpha  occ. eigenvalues --  -11.25160 -11.25158 -11.25124 -11.25031 -11.24972
 Alpha  occ. eigenvalues --  -11.24959 -11.24934 -11.24931 -11.24886 -11.24852
 Alpha  occ. eigenvalues --  -11.24841 -11.24531 -11.24485 -11.24362 -11.24267
 Alpha  occ. eigenvalues --  -11.24118 -11.23913 -11.22547 -11.22453 -11.22391
 Alpha  occ. eigenvalues --  -11.22324 -11.22088 -11.22040 -11.22039 -11.22022
 Alpha  occ. eigenvalues --  -11.22014 -11.21969 -11.21956 -11.21937 -11.21905
 Alpha  occ. eigenvalues --  -11.21864 -11.21862 -11.21809 -11.21782 -11.21759
 Alpha  occ. eigenvalues --  -11.21724 -11.21651  -1.27867  -1.26654  -1.26430
 Alpha  occ. eigenvalues --   -1.26388  -1.26345  -1.23603  -1.23366  -1.23050
 Alpha  occ. eigenvalues --   -1.23004  -1.17713  -1.16815  -1.16722  -1.14785
 Alpha  occ. eigenvalues --   -1.11762  -1.11608  -1.11445  -1.11141  -1.10680
 Alpha  occ. eigenvalues --   -1.05960  -1.05920  -1.05787  -1.05748  -1.05390
 Alpha  occ. eigenvalues --   -1.05091  -1.00747  -1.00502  -1.00185  -1.00143
 Alpha  occ. eigenvalues --   -1.00070  -0.99986  -0.99145  -0.98866  -0.98831
 Alpha  occ. eigenvalues --   -0.97799  -0.90248  -0.89902  -0.89819  -0.89237
 Alpha  occ. eigenvalues --   -0.88550  -0.88228  -0.87608  -0.87078  -0.86234
 Alpha  occ. eigenvalues --   -0.83086  -0.82972  -0.82878  -0.82677  -0.82319
 Alpha  occ. eigenvalues --   -0.82209  -0.81989  -0.81280  -0.80587  -0.79923
 Alpha  occ. eigenvalues --   -0.78169  -0.77153  -0.76856  -0.76758  -0.76685
 Alpha  occ. eigenvalues --   -0.75810  -0.74990  -0.74863  -0.74517  -0.74319
 Alpha  occ. eigenvalues --   -0.74175  -0.70639  -0.70219  -0.70066  -0.69411
 Alpha  occ. eigenvalues --   -0.68928  -0.68803  -0.67196  -0.67031  -0.66836
 Alpha  occ. eigenvalues --   -0.66440  -0.66128  -0.65711  -0.65600  -0.65511
 Alpha  occ. eigenvalues --   -0.65127  -0.64094  -0.63189  -0.62930  -0.62716
 Alpha  occ. eigenvalues --   -0.62657  -0.62575  -0.62536  -0.62424  -0.62303
 Alpha  occ. eigenvalues --   -0.61376  -0.61110  -0.60587  -0.60324  -0.60043
 Alpha  occ. eigenvalues --   -0.59662  -0.59536  -0.59156  -0.59103  -0.58978
 Alpha  occ. eigenvalues --   -0.58895  -0.58527  -0.57753  -0.57507  -0.57430
 Alpha  occ. eigenvalues --   -0.57041  -0.56152  -0.56122  -0.55941  -0.55900
 Alpha  occ. eigenvalues --   -0.55633  -0.55081  -0.54101  -0.53998  -0.53896
 Alpha  occ. eigenvalues --   -0.53693  -0.53567  -0.53437  -0.53245  -0.52686
 Alpha  occ. eigenvalues --   -0.52421  -0.52270  -0.51963  -0.51741  -0.51382
 Alpha  occ. eigenvalues --   -0.50992  -0.50133  -0.49663  -0.49340  -0.49190
 Alpha  occ. eigenvalues --   -0.49126  -0.48911  -0.48804  -0.48710  -0.48520
 Alpha  occ. eigenvalues --   -0.48410  -0.47612  -0.47299  -0.47101  -0.47077
 Alpha  occ. eigenvalues --   -0.46958  -0.46859  -0.46802  -0.46513  -0.46396
 Alpha  occ. eigenvalues --   -0.46297  -0.46277  -0.45613  -0.45490  -0.45327
 Alpha  occ. eigenvalues --   -0.45018  -0.44718  -0.43678  -0.43366  -0.42960
 Alpha  occ. eigenvalues --   -0.42694  -0.42457  -0.41061  -0.40844  -0.40714
 Alpha  occ. eigenvalues --   -0.40660  -0.40513  -0.40451  -0.40142  -0.39901
 Alpha  occ. eigenvalues --   -0.39605  -0.39034  -0.38665  -0.38032  -0.37122
 Alpha  occ. eigenvalues --   -0.32801  -0.32617  -0.32386  -0.32180  -0.31828
 Alpha  occ. eigenvalues --   -0.31568
 Alpha virt. eigenvalues --    0.03091   0.03377   0.03485   0.03586   0.03810
 Alpha virt. eigenvalues --    0.03860   0.03900   0.04168   0.04199   0.04483
 Alpha virt. eigenvalues --    0.04538   0.04825   0.04916   0.04981   0.05100

 Mulliken charges:
               1
     1  C    2.051784
     2  C    0.302228
     3  C    0.047941
     4  C    1.685569
     5  H   -1.006618
     6  C   -0.270345
     7  C    1.507374
     8  H   -0.895676
     9  C   -0.017048
    10  C    0.431176
    11  H   -1.127153
    12  C    0.544165
    13  H   -0.788502
    14  H   -0.753472
    15  H   -0.776834
    16  C    1.472722
    17  C    1.023697
    18  C    0.535894
    19  C    1.707569
    20  H   -1.344980
    21  C    0.053283
    22  C    0.919064
    23  H   -0.894916
    24  C   -0.027213
    25  C    0.363741
    26  H   -1.188735
    27  C    0.489808
    28  H   -0.836193
    29  H   -0.710816
    30  C    1.121137
    31  C    0.823515
    32  C    0.435311
    33  C    1.519635
    34  H   -1.054533
    35  C   -0.012487
    36  C    0.921190
    37  H   -0.866396
    38  C    0.756959
    39  C    0.230656
    40  H   -0.806697
    41  C    0.394146
    42  H   -0.727179
    43  H   -0.723288
    44  C   -0.401018
    45  C    0.140389
    46  N   -0.535374
    47  H   -0.579492
    48  C    0.794853
    49  N   -0.547654
    50  H   -0.355270
    51  C    0.812210
    52  H   -0.132410
    53  C    0.738715
    54  H   -0.169863
    55  C    0.515480
    56  H   -0.178698
    57  H   -0.126672
    58  H   -0.196321
    59  H   -0.109736
    60  C   -0.305720
    61  C   -0.164994
    62  N   -0.246701
    63  H   -0.571164
    64  C    1.135460
    65  N   -0.853189
    66  H   -0.450811
    67  C    0.839816
    68  H   -0.145915
    69  C    0.318653
    70  H   -0.003414
    71  C    0.553069
    72  H   -0.154055
    73  H   -0.082077
    74  H   -0.167244
    75  H   -0.100330
    76  C   -0.357174
    77  C   -0.253679
    78  N   -0.486750
    79  H   -0.401208
    80  C    0.959715
    81  N   -0.329032
    82  H   -0.327174
    83  C    0.912146
    84  H   -0.144317
    85  C    0.541681
    86  H   -0.138093
    87  C    0.586071
    88  H   -0.146133
    89  H   -0.082552
    90  H   -0.143102
    91  H   -0.086504
    92  C   -0.457581
    93  C   -0.023115
    94  N   -0.430660
    95  H   -0.286431
    96  C    0.789101
    97  N   -0.660917
    98  H   -0.364065
    99  C    0.803697
   100  H   -0.124302
   101  C    0.525353
   102  H   -0.105525
   103  C    0.535646
   104  H   -0.140534
   105  H   -0.080526
   106  H   -0.145701
   107  H   -0.081784
   108  C   -0.157870
   109  C   -0.200304
   110  N   -0.555560
   111  H   -0.375538
   112  C    0.903261
   113  N   -0.434269
   114  H   -0.285563
   115  C    0.792593
   116  H   -0.140500
   117  C    0.541506
   118  H   -0.117348
   119  C    0.561120
   120  H   -0.143711
   121  H   -0.084976
   122  H   -0.142877
   123  H   -0.089897
   124  H   -0.963622
   125  H    0.146781
   126  H   -0.490471
   127  H    0.057269
   128  H   -0.258849
   129  H   -0.327866
   130  H   -0.422952
   131  H   -0.118836
   132  H   -0.212780
   133  H   -0.230877
   134  H   -0.226194
   135  H   -0.208513
   136  H   -0.223832
   137  H   -0.225885
 Sum of Mulliken charges =   0.00000

 Dipole moment (field-independent basis, Debye):
    X=              1.2945    Y=             -1.3263    Z=             -0.2735  Tot=              1.8734
 Quadrupole moment (field-independent basis, Debye-Ang):
   XX=           -372.7000   YY=           -407.5445   ZZ=           -393.5176
   XY=            -19.5523   XZ=             -8.3134   YZ=              7.5140

 Normal termination of Gaussian 16 at Thu Oct 28 03:18:31 2021.
