 Gaussian 16, Revision C.01,
 Gaussian 16:  ES64L-G16RevC.01  3-Jul-2019

 ----------------------------------------------------------------------
 #P PBE1PBE/Def2TZVP SP SCF=(YQC,MaxCycle=900) int=(Grid=Superfinegrid)
  EmpiricalDispersion=GD3 SCRF=(PCM,Solvent=Chloroform)
 ----------------------------------------------------------------------

 -------------------------
 _3_alde1_6_ami1_2_opt_cfm
 -------------------------
 Symbolic Z-matrix:
 Charge =  0 Multiplicity = 1

                         Standard orientation:
 ---------------------------------------------------------------------
 Center     Atomic      Atomic             Coordinates (Angstroms)
 Number     Number       Type             X           Y           Z
 ---------------------------------------------------------------------
      1          6           0        1.624795    2.820995    0.065714
      2          6           0        1.137824    3.543453   -1.102009
      3          6           0        0.985143    2.956776    1.294328
      4          6           0        1.445092    2.271455    2.414724
      5          1           0        0.121419    3.595443    1.377566
      6          6           0        2.572668    1.464782    2.305918
      7          6           0        3.241007    1.339404    1.089673
      8          1           0        2.962302    0.933440    3.160801
      9          6           0        2.748531    2.003121   -0.030679
     10          6           0        4.447688    0.532522    0.987042
     11          1           0        3.248497    1.887803   -0.982530
     12          6           0        0.741070    2.392277    3.684973
     13          1           0        4.833130    0.377223   -0.032205
     14          1           0        1.732318    3.429694   -2.021346
     15          1           0        0.933751    1.594297    4.419572
     16          6           0       -3.476620   -0.014611   -0.098053
     17          6           0       -3.866383    0.083432   -1.497240
     18          6           0       -3.359358   -1.260539    0.509415
     19          6           0       -2.961379   -1.370493    1.838110
     20          1           0       -3.569078   -2.153112   -0.056441
     21          6           0       -2.706784   -0.216560    2.571009
     22          6           0       -2.847619    1.040600    1.985819
     23          1           0       -2.408435   -0.268669    3.606942
     24          6           0       -3.213276    1.133680    0.645682
     25          6           0       -2.629819    2.249848    2.766361
     26          1           0       -3.303611    2.106383    0.181880
     27          6           0       -2.790681   -2.689602    2.432895
     28          1           0       -2.610220    3.191172    2.195750
     29          1           0       -3.931645    1.101681   -1.910066
     30          1           0       -2.187020   -2.731823    3.353135
     31          6           0        1.511761   -2.218565   -1.767748
     32          6           0        1.694540   -1.594818   -3.070604
     33          6           0        2.529811   -2.159948   -0.821089
     34          6           0        2.388727   -2.777947    0.417185
     35          1           0        3.440834   -1.631878   -1.047340
     36          6           0        1.217406   -3.468720    0.704860
     37          6           0        0.195561   -3.555406   -0.239374
     38          1           0        1.082495   -3.968616    1.651777
     39          6           0        0.344121   -2.917725   -1.468257
     40          6           0       -1.004802   -4.328523    0.044562
     41          1           0       -0.449179   -2.974761   -2.200720
     42          6           0        3.466100   -2.686935    1.394274
     43          1           0       -1.814399   -4.248875   -0.697287
     44          1           0        0.918469   -1.806295   -3.822763
     45          1           0        3.187640   -2.871445    2.443752
     46          6           0       -0.007192    6.498539   -1.879399
     47          6           0       -0.335520    5.014095   -2.181957
     48          7           0        1.446014    6.627486   -1.914586
     49          1           0       -0.415496    6.719364   -0.876987
     50          6           0       -0.629057    7.494198   -2.877779
     51          7           0        0.104209    4.263019   -1.045802
     52          1           0        0.227819    4.737923   -3.091015
     53          6           0       -1.830986    4.712933   -2.402839
     54          1           0       -1.713785    7.354282   -2.861791
     55          6           0       -0.110354    7.269288   -4.295434
     56          6           0       -0.354316    8.935899   -2.443984
     57          1           0       -2.190967    5.328627   -3.231960
     58          6           0       -2.654815    5.013595   -1.153451
     59          6           0       -1.998318    3.247914   -2.805303
     60          1           0        0.693573    9.190307   -2.581750
     61          1           0       -0.618473    9.083634   -1.398272
     62          1           0       -0.946895    9.622517   -3.044564
     63          1           0       -0.452774    8.066558   -4.951168
     64          1           0       -0.462880    6.322720   -4.696310
     65          1           0        0.975857    7.259456   -4.286270
     66          1           0       -1.647319    2.591508   -2.011376
     67          1           0       -1.431404    3.027093   -3.707221
     68          1           0       -3.046945    3.033781   -3.003466
     69          1           0       -2.224736    4.492482   -0.302532
     70          1           0       -3.683481    4.685499   -1.292989
     71          1           0       -2.665375    6.078697   -0.938085
     72          6           0       -5.827674   -1.599131   -3.775164
     73          6           0       -4.471183   -0.854002   -3.558823
     74          7           0       -6.129411   -2.596195   -2.763716
     75          1           0       -5.763092   -2.138966   -4.728743
     76          6           0       -7.035700   -0.644911   -3.888925
     77          7           0       -4.108444   -0.945409   -2.182176
     78          1           0       -4.580195    0.197503   -3.880155
     79          6           0       -3.335395   -1.462500   -4.415568
     80          1           0       -7.915339   -1.296166   -3.845375
     81          6           0       -7.046842    0.084473   -5.230812
     82          6           0       -7.138504    0.356990   -2.740103
     83          1           0       -3.677746   -1.449270   -5.457071
     84          6           0       -3.014479   -2.899987   -4.014858
     85          6           0       -2.081657   -0.595062   -4.311512
     86          1           0       -7.074440   -0.141725   -1.776142
     87          1           0       -8.093438    0.875846   -2.789755
     88          1           0       -6.349205    1.102903   -2.794558
     89          1           0       -6.174973    0.726725   -5.336343
     90          1           0       -7.936113    0.705503   -5.311913
     91          1           0       -7.049173   -0.626097   -6.054203
     92          1           0       -1.701921   -0.590757   -3.291099
     93          1           0       -2.295442    0.432314   -4.599790
     94          1           0       -1.305131   -0.979415   -4.969858
     95          1           0       -2.141956   -3.254608   -4.561438
     96          1           0       -3.843765   -3.565151   -4.242019
     97          1           0       -2.806261   -2.945088   -2.948378
     98          6           0        4.398055   -0.621709   -5.027597
     99          6           0        2.924694   -0.326923   -4.613279
    100          7           0        5.366820   -0.035825   -4.120917
    101          1           0        4.543727   -0.165593   -6.013354
    102          6           0        4.736778   -2.122943   -5.204926
    103          7           0        2.708954   -0.886805   -3.318421
    104          1           0        2.242257   -0.751349   -5.370729
    105          6           0        2.635557    1.193811   -4.537308
    106          1           0        5.686582   -2.132163   -5.752176
    107          6           0        3.698549   -2.854407   -6.053354
    108          6           0        4.972309   -2.867649   -3.892010
    109          1           0        3.223510    1.610347   -3.711720
    110          6           0        1.156424    1.422626   -4.229564
    111          6           0        2.994568    1.923614   -5.830552
    112          1           0        5.192758   -3.912021   -4.103955
    113          1           0        4.099427   -2.823666   -3.248262
    114          1           0        5.820596   -2.441950   -3.364445
    115          1           0        4.081646   -3.829778   -6.345096
    116          1           0        3.469266   -2.294400   -6.957956
    117          1           0        2.780378   -3.011142   -5.492184
    118          1           0        2.513132    1.445832   -6.681602
    119          1           0        4.066989    1.944467   -6.005724
    120          1           0        2.647116    2.953608   -5.776398
    121          1           0        0.535920    1.009096   -5.022438
    122          1           0        0.951539    2.488688   -4.158842
    123          1           0        0.871522    0.958013   -3.287741
    124          6           0       -0.768530    3.414790    5.145450
    125          6           0       -2.264526    3.436870    4.737692
    126          7           0       -0.039487    3.352476    3.915439
    127          1           0       -0.591496    2.512856    5.757313
    128          6           0       -0.317991    4.651102    5.949397
    129          7           0       -2.500450    2.219602    4.019529
    130          1           0       -2.409316    4.312435    4.081400
    131          6           0       -3.248439    3.525660    5.918531
    132          1           0       -0.922717    4.699111    6.860338
    133          6           0       -0.491160    5.944346    5.158169
    134          6           0        1.144251    4.479207    6.361607
    135          1           0       -3.047981    4.454842    6.461134
    136          6           0       -3.107328    2.342224    6.871056
    137          6           0       -4.674986    3.592286    5.372457
    138          1           0        1.783765    4.450011    5.482104
    139          1           0        1.282734    3.555729    6.920714
    140          1           0        1.457973    5.309699    6.990033
    141          1           0       -1.542378    6.175196    5.007298
    142          1           0       -0.010432    5.847048    4.188604
    143          1           0       -0.036078    6.773126    5.696224
    144          1           0       -4.913119    2.675114    4.838393
    145          1           0       -4.787359    4.429939    4.686775
    146          1           0       -5.386287    3.716376    6.185850
    147          1           0       -3.906469    2.359985    7.608917
    148          1           0       -2.157785    2.372601    7.399032
    149          1           0       -3.168113    1.414408    6.309230
    150          6           0        6.175281   -0.777994    1.829768
    151          6           0        5.675894   -2.236884    2.011666
    152          7           0        5.024962    0.059307    2.002909
    153          1           0        6.564944   -0.696718    0.800747
    154          6           0        7.273279   -0.350267    2.818973
    155          7           0        4.640628   -2.406621    1.039700
    156          1           0        5.278850   -2.340599    3.036596
    157          6           0        6.768226   -3.302805    1.793436
    158          1           0        8.134545   -1.011569    2.681356
    159          6           0        6.801918   -0.427837    4.268136
    160          6           0        7.709128    1.076742    2.485248
    161          1           0        7.577979   -3.106319    2.503270
    162          6           0        7.322515   -3.275031    0.371703
    163          6           0        6.190207   -4.683734    2.103715
    164          1           0        6.874536    1.761180    2.619951
    165          1           0        8.049023    1.145160    1.453700
    166          1           0        8.523164    1.386868    3.136479
    167          1           0        5.863596    0.109294    4.374098
    168          1           0        7.542024    0.022825    4.925762
    169          1           0        6.655299   -1.458724    4.580019
    170          1           0        6.964111   -5.443230    2.019524
    171          1           0        5.392626   -4.923918    1.403828
    172          1           0        5.786324   -4.716996    3.113849
    173          1           0        6.504780   -3.326609   -0.342072
    174          1           0        7.981889   -4.125728    0.213958
    175          1           0        7.892263   -2.368086    0.188331
    176          6           0       -3.044811   -5.013338    2.443501
    177          6           0       -2.307637   -5.785067    1.316346
    178          7           0       -3.297949   -3.713334    1.904189
    179          1           0       -2.372461   -4.957676    3.317847
    180          6           0       -4.374971   -5.657914    2.880897
    181          7           0       -1.095591   -5.063949    1.064097
    182          1           0       -2.965500   -5.768371    0.430490
    183          6           0       -1.963257   -7.245122    1.661049
    184          1           0       -4.157002   -6.664992    3.249947
    185          6           0       -5.375924   -5.744606    1.732381
    186          6           0       -4.968279   -4.849137    4.034788
    187          1           0       -2.897614   -7.779210    1.859914
    188          6           0       -1.052858   -7.344925    2.881292
    189          6           0       -1.291750   -7.895011    0.450886
    190          1           0       -5.872224   -5.327856    4.404173
    191          1           0       -5.220175   -3.845014    3.700439
    192          1           0       -4.260321   -4.772144    4.857952
    193          1           0       -6.343384   -6.072385    2.106531
    194          1           0       -5.047886   -6.453410    0.976743
    195          1           0       -5.490495   -4.767726    1.270950
    196          1           0       -0.351531   -7.393500    0.232423
    197          1           0       -1.930918   -7.828134   -0.427390
    198          1           0       -1.088889   -8.945057    0.648925
    199          1           0       -1.572283   -7.040120    3.786034
    200          1           0       -0.185863   -6.705751    2.741013
    201          1           0       -0.716253   -8.370991    3.012577
    202          1           0        5.120748   -0.303318   -3.173830
    203          1           0        5.338448    0.975975   -4.174070
    204          1           0        1.719018    7.547137   -1.587877
    205          1           0        1.866112    5.949154   -1.287359
    206          1           0       -6.214426   -2.148564   -1.856768
    207          1           0       -5.361841   -3.252842   -2.685206
 ---------------------------------------------------------------------

 SCF Done:  E(RPBE1PBE) =  -3584.37072040     a.u. after    6 cycles
 SCF Done:  E(RPBE1PBE) =  -3584.37075849     A.U. after    9 cycles

 The electronic state is 1-A.
 Alpha  occ. eigenvalues --  -14.37761 -14.37758 -14.37515 -14.37475 -14.37466
 Alpha  occ. eigenvalues --  -14.37462 -14.37379 -14.37358 -14.37338 -14.35748
 Alpha  occ. eigenvalues --  -14.35432 -14.35053 -10.26746 -10.26620 -10.26618
 Alpha  occ. eigenvalues --  -10.26501 -10.26492 -10.26468 -10.26413 -10.26393
 Alpha  occ. eigenvalues --  -10.26370 -10.24953 -10.24949 -10.24944 -10.24796
 Alpha  occ. eigenvalues --  -10.24777 -10.24764 -10.24753 -10.24675 -10.24637
 Alpha  occ. eigenvalues --  -10.24555 -10.24334 -10.24309 -10.24293 -10.24264
 Alpha  occ. eigenvalues --  -10.24261 -10.24258 -10.24236 -10.24224 -10.24210
 Alpha  occ. eigenvalues --  -10.24179 -10.24172 -10.24149 -10.24148 -10.24137
 Alpha  occ. eigenvalues --  -10.23756 -10.23746 -10.23699 -10.23377 -10.23300
 Alpha  occ. eigenvalues --  -10.23298 -10.22800 -10.22681 -10.22574 -10.22513
 Alpha  occ. eigenvalues --  -10.22509 -10.22460 -10.22361 -10.22324 -10.22306
 Alpha  occ. eigenvalues --  -10.22179 -10.21930 -10.21667 -10.20793 -10.20499
 Alpha  occ. eigenvalues --  -10.20480 -10.20393 -10.20366 -10.20362 -10.20341
 Alpha  occ. eigenvalues --  -10.20300 -10.20232 -10.20176 -10.20169 -10.20132
 Alpha  occ. eigenvalues --  -10.20102 -10.20067 -10.20064 -10.20041 -10.19940
 Alpha  occ. eigenvalues --  -10.19871 -10.19871 -10.19844 -10.19843 -10.19813
 Alpha  occ. eigenvalues --  -10.19732 -10.19195  -0.97900  -0.97809  -0.97773
 Alpha  occ. eigenvalues --   -0.97077  -0.96861  -0.96828  -0.95088  -0.95039
 Alpha  occ. eigenvalues --   -0.94791  -0.91344  -0.91289  -0.91027  -0.90041
 Alpha  occ. eigenvalues --   -0.89668  -0.89613  -0.84695  -0.84672  -0.84194
 Alpha  occ. eigenvalues --   -0.83413  -0.83133  -0.82931  -0.82255  -0.81802
 Alpha  occ. eigenvalues --   -0.81762  -0.81225  -0.80921  -0.80857  -0.80029
 Alpha  occ. eigenvalues --   -0.80008  -0.79969  -0.79519  -0.79480  -0.79264
 Alpha  occ. eigenvalues --   -0.74795  -0.74264  -0.74241  -0.73359  -0.73084
 Alpha  occ. eigenvalues --   -0.72924  -0.70756  -0.70542  -0.70417  -0.70392
 Alpha  occ. eigenvalues --   -0.70363  -0.70322  -0.70299  -0.70122  -0.70051
 Alpha  occ. eigenvalues --   -0.70013  -0.69989  -0.69775  -0.69175  -0.69110
 Alpha  occ. eigenvalues --   -0.69093  -0.67616  -0.67540  -0.67416  -0.66141
 Alpha  occ. eigenvalues --   -0.66079  -0.65395  -0.64225  -0.64173  -0.64013
 Alpha  occ. eigenvalues --   -0.62779  -0.62266  -0.62123  -0.59872  -0.59814
 Alpha  occ. eigenvalues --   -0.59553  -0.58989  -0.58603  -0.58506  -0.57882
 Alpha  occ. eigenvalues --   -0.57615  -0.57532  -0.57168  -0.56474  -0.56350
 Alpha  occ. eigenvalues --   -0.55938  -0.55580  -0.55236  -0.54939  -0.54849
 Alpha  occ. eigenvalues --   -0.54679  -0.53577  -0.53527  -0.53313  -0.52279
 Alpha  occ. eigenvalues --   -0.52214  -0.51977  -0.51812  -0.51397  -0.51185
 Alpha  occ. eigenvalues --   -0.51014  -0.50560  -0.50379  -0.50081  -0.49944
 Alpha  occ. eigenvalues --   -0.49898  -0.49124  -0.49040  -0.48924  -0.48767
 Alpha  occ. eigenvalues --   -0.48623  -0.48576  -0.48241  -0.48080  -0.47747
 Alpha  occ. eigenvalues --   -0.47395  -0.47304  -0.47265  -0.46494  -0.46461
 Alpha  occ. eigenvalues --   -0.46328  -0.46182  -0.45492  -0.45345  -0.45255
 Alpha  occ. eigenvalues --   -0.44898  -0.44860  -0.44819  -0.44762  -0.44702
 Alpha  occ. eigenvalues --   -0.44681  -0.44428  -0.44285  -0.44060  -0.43870
 Alpha  occ. eigenvalues --   -0.43807  -0.43541  -0.43419  -0.43336  -0.43128
 Alpha  occ. eigenvalues --   -0.42940  -0.42930  -0.42834  -0.42803  -0.42591
 Alpha  occ. eigenvalues --   -0.42431  -0.42352  -0.42269  -0.42132  -0.41923
 Alpha  occ. eigenvalues --   -0.41830  -0.41750  -0.41629  -0.41312  -0.40543
 Alpha  occ. eigenvalues --   -0.40396  -0.40264  -0.40235  -0.40169  -0.39937
 Alpha  occ. eigenvalues --   -0.39886  -0.39829  -0.39785  -0.39670  -0.39585
 Alpha  occ. eigenvalues --   -0.39149  -0.39047  -0.39036  -0.39021  -0.38959
 Alpha  occ. eigenvalues --   -0.38927  -0.38899  -0.38714  -0.38649  -0.38394
 Alpha  occ. eigenvalues --   -0.38312  -0.38149  -0.38109  -0.38014  -0.37935
 Alpha  occ. eigenvalues --   -0.37597  -0.37547  -0.37434  -0.37231  -0.37014
 Alpha  occ. eigenvalues --   -0.36932  -0.36814  -0.36379  -0.36362  -0.36160
 Alpha  occ. eigenvalues --   -0.35616  -0.35427  -0.35333  -0.34896  -0.34884
 Alpha  occ. eigenvalues --   -0.34868  -0.34818  -0.34804  -0.34684  -0.34665
 Alpha  occ. eigenvalues --   -0.34629  -0.34618  -0.34555  -0.34493  -0.34399
 Alpha  occ. eigenvalues --   -0.34372  -0.34312  -0.34176  -0.34072  -0.34007
 Alpha  occ. eigenvalues --   -0.33983  -0.33842  -0.33770  -0.33533  -0.33020
 Alpha  occ. eigenvalues --   -0.32962  -0.32922  -0.32703  -0.32565  -0.32457
 Alpha  occ. eigenvalues --   -0.32421  -0.32175  -0.31953  -0.31914  -0.31739
 Alpha  occ. eigenvalues --   -0.31580  -0.29973  -0.29872  -0.29296  -0.27223
 Alpha  occ. eigenvalues --   -0.27106  -0.27077  -0.27005  -0.26925  -0.26791
 Alpha  occ. eigenvalues --   -0.26619  -0.26576  -0.26515  -0.26122  -0.26014
 Alpha  occ. eigenvalues --   -0.25911  -0.25537  -0.25480  -0.25392  -0.24956
 Alpha  occ. eigenvalues --   -0.24384  -0.24375
 Alpha virt. eigenvalues --   -0.06963  -0.06319  -0.06218  -0.05337  -0.05312
 Alpha virt. eigenvalues --   -0.04992  -0.02018  -0.01967  -0.01536   0.02663
 Alpha virt. eigenvalues --    0.02876   0.03327   0.03644   0.03820   0.03936

 Mulliken charges:
               1
     1  C    0.424638
     2  C   -0.283429
     3  C   -0.369685
     4  C    0.418406
     5  H    0.136919
     6  C   -0.375320
     7  C    0.368417
     8  H    0.133240
     9  C   -0.350522
    10  C   -0.211527
    11  H    0.135172
    12  C   -0.189807
    13  H    0.099636
    14  H    0.113771
    15  H    0.087534
    16  C    0.429087
    17  C   -0.266239
    18  C   -0.374156
    19  C    0.422345
    20  H    0.137035
    21  C   -0.377738
    22  C    0.359356
    23  H    0.130659
    24  C   -0.357308
    25  C   -0.200191
    26  H    0.145310
    27  C   -0.193132
    28  H    0.103537
    29  H    0.092536
    30  H    0.087215
    31  C    0.441832
    32  C   -0.283934
    33  C   -0.368348
    34  C    0.413912
    35  H    0.149822
    36  C   -0.379374
    37  C    0.362263
    38  H    0.132739
    39  C   -0.341854
    40  C   -0.196571
    41  H    0.125864
    42  C   -0.188344
    43  H    0.101898
    44  H    0.103986
    45  H    0.088056
    46  C    0.070735
    47  C    0.085540
    48  N   -0.573212
    49  H    0.112969
    50  C   -0.053935
    51  N   -0.244338
    52  H    0.086673
    53  C    0.042727
    54  H    0.088288
    55  C   -0.397644
    56  C   -0.423870
    57  H    0.091112
    58  C   -0.417098
    59  C   -0.486545
    60  H    0.124402
    61  H    0.128661
    62  H    0.131062
    63  H    0.124623
    64  H    0.124081
    65  H    0.123755
    66  H    0.142120
    67  H    0.130138
    68  H    0.129614
    69  H    0.122963
    70  H    0.120398
    71  H    0.133881
    72  C    0.038042
    73  C    0.037231
    74  N   -0.502718
    75  H    0.092648
    76  C   -0.028897
    77  N   -0.227399
    78  H    0.070136
    79  C    0.078192
    80  H    0.076425
    81  C   -0.390417
    82  C   -0.388570
    83  H    0.083731
    84  C   -0.454408
    85  C   -0.486281
    86  H    0.122370
    87  H    0.136206
    88  H    0.107012
    89  H    0.114017
    90  H    0.127854
    91  H    0.125802
    92  H    0.139082
    93  H    0.128107
    94  H    0.129898
    95  H    0.124443
    96  H    0.147169
    97  H    0.129260
    98  C    0.102257
    99  C   -0.043822
   100  N   -0.551017
   101  H    0.111836
   102  C    0.063086
   103  N   -0.215886
   104  H    0.078368
   105  C   -0.003942
   106  H    0.069700
   107  C   -0.416866
   108  C   -0.452223
   109  H    0.069612
   110  C   -0.468947
   111  C   -0.400138
   112  H    0.118090
   113  H    0.131798
   114  H    0.131397
   115  H    0.130685
   116  H    0.125066
   117  H    0.121197
   118  H    0.125595
   119  H    0.136741
   120  H    0.131808
   121  H    0.121837
   122  H    0.130303
   123  H    0.150372
   124  C    0.087130
   125  C    0.110496
   126  N   -0.250609
   127  H    0.087767
   128  C   -0.023046
   129  N   -0.255138
   130  H    0.084921
   131  C   -0.011444
   132  H    0.090444
   133  C   -0.423293
   134  C   -0.395036
   135  H    0.089217
   136  C   -0.423829
   137  C   -0.398304
   138  H    0.127802
   139  H    0.118676
   140  H    0.129378
   141  H    0.127283
   142  H    0.134774
   143  H    0.124285
   144  H    0.128961
   145  H    0.118583
   146  H    0.127778
   147  H    0.123823
   148  H    0.126529
   149  H    0.133914
   150  C    0.105202
   151  C    0.086877
   152  N   -0.255577
   153  H    0.085911
   154  C   -0.004118
   155  N   -0.254502
   156  H    0.087445
   157  C   -0.017416
   158  H    0.087827
   159  C   -0.424860
   160  C   -0.401356
   161  H    0.088404
   162  C   -0.430672
   163  C   -0.395020
   164  H    0.128335
   165  H    0.119434
   166  H    0.127437
   167  H    0.133754
   168  H    0.123526
   169  H    0.126243
   170  H    0.128782
   171  H    0.127530
   172  H    0.118407
   173  H    0.142733
   174  H    0.123557
   175  H    0.126345
   176  C    0.090453
   177  C    0.098249
   178  N   -0.249373
   179  H    0.088204
   180  C   -0.024384
   181  N   -0.254424
   182  H    0.086310
   183  C   -0.008920
   184  H    0.090739
   185  C   -0.423587
   186  C   -0.394381
   187  H    0.089791
   188  C   -0.424001
   189  C   -0.399502
   190  H    0.129065
   191  H    0.127634
   192  H    0.118526
   193  H    0.124721
   194  H    0.127487
   195  H    0.135396
   196  H    0.129281
   197  H    0.118775
   198  H    0.127641
   199  H    0.126589
   200  H    0.134112
   201  H    0.123785
   202  H    0.236244
   203  H    0.223152
   204  H    0.227193
   205  H    0.225767
   206  H    0.222829
   207  H    0.220680
 Sum of Mulliken charges =  -0.00000

 Dipole moment (field-independent basis, Debye):
    X=             -0.5002    Y=              2.3619    Z=             -0.1248  Tot=              2.4175
 Quadrupole moment (field-independent basis, Debye-Ang):
   XX=           -570.1603   YY=           -533.3527   ZZ=           -522.0224
   XY=            -10.5096   XZ=             10.0339   YZ=             -8.2709

 Normal termination of Gaussian 16 at Mon Oct 18 14:08:44 2021.
