 Gaussian 16, Revision C.01,
 Gaussian 16:  ES64L-G16RevC.01  3-Jul-2019

 ----------------------------------------------------------------------
 #P PBE1PBE/Def2TZVP SP SCF=(YQC,MaxCycle=900) int=(Grid=Superfinegrid)
  EmpiricalDispersion=GD3 SCRF=(PCM,Solvent=Dichloromethane)
 ----------------------------------------------------------------------

 -------------------------
 _3_alde1_6_ami1_1_opt_dcm
 -------------------------
 Symbolic Z-matrix:
 Charge =  0 Multiplicity = 1

                         Standard orientation:
 ---------------------------------------------------------------------
 Center     Atomic      Atomic             Coordinates (Angstroms)
 Number     Number       Type             X           Y           Z
 ---------------------------------------------------------------------
      1          6           0        2.897658   -2.108604    1.257138
      2          6           0        3.230402   -3.327385    0.439091
      3          6           0        3.708670   -0.993606    1.127720
      4          6           0        3.469087    0.163962    1.863117
      5          1           0        4.532248   -1.003680    0.433799
      6          6           0        2.391152    0.198837    2.737763
      7          6           0        1.574205   -0.919023    2.891460
      8          1           0        2.178105    1.075997    3.329066
      9          6           0        1.829617   -2.067008    2.140125
     10          6           0        0.495711   -0.912830    3.870597
     11          1           0        1.199158   -2.936423    2.266749
     12          6           0        4.347901    1.312250    1.686862
     13          1           0       -0.186445   -1.777730    3.846445
     14          1           0        3.927477    2.294221    1.953576
     15          6           0        1.057217    0.247634   -2.466119
     16          6           0        0.393550   -1.041865   -2.882421
     17          6           0        0.333578    1.426944   -2.402848
     18          6           0        0.946592    2.618962   -2.017035
     19          1           0       -0.719364    1.440130   -2.630953
     20          6           0        2.293422    2.619261   -1.685241
     21          6           0        3.034552    1.442113   -1.758937
     22          1           0        2.795337    3.525650   -1.383078
     23          6           0        2.408960    0.258290   -2.145066
     24          6           0        4.445870    1.436207   -1.412446
     25          1           0        2.975956   -0.660353   -2.180475
     26          6           0        0.171594    3.852309   -1.966842
     27          1           0        4.941166    0.455350   -1.460622
     28          1           0        0.534648    4.620497   -1.265169
     29          6           0       -4.398836   -0.135543    0.783495
     30          6           0       -5.311285   -1.330115    0.713853
     31          6           0       -3.686109    0.146281    1.935158
     32          6           0       -2.858593    1.268538    2.005404
     33          1           0       -3.752833   -0.493996    2.800843
     34          6           0       -2.773061    2.121253    0.911742
     35          6           0       -3.490760    1.851067   -0.250301
     36          1           0       -2.153167    3.004307    0.940606
     37          6           0       -4.287756    0.711158   -0.311797
     38          6           0       -3.437625    2.759535   -1.387271
     39          1           0       -4.833610    0.475679   -1.214118
     40          6           0       -2.113308    1.552975    3.223378
     41          1           0       -3.751512    2.334259   -2.354149
     42          1           0       -1.420730    2.407780    3.177267
     43          6           0        4.194682   -4.026684   -1.570381
     44          6           0        5.090527   -4.493086   -0.389085
     45          7           0        3.408100   -2.964150   -0.961549
     46          1           0        4.799293   -3.589988   -2.373446
     47          6           0        3.338868   -5.154734   -2.193169
     48          7           0        4.498776   -3.921382    0.824522
     49          1           0        5.017713   -5.582837   -0.285661
     50          6           0        6.584818   -4.139336   -0.507197
     51          1           0        2.664204   -5.536305   -1.417911
     52          6           0        4.182713   -6.311314   -2.724995
     53          6           0        2.505558   -4.598751   -3.349514
     54          1           0        7.034649   -4.420112    0.453585
     55          6           0        6.845931   -2.650335   -0.733660
     56          6           0        7.265769   -4.959875   -1.600392
     57          1           0        3.161065   -4.251391   -4.146743
     58          1           0        1.883139   -3.767198   -3.032414
     59          1           0        1.859156   -5.375576   -3.754084
     60          1           0        4.891023   -5.951755   -3.468170
     61          1           0        3.537937   -7.048716   -3.199409
     62          1           0        4.736379   -6.811019   -1.935877
     63          1           0        7.121600   -6.024206   -1.432335
     64          1           0        8.334696   -4.757777   -1.607506
     65          1           0        6.865817   -4.707728   -2.579081
     66          1           0        6.405173   -2.312440   -1.668055
     67          1           0        7.918202   -2.469746   -0.777120
     68          1           0        6.441380   -2.044838    0.073767
     69          6           0       -1.634348   -2.186956   -3.069194
     70          6           0       -0.709111   -2.933665   -2.066018
     71          7           0       -1.026678   -0.871310   -3.139643
     72          1           0       -2.648077   -2.069938   -2.664156
     73          6           0       -1.738094   -2.931268   -4.420957
     74          7           0        0.447545   -2.059730   -1.838685
     75          1           0       -0.328672   -3.840719   -2.553895
     76          6           0       -1.424320   -3.365233   -0.776120
     77          1           0       -0.722518   -3.143495   -4.776143
     78          6           0       -2.458720   -2.085566   -5.471825
     79          6           0       -2.488760   -4.250252   -4.249328
     80          1           0       -2.373209   -3.819138   -1.088226
     81          6           0       -1.727968   -2.188771    0.152221
     82          6           0       -0.611770   -4.429514   -0.042851
     83          1           0       -2.492404   -4.805518   -5.184672
     84          1           0       -3.520922   -4.055147   -3.966334
     85          1           0       -2.033290   -4.876122   -3.486339
     86          1           0       -1.873754   -1.216435   -5.766065
     87          1           0       -3.418376   -1.744692   -5.087702
     88          1           0       -2.636911   -2.678568   -6.366214
     89          1           0        0.374887   -4.041490    0.193772
     90          1           0       -0.493473   -5.318848   -0.658750
     91          1           0       -1.106923   -4.716395    0.882638
     92          1           0       -2.141515   -1.348820   -0.401432
     93          1           0       -0.832129   -1.852227    0.672216
     94          1           0       -2.446981   -2.485628    0.912715
     95          6           0       -6.504821   -2.694875   -0.788778
     96          6           0       -7.452307   -2.053438    0.267543
     97          7           0       -5.250474   -1.980287   -0.598571
     98          1           0       -6.868231   -2.467288   -1.801210
     99          6           0       -6.430118   -4.232776   -0.674753
    100          7           0       -6.704036   -0.952615    0.863531
    101          1           0       -7.623088   -2.784986    1.068356
    102          6           0       -8.824649   -1.643305   -0.281720
    103          1           0       -7.464663   -4.592639   -0.622736
    104          6           0       -5.687467   -4.715276    0.570473
    105          6           0       -5.778742   -4.826094   -1.923504
    106          1           0       -9.216768   -2.512864   -0.822947
    107          6           0       -8.762948   -0.461674   -1.250582
    108          6           0       -9.769558   -1.318461    0.873804
    109          1           0       -6.324897   -4.536607   -2.818763
    110          1           0       -5.764024   -5.912209   -1.866766
    111          1           0       -4.752196   -4.477521   -2.020393
    112          1           0       -6.130420   -4.313353    1.478460
    113          1           0       -4.639154   -4.422429    0.537995
    114          1           0       -5.728371   -5.801089    0.625792
    115          1           0       -9.923559   -2.192451    1.502319
    116          1           0      -10.735509   -0.991839    0.495513
    117          1           0       -9.344828   -0.527213    1.486302
    118          1           0       -8.594763    0.470706   -0.715360
    119          1           0       -9.708231   -0.372746   -1.781281
    120          1           0       -7.971696   -0.590824   -1.985488
    121          6           0        6.322104    2.318500    0.951521
    122          6           0        6.411326    2.372149   -0.602948
    123          7           0        5.520076    1.171678    1.245554
    124          1           0        5.828413    3.246057    1.290529
    125          6           0        7.686223    2.190265    1.653375
    126          7           0        5.060567    2.482975   -1.066718
    127          1           0        6.862297    1.419856   -0.930794
    128          6           0        7.243042    3.542585   -1.152615
    129          1           0        8.295818    3.055905    1.376078
    130          6           0        8.415903    0.909589    1.258845
    131          6           0        7.469781    2.225234    3.166598
    132          1           0        8.266434    3.446340   -0.776305
    133          6           0        6.673781    4.894645   -0.733511
    134          6           0        7.282506    3.440464   -2.677752
    135          1           0        6.874315    1.370050    3.478791
    136          1           0        6.949248    3.134212    3.461735
    137          1           0        8.424673    2.192564    3.686401
    138          1           0        9.304324    0.782776    1.873683
    139          1           0        8.725352    0.937212    0.217459
    140          1           0        7.760194    0.056473    1.407903
    141          1           0        6.276268    3.531150   -3.080349
    142          1           0        7.693620    2.482261   -2.989710
    143          1           0        7.899724    4.232299   -3.096009
    144          1           0        7.186779    5.695900   -1.261025
    145          1           0        6.795603    5.059294    0.333965
    146          1           0        5.616026    4.933081   -0.977202
    147          6           0       -0.624744   -0.034697    5.730112
    148          6           0       -1.557807    1.173703    5.465974
    149          7           0        0.391506    0.007669    4.724131
    150          1           0       -1.236121   -0.951018    5.645563
    151          6           0        0.066598   -0.022148    7.109494
    152          7           0       -2.276522    0.867469    4.267612
    153          1           0       -0.918877    2.065431    5.336016
    154          6           0       -2.581812    1.452108    6.585520
    155          1           0       -0.709564   -0.018386    7.880356
    156          6           0        0.961438    1.201218    7.284578
    157          6           0        0.887939   -1.300963    7.275920
    158          1           0       -2.032438    1.650292    7.510690
    159          6           0       -3.525693    0.272331    6.798289
    160          6           0       -3.382239    2.706863    6.235599
    161          1           0        1.688375   -1.334288    6.540053
    162          1           0        0.261970   -2.181766    7.145315
    163          1           0        1.328923   -1.338084    8.269378
    164          1           0        1.507259    1.132550    8.223254
    165          1           0        0.377139    2.117377    7.295722
    166          1           0        1.673901    1.251527    6.466099
    167          1           0       -3.962105    2.543513    5.329957
    168          1           0       -2.719757    3.554951    6.073283
    169          1           0       -4.065435    2.955121    7.044818
    170          1           0       -4.293269    0.535299    7.523204
    171          1           0       -2.990664   -0.598037    7.168609
    172          1           0       -4.003944    0.014491    5.857715
    173          6           0       -1.590351    5.241305   -2.609030
    174          6           0       -3.064903    4.816847   -2.413787
    175          7           0       -0.839525    4.023389   -2.696415
    176          1           0       -1.278724    5.830972   -1.729900
    177          6           0       -1.345620    6.091999   -3.873721
    178          7           0       -3.090861    3.963645   -1.262400
    179          1           0       -3.376022    4.261252   -3.316061
    180          6           0       -4.040617    5.990935   -2.197891
    181          1           0       -1.990542    6.974503   -3.813505
    182          6           0       -1.661310    5.323965   -5.154376
    183          6           0        0.106122    6.570120   -3.894705
    184          1           0       -3.979804    6.646899   -3.072358
    185          6           0       -3.707941    6.791034   -0.941656
    186          6           0       -5.467989    5.449937   -2.110912
    187          1           0        0.783475    5.722197   -3.971350
    188          1           0        0.344602    7.123507   -2.988343
    189          1           0        0.274181    7.223445   -4.747913
    190          1           0       -1.130611    4.375672   -5.152861
    191          1           0       -1.349113    5.902243   -6.021491
    192          1           0       -2.726635    5.129183   -5.243974
    193          1           0       -6.178081    6.269757   -2.028539
    194          1           0       -5.573810    4.810308   -1.237529
    195          1           0       -5.716087    4.869299   -2.997550
    196          1           0       -4.498392    7.510098   -0.737760
    197          1           0       -2.775915    7.337608   -1.058489
    198          1           0       -3.616661    6.117136   -0.094317
    199          1           0       -1.214888   -0.389976   -4.008254
    200          1           0        0.935034   -1.449846   -3.764507
    201          1           0        0.354463   -1.594975   -0.940858
    202          1           0       -6.862644   -0.104270    0.328452
    203          1           0       -4.436327   -2.571360   -0.698997
    204          1           0       -5.069383   -2.023638    1.540829
    205          1           0        5.105210   -3.203729    1.205719
    206          1           0        2.518612   -2.790558   -1.419574
    207          1           0        2.451224   -4.103206    0.582755
 ---------------------------------------------------------------------

 SCF Done:  E(RPBE1PBE) =  -3584.41878758     a.u. after    7 cycles
 SCF Done:  E(RPBE1PBE) =  -3584.41882376     A.U. after    9 cycles

 The electronic state is 1-A.
 Alpha  occ. eigenvalues --  -14.37663 -14.37313 -14.37302 -14.37264 -14.37241
 Alpha  occ. eigenvalues --  -14.37201 -14.37073 -14.36999 -14.36760 -14.36735
 Alpha  occ. eigenvalues --  -14.36492 -14.35615 -10.28122 -10.27764 -10.27338
 Alpha  occ. eigenvalues --  -10.26357 -10.26341 -10.26225 -10.26205 -10.26161
 Alpha  occ. eigenvalues --  -10.26043 -10.24896 -10.24856 -10.24744 -10.24714
 Alpha  occ. eigenvalues --  -10.24713 -10.24704 -10.24603 -10.24603 -10.24526
 Alpha  occ. eigenvalues --  -10.24289 -10.24281 -10.24105 -10.23921 -10.23787
 Alpha  occ. eigenvalues --  -10.23775 -10.23746 -10.23742 -10.23666 -10.23655
 Alpha  occ. eigenvalues --  -10.23653 -10.23610 -10.23562 -10.23214 -10.23183
 Alpha  occ. eigenvalues --  -10.23172 -10.23141 -10.23065 -10.23006 -10.22883
 Alpha  occ. eigenvalues --  -10.22777 -10.22750 -10.22717 -10.22544 -10.22519
 Alpha  occ. eigenvalues --  -10.22501 -10.22432 -10.22374 -10.22360 -10.22335
 Alpha  occ. eigenvalues --  -10.22309 -10.22211 -10.22002 -10.20740 -10.20725
 Alpha  occ. eigenvalues --  -10.20687 -10.20673 -10.20635 -10.20602 -10.20579
 Alpha  occ. eigenvalues --  -10.20337 -10.20310 -10.20223 -10.20193 -10.20186
 Alpha  occ. eigenvalues --  -10.20103 -10.20088 -10.20063 -10.20033 -10.20023
 Alpha  occ. eigenvalues --  -10.20014 -10.19938 -10.19825 -10.19823 -10.19791
 Alpha  occ. eigenvalues --  -10.19784 -10.19780  -0.99721  -0.99505  -0.98831
 Alpha  occ. eigenvalues --   -0.97790  -0.97499  -0.97425  -0.95031  -0.94878
 Alpha  occ. eigenvalues --   -0.94531  -0.89981  -0.89551  -0.89480  -0.88916
 Alpha  occ. eigenvalues --   -0.88603  -0.87815  -0.84635  -0.84526  -0.84418
 Alpha  occ. eigenvalues --   -0.83997  -0.83760  -0.83301  -0.82082  -0.81677
 Alpha  occ. eigenvalues --   -0.81606  -0.81287  -0.81002  -0.80753  -0.79680
 Alpha  occ. eigenvalues --   -0.79631  -0.79497  -0.79250  -0.79165  -0.78956
 Alpha  occ. eigenvalues --   -0.74757  -0.74167  -0.74055  -0.73343  -0.73304
 Alpha  occ. eigenvalues --   -0.72853  -0.70960  -0.70865  -0.70651  -0.70606
 Alpha  occ. eigenvalues --   -0.70511  -0.70322  -0.70263  -0.70217  -0.70002
 Alpha  occ. eigenvalues --   -0.69959  -0.69945  -0.69916  -0.68912  -0.68798
 Alpha  occ. eigenvalues --   -0.68767  -0.66753  -0.66589  -0.66215  -0.65802
 Alpha  occ. eigenvalues --   -0.65174  -0.64526  -0.64348  -0.64330  -0.64144
 Alpha  occ. eigenvalues --   -0.63358  -0.62837  -0.62496  -0.60319  -0.60105
 Alpha  occ. eigenvalues --   -0.59862  -0.59288  -0.59135  -0.58968  -0.58628
 Alpha  occ. eigenvalues --   -0.58534  -0.58145  -0.57681  -0.57380  -0.57187
 Alpha  occ. eigenvalues --   -0.56507  -0.56085  -0.55958  -0.55273  -0.55066
 Alpha  occ. eigenvalues --   -0.54858  -0.53910  -0.53577  -0.53508  -0.52757
 Alpha  occ. eigenvalues --   -0.52353  -0.52065  -0.51358  -0.51245  -0.51136
 Alpha  occ. eigenvalues --   -0.50547  -0.50457  -0.50183  -0.50145  -0.49810
 Alpha  occ. eigenvalues --   -0.49776  -0.49313  -0.49139  -0.49012  -0.48402
 Alpha  occ. eigenvalues --   -0.48174  -0.47930  -0.47837  -0.47636  -0.47373
 Alpha  occ. eigenvalues --   -0.46969  -0.46932  -0.46696  -0.46378  -0.46288
 Alpha  occ. eigenvalues --   -0.46231  -0.46085  -0.45932  -0.45913  -0.45150
 Alpha  occ. eigenvalues --   -0.45064  -0.44881  -0.44794  -0.44761  -0.44648
 Alpha  occ. eigenvalues --   -0.44564  -0.44260  -0.44164  -0.43992  -0.43772
 Alpha  occ. eigenvalues --   -0.43726  -0.43457  -0.43282  -0.43133  -0.43026
 Alpha  occ. eigenvalues --   -0.42972  -0.42811  -0.42718  -0.42549  -0.42378
 Alpha  occ. eigenvalues --   -0.42252  -0.42096  -0.41962  -0.41814  -0.41780
 Alpha  occ. eigenvalues --   -0.41429  -0.41331  -0.40967  -0.40762  -0.40668
 Alpha  occ. eigenvalues --   -0.40476  -0.40283  -0.40240  -0.40189  -0.40141
 Alpha  occ. eigenvalues --   -0.40009  -0.39931  -0.39816  -0.39703  -0.39670
 Alpha  occ. eigenvalues --   -0.39458  -0.39433  -0.39316  -0.39127  -0.39079
 Alpha  occ. eigenvalues --   -0.38949  -0.38927  -0.38884  -0.38803  -0.38501
 Alpha  occ. eigenvalues --   -0.38324  -0.38244  -0.38000  -0.37847  -0.37816
 Alpha  occ. eigenvalues --   -0.37782  -0.37659  -0.37508  -0.37272  -0.36830
 Alpha  occ. eigenvalues --   -0.36767  -0.36582  -0.36435  -0.36311  -0.36084
 Alpha  occ. eigenvalues --   -0.36021  -0.35955  -0.35542  -0.35420  -0.35162
 Alpha  occ. eigenvalues --   -0.34978  -0.34926  -0.34918  -0.34759  -0.34648
 Alpha  occ. eigenvalues --   -0.34627  -0.34566  -0.34551  -0.34516  -0.34449
 Alpha  occ. eigenvalues --   -0.34225  -0.34149  -0.34100  -0.34002  -0.33927
 Alpha  occ. eigenvalues --   -0.33893  -0.33835  -0.33778  -0.33684  -0.33543
 Alpha  occ. eigenvalues --   -0.33433  -0.33285  -0.33038  -0.32838  -0.32591
 Alpha  occ. eigenvalues --   -0.32251  -0.32196  -0.32104  -0.32009  -0.31844
 Alpha  occ. eigenvalues --   -0.31241  -0.30944  -0.30777  -0.30272  -0.27137
 Alpha  occ. eigenvalues --   -0.26994  -0.26840  -0.26808  -0.26602  -0.26342
 Alpha  occ. eigenvalues --   -0.26230  -0.26146  -0.26026  -0.25816  -0.25784
 Alpha  occ. eigenvalues --   -0.25625  -0.25139  -0.24978  -0.24346  -0.23955
 Alpha  occ. eigenvalues --   -0.23747  -0.23039
 Alpha virt. eigenvalues --   -0.05778  -0.05429  -0.05178  -0.04224  -0.03967
 Alpha virt. eigenvalues --   -0.03834   0.01599   0.01697   0.01875   0.02517
 Alpha virt. eigenvalues --    0.03479   0.03599   0.03938   0.04097   0.04242

 Mulliken charges:
               1
     1  C    0.362810
     2  C   -0.100847
     3  C   -0.331089
     4  C    0.284984
     5  H    0.197075
     6  C   -0.361996
     7  C    0.403438
     8  H    0.128563
     9  C   -0.452517
    10  C   -0.213959
    11  H    0.149190
    12  C   -0.204487
    13  H    0.086462
    14  H    0.091049
    15  C    0.246912
    16  C    0.009101
    17  C   -0.329719
    18  C    0.374502
    19  H    0.146971
    20  C   -0.393752
    21  C    0.331136
    22  H    0.138933
    23  C   -0.321135
    24  C   -0.201384
    25  H    0.136044
    26  C   -0.203511
    27  H    0.111140
    28  H    0.094347
    29  C    0.300387
    30  C   -0.137781
    31  C   -0.346072
    32  C    0.406172
    33  H    0.127472
    34  C   -0.373911
    35  C    0.346723
    36  H    0.125126
    37  C   -0.315926
    38  C   -0.186738
    39  H    0.131719
    40  C   -0.226440
    41  H    0.084290
    42  H    0.088167
    43  C    0.013925
    44  C    0.073455
    45  N   -0.292060
    46  H    0.079708
    47  C   -0.072805
    48  N   -0.276982
    49  H    0.072929
    50  C   -0.088752
    51  H    0.079283
    52  C   -0.369098
    53  C   -0.385932
    54  H    0.089096
    55  C   -0.404885
    56  C   -0.373705
    57  H    0.118533
    58  H    0.104544
    59  H    0.121715
    60  H    0.113696
    61  H    0.130829
    62  H    0.122488
    63  H    0.124674
    64  H    0.132253
    65  H    0.115927
    66  H    0.116713
    67  H    0.136202
    68  H    0.115512
    69  C    0.046723
    70  C    0.060927
    71  N   -0.316496
    72  H    0.085464
    73  C   -0.075318
    74  N   -0.395786
    75  H    0.093633
    76  C   -0.017871
    77  H    0.093876
    78  C   -0.408993
    79  C   -0.406084
    80  H    0.090638
    81  C   -0.570072
    82  C   -0.330992
    83  H    0.135105
    84  H    0.125171
    85  H    0.128393
    86  H    0.123078
    87  H    0.130385
    88  H    0.132089
    89  H    0.061846
    90  H    0.129697
    91  H    0.127647
    92  H    0.175633
    93  H    0.158294
    94  H    0.136816
    95  C    0.125303
    96  C   -0.038613
    97  N   -0.293942
    98  H    0.058595
    99  C   -0.102284
   100  N   -0.274342
   101  H    0.064943
   102  C   -0.024611
   103  H    0.080193
   104  C   -0.397043
   105  C   -0.358903
   106  H    0.084286
   107  C   -0.445843
   108  C   -0.384581
   109  H    0.126481
   110  H    0.129830
   111  H    0.096663
   112  H    0.132145
   113  H    0.115256
   114  H    0.136487
   115  H    0.123916
   116  H    0.128200
   117  H    0.126387
   118  H    0.131884
   119  H    0.135558
   120  H    0.138226
   121  C    0.100776
   122  C    0.080769
   123  N   -0.266129
   124  H    0.090757
   125  C   -0.015363
   126  N   -0.266681
   127  H    0.095352
   128  C    0.000394
   129  H    0.090867
   130  C   -0.428405
   131  C   -0.398788
   132  H    0.089533
   133  C   -0.428806
   134  C   -0.404679
   135  H    0.125980
   136  H    0.120505
   137  H    0.128428
   138  H    0.125551
   139  H    0.127751
   140  H    0.133994
   141  H    0.127188
   142  H    0.119696
   143  H    0.128029
   144  H    0.124260
   145  H    0.128133
   146  H    0.133138
   147  C    0.093644
   148  C    0.084033
   149  N   -0.238562
   150  H    0.084594
   151  C   -0.019281
   152  N   -0.236267
   153  H    0.086717
   154  C   -0.021761
   155  H    0.091627
   156  C   -0.422110
   157  C   -0.398017
   158  H    0.091435
   159  C   -0.421941
   160  C   -0.397602
   161  H    0.129242
   162  H    0.119629
   163  H    0.129481
   164  H    0.124819
   165  H    0.127469
   166  H    0.133943
   167  H    0.129578
   168  H    0.120056
   169  H    0.129047
   170  H    0.124748
   171  H    0.126962
   172  H    0.135158
   173  C    0.086762
   174  C    0.125512
   175  N   -0.262130
   176  H    0.088401
   177  C   -0.010146
   178  N   -0.258620
   179  H    0.079785
   180  C   -0.007345
   181  H    0.088132
   182  C   -0.426155
   183  C   -0.403057
   184  H    0.087233
   185  C   -0.427038
   186  C   -0.400543
   187  H    0.127881
   188  H    0.121003
   189  H    0.130978
   190  H    0.129438
   191  H    0.125050
   192  H    0.127369
   193  H    0.129940
   194  H    0.127073
   195  H    0.119013
   196  H    0.124509
   197  H    0.127313
   198  H    0.131515
   199  H    0.208512
   200  H    0.090333
   201  H    0.214297
   202  H    0.197931
   203  H    0.160596
   204  H    0.096532
   205  H    0.199741
   206  H    0.174407
   207  H    0.080180
 Sum of Mulliken charges =   0.00000

 Dipole moment (field-independent basis, Debye):
    X=             -2.8692    Y=             -3.2530    Z=             -3.8671  Tot=              5.8111
 Quadrupole moment (field-independent basis, Debye-Ang):
   XX=           -524.5426   YY=           -520.2166   ZZ=           -534.5969
   XY=             19.7558   XZ=             11.9206   YZ=             11.3957

 Normal termination of Gaussian 16 at Tue Oct 19 01:00:43 2021.
