 Gaussian 16, Revision C.01,
 Gaussian 16:  ES64L-G16RevC.01  3-Jul-2019

 ----------------------------------------------------------------------
 #P PBE1PBE/Def2TZVP SP SCF=(YQC,MaxCycle=900) int=(Grid=Superfinegrid)
  EmpiricalDispersion=GD3
 ----------------------------------------------------------------------

 -------------------------
 _3_alde1_5_ami3_1_opt_gas
 -------------------------
 Symbolic Z-matrix:
 Charge =  0 Multiplicity = 1

                         Standard orientation:
 ---------------------------------------------------------------------
 Center     Atomic      Atomic             Coordinates (Angstroms)
 Number     Number       Type             X           Y           Z
 ---------------------------------------------------------------------
      1          6           0       -0.900568    0.020281   -2.792257
      2          6           0       -0.176461   -1.129426   -3.310537
      3          6           0       -0.297659    1.255068   -2.555796
      4          6           0       -1.044037    2.318226   -2.054122
      5          1           0        0.751861    1.371721   -2.778758
      6          6           0       -2.384635    2.121655   -1.722241
      7          6           0       -2.997456    0.895098   -1.946008
      8          1           0       -2.932516    2.953062   -1.305636
      9          6           0       -2.255239   -0.137957   -2.512940
     10          6           0       -4.373948    0.661484   -1.528568
     11          1           0       -2.752421   -1.076286   -2.701496
     12          6           0       -0.436610    3.629194   -1.874711
     13          1           0       -4.753427    1.349679   -0.756476
     14          1           0       -0.826837   -1.963262   -3.617141
     15          1           0        0.624480    3.705295   -2.152671
     16          6           0        2.840820    1.169554    0.453350
     17          6           0        3.740434    0.792637   -0.694216
     18          6           0        2.680609    0.326452    1.542970
     19          6           0        1.853295    0.684513    2.606298
     20          1           0        3.193626   -0.623871    1.552782
     21          6           0        1.153118    1.887510    2.553453
     22          6           0        1.309209    2.739718    1.468068
     23          1           0        0.496060    2.136599    3.372435
     24          6           0        2.171946    2.380277    0.432302
     25          6           0        0.521514    3.957228    1.342126
     26          1           0        2.290212    3.060593   -0.395488
     27          6           0        1.708937   -0.217841    3.736576
     28          1           0       -0.380736    4.016229    1.971163
     29          1           0        2.227863   -1.184711    3.637434
     30          6           0       -0.513862   -2.840130    0.117777
     31          6           0        0.713986   -2.948626   -0.657267
     32          6           0       -1.749939   -2.986425   -0.508435
     33          6           0       -2.930230   -2.696727    0.167364
     34          1           0       -1.763701   -3.287712   -1.544373
     35          6           0       -2.872667   -2.300829    1.502753
     36          6           0       -1.650784   -2.218388    2.160204
     37          1           0       -3.795842   -2.062067    2.008251
     38          6           0       -0.473637   -2.473220    1.458076
     39          6           0       -1.587097   -1.781732    3.549546
     40          1           0        0.467647   -2.356454    1.971972
     41          6           0       -4.181754   -2.689901   -0.571454
     42          1           0       -2.434458   -1.168561    3.895507
     43          1           0       -4.111580   -3.043863   -1.611555
     44          6           0        1.932317   -3.359672   -2.591669
     45          6           0        1.604255   -2.487727   -3.831328
     46          7           0        0.739485   -3.459001   -1.811688
     47          1           0        2.743586   -2.876256   -2.021244
     48          6           0        2.396386   -4.734257   -3.074912
     49          7           0        1.081117   -1.223905   -3.394830
     50          1           0        0.847514   -3.041551   -4.414865
     51          6           0        2.865837   -2.313091   -4.671129
     52          1           0        1.584887   -5.205432   -3.632011
     53          6           0        3.636043   -4.597813   -3.953875
     54          1           0        3.628710   -1.811073   -4.073168
     55          6           0        3.370774   -3.674232   -5.140369
     56          1           0        3.939663   -5.583051   -4.313658
     57          1           0        4.456849   -4.193300   -3.357770
     58          1           0        4.285493   -3.548745   -5.723594
     59          1           0        2.620040   -4.128652   -5.791090
     60          6           0        5.223841   -1.016110   -0.701597
     61          6           0        5.949870    0.287910   -1.074378
     62          7           0        3.816452   -0.676732   -0.864133
     63          1           0        5.386285   -1.205754    0.371846
     64          6           0        5.797282   -2.177503   -1.488211
     65          7           0        5.100320    1.314449   -0.490779
     66          1           0        5.891837    0.422720   -2.164538
     67          6           0        7.404753    0.219645   -0.659402
     68          1           0        5.673529   -1.998237   -2.559683
     69          6           0        7.286655   -2.277387   -1.141780
     70          1           0        7.477091    0.072331    0.421077
     71          6           0        8.035138   -0.965688   -1.398453
     72          1           0        7.746692   -3.074508   -1.729209
     73          1           0        7.384254   -2.544081   -0.086615
     74          1           0        9.075521   -1.080676   -1.088663
     75          1           0        8.029052   -0.754532   -2.470389
     76          6           0       -0.425398    5.864817   -1.232431
     77          6           0       -0.047072    5.951620    0.267951
     78          7           0       -1.093792    4.618356   -1.445923
     79          1           0        0.516806    5.923046   -1.804932
     80          6           0       -1.342446    7.028194   -1.600815
     81          7           0        0.834036    4.858816    0.518712
     82          1           0       -0.972825    5.884942    0.868496
     83          6           0        0.651286    7.284752    0.536115
     84          1           0       -2.263670    6.941831   -1.022233
     85          6           0       -0.659148    8.360515   -1.313307
     86          1           0        1.575432    7.316303   -0.043409
     87          6           0       -0.254059    8.450767    0.154996
     88          1           0       -1.332823    9.182039   -1.565142
     89          1           0        0.231002    8.452614   -1.940073
     90          1           0        0.264277    9.393470    0.341688
     91          1           0       -1.150545    8.431494    0.779376
     92          6           0       -6.351953   -0.563974   -1.415543
     93          6           0       -6.359273   -2.055010   -0.995421
     94          7           0       -5.067907   -0.288552   -1.981068
     95          1           0       -6.537473    0.053285   -0.517849
     96          6           0       -7.473303   -0.330888   -2.428550
     97          7           0       -5.260857   -2.237365   -0.097493
     98          1           0       -6.229581   -2.653184   -1.915350
     99          6           0       -7.694957   -2.388786   -0.340013
    100          1           0       -7.286880   -0.945991   -3.310568
    101          6           0       -8.820764   -0.684941   -1.806797
    102          1           0       -7.813610   -1.772962    0.552981
    103          6           0       -8.835632   -2.132011   -1.320269
    104          1           0       -9.614345   -0.532359   -2.541063
    105          1           0       -9.012901   -0.018412   -0.962559
    106          1           0       -9.791360   -2.351087   -0.839947
    107          1           0       -8.730464   -2.801683   -2.177173
    108          6           0        0.875335   -0.925401    5.778652
    109          6           0       -0.536839   -1.530793    5.615864
    110          7           0        1.038110    0.071408    4.765736
    111          1           0        1.599973   -1.750207    5.651669
    112          6           0        1.012625   -0.319289    7.172821
    113          7           0       -0.613788   -2.071105    4.294507
    114          1           0       -1.285507   -0.733461    5.772544
    115          6           0       -0.736405   -2.623855    6.667490
    116          1           0        0.281234    0.483406    7.279444
    117          6           0        0.788191   -1.388757    8.236954
    118          1           0       -0.000657   -3.412303    6.499537
    119          6           0       -0.581188   -2.041534    8.068684
    120          1           0        0.866940   -0.942642    9.230461
    121          1           0        1.564949   -2.152160    8.150042
    122          1           0       -0.709836   -2.832504    8.810312
    123          1           0       -1.360562   -1.294526    8.236561
    124          1           0        1.605997   -2.498637   -0.196829
    125          1           0        5.289417    1.391019    0.506135
    126          1           0        3.348194    1.250081   -1.614031
    127          1           0        3.479519   -0.924438   -1.788380
    128          1           0        2.615503   -5.360605   -2.207522
    129          1           0        2.640103   -1.675544   -5.528153
    130          1           0        5.290203   -3.110479   -1.232563
    131          1           0        7.924716    1.144414   -0.913049
    132          1           0       -1.602590    6.954028   -2.658603
    133          1           0        0.916048    7.338530    1.594392
    134          1           0       -7.461713    0.716135   -2.739443
    135          1           0       -7.690221   -3.435142   -0.028732
    136          1           0        2.007784    0.117574    7.276616
    137          1           0       -1.730619   -3.059226    6.544176
 ---------------------------------------------------------------------

 SCF Done:  E(RPBE1PBE) =  -2759.53122270     a.u. after    6 cycles
 SCF Done:  E(RPBE1PBE) =  -2759.53126716     A.U. after    9 cycles

 The electronic state is 1-A.
 Alpha  occ. eigenvalues --  -14.37381 -14.37333 -14.37225 -14.37038 -14.36974
 Alpha  occ. eigenvalues --  -14.36930 -14.36913 -14.36894 -14.36735 -14.36659
 Alpha  occ. eigenvalues --  -10.27554 -10.26338 -10.26188 -10.26160 -10.25954
 Alpha  occ. eigenvalues --  -10.25924 -10.25886 -10.25875 -10.25712 -10.25007
 Alpha  occ. eigenvalues --  -10.24992 -10.24965 -10.24814 -10.24787 -10.24696
 Alpha  occ. eigenvalues --  -10.24595 -10.24521 -10.24500 -10.24418 -10.23870
 Alpha  occ. eigenvalues --  -10.23788 -10.23780 -10.23693 -10.23615 -10.23555
 Alpha  occ. eigenvalues --  -10.23537 -10.23375 -10.23252 -10.23220 -10.23220
 Alpha  occ. eigenvalues --  -10.23194 -10.23183 -10.23169 -10.23009 -10.22779
 Alpha  occ. eigenvalues --  -10.22548 -10.22430 -10.22354 -10.22290 -10.22275
 Alpha  occ. eigenvalues --  -10.22125 -10.21769 -10.21711 -10.21699 -10.21605
 Alpha  occ. eigenvalues --  -10.21603 -10.21559 -10.21521 -10.21471 -10.21460
 Alpha  occ. eigenvalues --  -10.21366 -10.21326 -10.21287 -10.21244 -10.21209
 Alpha  occ. eigenvalues --  -10.21092 -10.21030  -0.99140  -0.97480  -0.97345
 Alpha  occ. eigenvalues --   -0.97217  -0.97147  -0.94704  -0.94463  -0.94299
 Alpha  occ. eigenvalues --   -0.94216  -0.89939  -0.89162  -0.89104  -0.87990
 Alpha  occ. eigenvalues --   -0.85872  -0.85805  -0.85424  -0.85382  -0.84897
 Alpha  occ. eigenvalues --   -0.80591  -0.80540  -0.80377  -0.80260  -0.79994
 Alpha  occ. eigenvalues --   -0.79885  -0.76814  -0.76589  -0.76523  -0.76266
 Alpha  occ. eigenvalues --   -0.76204  -0.75938  -0.75283  -0.75016  -0.74943
 Alpha  occ. eigenvalues --   -0.74295  -0.68228  -0.67953  -0.67890  -0.67625
 Alpha  occ. eigenvalues --   -0.66885  -0.66662  -0.66236  -0.65992  -0.65359
 Alpha  occ. eigenvalues --   -0.62919  -0.62781  -0.62597  -0.62506  -0.62326
 Alpha  occ. eigenvalues --   -0.62110  -0.61915  -0.61396  -0.60805  -0.60270
 Alpha  occ. eigenvalues --   -0.59640  -0.58427  -0.58128  -0.57984  -0.57927
 Alpha  occ. eigenvalues --   -0.56959  -0.55994  -0.55869  -0.55655  -0.55501
 Alpha  occ. eigenvalues --   -0.55382  -0.53493  -0.52883  -0.52795  -0.52323
 Alpha  occ. eigenvalues --   -0.52250  -0.52117  -0.51391  -0.50926  -0.50609
 Alpha  occ. eigenvalues --   -0.50284  -0.49962  -0.49293  -0.49289  -0.48861
 Alpha  occ. eigenvalues --   -0.48644  -0.48105  -0.48038  -0.47610  -0.47429
 Alpha  occ. eigenvalues --   -0.47328  -0.47141  -0.47115  -0.47032  -0.46894
 Alpha  occ. eigenvalues --   -0.46217  -0.45890  -0.45558  -0.45315  -0.44743
 Alpha  occ. eigenvalues --   -0.44516  -0.44416  -0.44246  -0.44111  -0.43933
 Alpha  occ. eigenvalues --   -0.43688  -0.43643  -0.43414  -0.43195  -0.43128
 Alpha  occ. eigenvalues --   -0.42797  -0.42095  -0.42021  -0.41930  -0.41858
 Alpha  occ. eigenvalues --   -0.41614  -0.41466  -0.40899  -0.40546  -0.40255
 Alpha  occ. eigenvalues --   -0.40121  -0.39911  -0.39721  -0.39613  -0.39482
 Alpha  occ. eigenvalues --   -0.38220  -0.38020  -0.37996  -0.37591  -0.37514
 Alpha  occ. eigenvalues --   -0.37206  -0.36860  -0.36783  -0.36524  -0.36350
 Alpha  occ. eigenvalues --   -0.36280  -0.36048  -0.35899  -0.35832  -0.35791
 Alpha  occ. eigenvalues --   -0.35582  -0.35527  -0.35383  -0.35236  -0.35199
 Alpha  occ. eigenvalues --   -0.35124  -0.34686  -0.34610  -0.34127  -0.34043
 Alpha  occ. eigenvalues --   -0.33918  -0.33843  -0.33729  -0.33498  -0.33400
 Alpha  occ. eigenvalues --   -0.33186  -0.32658  -0.32256  -0.31889  -0.31796
 Alpha  occ. eigenvalues --   -0.31605  -0.31523  -0.30144  -0.29561  -0.28863
 Alpha  occ. eigenvalues --   -0.27310  -0.26991  -0.26851  -0.26774  -0.26708
 Alpha  occ. eigenvalues --   -0.26412  -0.26360  -0.26207  -0.25795  -0.25382
 Alpha  occ. eigenvalues --   -0.25227  -0.24934  -0.24904  -0.24697  -0.24359
 Alpha  occ. eigenvalues --   -0.23772
 Alpha virt. eigenvalues --   -0.05847  -0.05713  -0.05041  -0.04716  -0.04676
 Alpha virt. eigenvalues --   -0.03571  -0.01903  -0.00757   0.02449   0.03114
 Alpha virt. eigenvalues --    0.03465   0.04308   0.04508   0.04829   0.04930

 Mulliken charges:
               1
     1  C    0.361009
     2  C   -0.184224
     3  C   -0.365463
     4  C    0.382678
     5  H    0.122623
     6  C   -0.354535
     7  C    0.326569
     8  H    0.121862
     9  C   -0.263083
    10  C   -0.163747
    11  H    0.115172
    12  C   -0.173903
    13  H    0.067951
    14  H    0.087099
    15  H    0.081330
    16  C    0.297538
    17  C   -0.047362
    18  C   -0.310458
    19  C    0.380312
    20  H    0.131190
    21  C   -0.380707
    22  C    0.398852
    23  H    0.113920
    24  C   -0.437544
    25  C   -0.159634
    26  H    0.118891
    27  C   -0.191132
    28  H    0.069485
    29  H    0.072018
    30  C    0.328118
    31  C   -0.145816
    32  C   -0.318109
    33  C    0.381040
    34  H    0.123641
    35  C   -0.388889
    36  C    0.378320
    37  H    0.118540
    38  C   -0.316326
    39  C   -0.165565
    40  H    0.109977
    41  C   -0.163366
    42  H    0.068936
    43  H    0.079318
    44  C    0.027941
    45  C    0.054555
    46  N   -0.201260
    47  H    0.040126
    48  C   -0.199051
    49  N   -0.207505
    50  H    0.058352
    51  C   -0.170514
    52  H    0.104881
    53  C   -0.170401
    54  H    0.095782
    55  C   -0.180846
    56  H    0.106373
    57  H    0.090741
    58  H    0.107246
    59  H    0.090360
    60  C   -0.050058
    61  C   -0.051824
    62  N   -0.256938
    63  H    0.047362
    64  C   -0.210138
    65  N   -0.242963
    66  H    0.050536
    67  C   -0.145168
    68  H    0.092261
    69  C   -0.169719
    70  H    0.088013
    71  C   -0.196863
    72  H    0.112791
    73  H    0.096864
    74  H    0.112310
    75  H    0.096739
    76  C    0.026902
    77  C    0.032521
    78  N   -0.185005
    79  H    0.052790
    80  C   -0.161958
    81  N   -0.186881
    82  H    0.043457
    83  C   -0.193013
    84  H    0.098459
    85  C   -0.179869
    86  H    0.106435
    87  C   -0.171259
    88  H    0.107496
    89  H    0.087577
    90  H    0.108078
    91  H    0.086360
    92  C    0.029692
    93  C    0.052765
    94  N   -0.187085
    95  H    0.045036
    96  C   -0.193766
    97  N   -0.187192
    98  H    0.048766
    99  C   -0.171162
   100  H    0.104607
   101  C   -0.170775
   102  H    0.099749
   103  C   -0.185899
   104  H    0.108677
   105  H    0.087641
   106  H    0.108283
   107  H    0.088639
   108  C    0.065653
   109  C    0.027013
   110  N   -0.181886
   111  H    0.042981
   112  C   -0.170221
   113  N   -0.184852
   114  H    0.045654
   115  C   -0.196801
   116  H    0.099615
   117  C   -0.181851
   118  H    0.104977
   119  C   -0.169030
   120  H    0.107907
   121  H    0.087140
   122  H    0.108155
   123  H    0.087064
   124  H    0.106622
   125  H    0.189971
   126  H    0.077201
   127  H    0.178032
   128  H    0.107039
   129  H    0.106310
   130  H    0.115045
   131  H    0.112768
   132  H    0.105518
   133  H    0.106778
   134  H    0.108000
   135  H    0.105899
   136  H    0.105290
   137  H    0.107431
 Sum of Mulliken charges =   0.00000

 Dipole moment (field-independent basis, Debye):
    X=              1.0575    Y=             -0.7622    Z=             -0.1691  Tot=              1.3145
 Quadrupole moment (field-independent basis, Debye-Ang):
   XX=           -369.2481   YY=           -396.8101   ZZ=           -386.9335
   XY=            -14.6280   XZ=             -6.2794   YZ=              5.3585

 Normal termination of Gaussian 16 at Mon Oct 18 13:24:01 2021.
