 Gaussian 16, Revision C.01,
 Gaussian 16:  ES64L-G16RevC.01  3-Jul-2019

 ----------------------------------------------------------------------
 #P PBE1PBE/Def2TZVP SP SCF=(YQC,MaxCycle=900) int=(Grid=Superfinegrid)
  EmpiricalDispersion=GD3
 ----------------------------------------------------------------------

 -------------------------
 _3_alde1_4_ami1_1_opt_gas
 -------------------------
 Symbolic Z-matrix:
 Charge =  0 Multiplicity = 1

                         Standard orientation:
 ---------------------------------------------------------------------
 Center     Atomic      Atomic             Coordinates (Angstroms)
 Number     Number       Type             X           Y           Z
 ---------------------------------------------------------------------
      1          6           0        2.472173    1.351705    1.403294
      2          6           0        2.611086    0.825387    2.753132
      3          6           0        1.655234    2.448154    1.134431
      4          6           0        1.475726    2.896754   -0.169800
      5          1           0        1.166314    2.938272    1.962476
      6          6           0        2.077859    2.204833   -1.221036
      7          6           0        2.897593    1.111539   -0.968377
      8          1           0        1.897940    2.545427   -2.229374
      9          6           0        3.114967    0.712649    0.349718
     10          6           0        3.466105    0.338430   -2.064685
     11          1           0        3.769465   -0.126114    0.526058
     12          6           0        0.646886    4.064921   -0.421874
     13          1           0        3.012633    0.512745   -3.053327
     14          1           0        3.375762    0.044687    2.879076
     15          1           0        0.229410    4.548617    0.474765
     16          6           0       -2.559920    1.338812    2.119702
     17          6           0       -2.118003    1.611839    3.491345
     18          6           0       -3.205926    0.137354    1.826494
     19          6           0       -3.594290   -0.158084    0.524861
     20          1           0       -3.404083   -0.554793    2.633233
     21          6           0       -3.308047    0.754714   -0.489839
     22          6           0       -2.687197    1.966851   -0.208122
     23          1           0       -3.596905    0.500545   -1.498404
     24          6           0       -2.322421    2.258890    1.104350
     25          6           0       -2.397936    2.910474   -1.281876
     26          1           0       -1.840722    3.201482    1.311965
     27          6           0       -4.264965   -1.416161    0.229154
     28          1           0       -2.366060    2.482812   -2.295998
     29          1           0       -1.680224    2.617321    3.632574
     30          1           0       -4.419939   -2.086674    1.086742
     31          6           0        0.295565   -2.159163    1.606077
     32          6           0        0.100276   -1.535616    2.909243
     33          6           0        1.579832   -2.303566    1.083349
     34          6           0        1.775037   -2.749887   -0.218507
     35          1           0        2.415790   -2.027141    1.706301
     36          6           0        0.668553   -3.090743   -0.995135
     37          6           0       -0.614527   -3.016336   -0.465387
     38          1           0        0.833323   -3.421394   -2.009413
     39          6           0       -0.794585   -2.539716    0.832928
     40          6           0       -1.766153   -3.388053   -1.276884
     41          1           0       -1.799647   -2.463071    1.216540
     42          6           0        3.122306   -2.781657   -0.767231
     43          1           0       -1.587556   -3.446553   -2.362368
     44          1           0        3.930182   -2.610647   -0.040257
     45          6           0        0.859144   -0.598672    4.914806
     46          6           0        1.957482    0.501874    4.954408
     47          7           0        1.063890   -1.316290    3.690843
     48          1           0       -0.127924   -0.112262    4.925828
     49          6           0        0.921505   -1.577095    6.107379
     50          7           0        1.870110    1.198109    3.703245
     51          1           0        2.926519   -0.018857    5.039255
     52          6           0        1.819725    1.501083    6.114567
     53          1           0        0.897501   -0.983825    7.026461
     54          6           0        2.185928   -2.432185    6.095685
     55          6           0       -0.318764   -2.469773    6.090748
     56          1           0        1.764367    0.938005    7.051510
     57          6           0        0.574632    2.371542    5.978894
     58          6           0        3.069561    2.381206    6.158473
     59          1           0       -0.333578   -3.109896    6.970229
     60          1           0       -0.319504   -3.102291    5.205125
     61          1           0       -1.223679   -1.866028    6.087262
     62          1           0        2.137868   -3.175472    6.888736
     63          1           0        3.073756   -1.826019    6.254773
     64          1           0        2.278445   -2.942920    5.140589
     65          1           0        3.166665    2.933911    5.226465
     66          1           0        3.964586    1.777382    6.295883
     67          1           0        3.005594    3.091621    6.979584
     68          1           0        0.539301    3.099308    6.787055
     69          1           0       -0.330842    1.773529    6.016637
     70          1           0        0.605387    2.898938    5.029812
     71          8           0       -2.191322    0.832786    4.409956
     72          6           0       -0.468826    5.616187   -1.742837
     73          6           0       -1.848263    5.015500   -2.125304
     74          7           0        0.421221    4.502815   -1.582572
     75          1           0       -0.604115    6.146572   -0.784924
     76          6           0        0.114699    6.590281   -2.780430
     77          7           0       -2.196685    4.131877   -1.054042
     78          1           0       -1.730779    4.458941   -3.071221
     79          6           0       -2.959395    6.068783   -2.309572
     80          1           0       -0.578041    7.430625   -2.891502
     81          6           0        0.323842    5.923637   -4.136951
     82          6           0        1.442800    7.133075   -2.252231
     83          1           0       -2.640292    6.757026   -3.098315
     84          6           0       -3.226275    6.856145   -1.030112
     85          6           0       -4.239654    5.375423   -2.776072
     86          1           0        1.306157    7.614522   -1.285918
     87          1           0        1.856834    7.862677   -2.944302
     88          1           0        2.155011    6.319604   -2.134065
     89          1           0        0.886329    5.003658   -4.006018
     90          1           0        0.880292    6.586111   -4.796314
     91          1           0       -0.625340    5.691467   -4.612979
     92          1           0       -5.012214    6.112526   -2.982459
     93          1           0       -4.605006    4.698266   -2.006938
     94          1           0       -4.061251    4.803171   -3.684448
     95          1           0       -3.409092    6.169925   -0.207641
     96          1           0       -4.100840    7.489871   -1.160250
     97          1           0       -2.382853    7.492422   -0.776071
     98          6           0        4.833084   -1.331391   -2.961277
     99          6           0        4.702416   -2.798676   -2.463323
    100          7           0        4.383887   -0.504693   -1.881492
    101          1           0        4.184484   -1.207177   -3.845155
    102          6           0        6.272990   -0.940830   -3.355128
    103          7           0        3.353460   -2.945112   -1.996331
    104          1           0        5.414603   -2.918452   -1.629709
    105          6           0        4.995699   -3.863849   -3.532748
    106          1           0        6.619807   -1.655486   -4.108172
    107          6           0        7.225522   -0.963924   -2.162888
    108          6           0        6.263953    0.449938   -3.989974
    109          1           0        6.020257   -3.720901   -3.891370
    110          6           0        4.030812   -3.774291   -4.711704
    111          6           0        4.904306   -5.245625   -2.884772
    112          1           0        5.934675    1.193558   -3.267148
    113          1           0        5.594422    0.480240   -4.847435
    114          1           0        7.263208    0.715861   -4.326918
    115          1           0        7.377255   -1.976372   -1.798522
    116          1           0        6.820297   -0.358231   -1.356711
    117          1           0        8.193441   -0.561408   -2.453633
    118          1           0        3.895223   -5.415074   -2.515967
    119          1           0        5.595024   -5.326019   -2.047643
    120          1           0        5.147815   -6.021614   -3.606779
    121          1           0        4.214811   -2.882577   -5.305457
    122          1           0        3.009510   -3.746564   -4.342842
    123          1           0        4.149909   -4.640906   -5.358211
    124          6           0       -5.188758   -3.014130   -1.177332
    125          6           0       -4.013545   -3.950018   -1.584762
    126          7           0       -4.639296   -1.713585   -0.937900
    127          1           0       -5.623403   -3.428076   -0.252514
    128          6           0       -6.286296   -2.923496   -2.252064
    129          7           0       -2.891135   -3.621492   -0.761919
    130          1           0       -3.786704   -3.778049   -2.650935
    131          6           0       -4.367079   -5.442846   -1.397911
    132          1           0       -6.526366   -3.938831   -2.585506
    133          6           0       -5.841016   -2.098032   -3.456226
    134          6           0       -7.540028   -2.304709   -1.635069
    135          1           0       -5.369532   -5.603433   -1.808456
    136          6           0       -4.361482   -5.855868    0.071788
    137          6           0       -3.379622   -6.304570   -2.183027
    138          1           0       -7.315967   -1.306408   -1.265382
    139          1           0       -7.901906   -2.908059   -0.804836
    140          1           0       -8.332618   -2.230806   -2.375998
    141          1           0       -4.983216   -2.547531   -3.948943
    142          1           0       -5.567524   -1.098249   -3.132636
    143          1           0       -6.650818   -2.028346   -4.178952
    144          1           0       -3.625470   -7.357806   -2.069104
    145          1           0       -2.367213   -6.147151   -1.815851
    146          1           0       -3.407091   -6.059488   -3.242951
    147          1           0       -4.604189   -6.912545    0.160186
    148          1           0       -5.092386   -5.290935    0.643867
    149          1           0       -3.379475   -5.681473    0.503471
    150          1           0       -0.929329   -1.227524    3.139172
 ---------------------------------------------------------------------

 SCF Done:  E(RPBE1PBE) =  -2808.60887251     a.u. after    7 cycles
 SCF Done:  E(RPBE1PBE) =  -2808.60888427     A.U. after    9 cycles

 The electronic state is 1-A.
 Alpha  occ. eigenvalues --  -19.21159 -14.38274 -14.37870 -14.37753 -14.37608
 Alpha  occ. eigenvalues --  -14.37478 -14.37172 -14.37069 -14.36903 -10.31611
 Alpha  occ. eigenvalues --  -10.27318 -10.26918 -10.26874 -10.26690 -10.26533
 Alpha  occ. eigenvalues --  -10.26225 -10.26048 -10.25967 -10.25593 -10.25533
 Alpha  occ. eigenvalues --  -10.25386 -10.25324 -10.25284 -10.25267 -10.25205
 Alpha  occ. eigenvalues --  -10.25189 -10.25159 -10.25127 -10.25030 -10.24861
 Alpha  occ. eigenvalues --  -10.24270 -10.24210 -10.24200 -10.24191 -10.24164
 Alpha  occ. eigenvalues --  -10.24048 -10.24045 -10.24001 -10.23737 -10.23727
 Alpha  occ. eigenvalues --  -10.23696 -10.23668 -10.23665 -10.23569 -10.23133
 Alpha  occ. eigenvalues --  -10.23098 -10.22846 -10.22694 -10.22620 -10.22398
 Alpha  occ. eigenvalues --  -10.22149 -10.21777 -10.20805 -10.20746 -10.20515
 Alpha  occ. eigenvalues --  -10.20504 -10.20347 -10.20292 -10.20268 -10.20125
 Alpha  occ. eigenvalues --  -10.20097 -10.20097 -10.20073 -10.19899 -10.19728
 Alpha  occ. eigenvalues --  -10.19726 -10.19582 -10.19013  -1.08790  -0.98359
 Alpha  occ. eigenvalues --   -0.98260  -0.97865  -0.97329  -0.95444  -0.95300
 Alpha  occ. eigenvalues --   -0.94846  -0.94350  -0.91235  -0.90172  -0.89565
 Alpha  occ. eigenvalues --   -0.85101  -0.84880  -0.84615  -0.83574  -0.82680
 Alpha  occ. eigenvalues --   -0.82371  -0.82200  -0.81446  -0.81154  -0.80648
 Alpha  occ. eigenvalues --   -0.79953  -0.79774  -0.79529  -0.79268  -0.75073
 Alpha  occ. eigenvalues --   -0.74620  -0.74348  -0.73709  -0.70777  -0.70737
 Alpha  occ. eigenvalues --   -0.70517  -0.70370  -0.70318  -0.70122  -0.69890
 Alpha  occ. eigenvalues --   -0.69757  -0.69606  -0.69474  -0.69090  -0.68750
 Alpha  occ. eigenvalues --   -0.68734  -0.66866  -0.66603  -0.66313  -0.64659
 Alpha  occ. eigenvalues --   -0.64102  -0.63705  -0.63126  -0.62188  -0.60130
 Alpha  occ. eigenvalues --   -0.60035  -0.59886  -0.58926  -0.58123  -0.57903
 Alpha  occ. eigenvalues --   -0.57628  -0.56662  -0.56594  -0.56128  -0.55955
 Alpha  occ. eigenvalues --   -0.55655  -0.54781  -0.54581  -0.54383  -0.53575
 Alpha  occ. eigenvalues --   -0.53375  -0.52526  -0.52021  -0.51924  -0.51124
 Alpha  occ. eigenvalues --   -0.50893  -0.50567  -0.50472  -0.50148  -0.49958
 Alpha  occ. eigenvalues --   -0.49637  -0.49351  -0.49196  -0.48684  -0.48561
 Alpha  occ. eigenvalues --   -0.48240  -0.47872  -0.47582  -0.47020  -0.46846
 Alpha  occ. eigenvalues --   -0.46582  -0.46296  -0.46039  -0.45602  -0.45269
 Alpha  occ. eigenvalues --   -0.45189  -0.45079  -0.44820  -0.44647  -0.44324
 Alpha  occ. eigenvalues --   -0.44209  -0.44135  -0.43971  -0.43672  -0.43422
 Alpha  occ. eigenvalues --   -0.43298  -0.43162  -0.43058  -0.42699  -0.42484
 Alpha  occ. eigenvalues --   -0.42472  -0.42353  -0.42180  -0.41737  -0.41709
 Alpha  occ. eigenvalues --   -0.41209  -0.40626  -0.40340  -0.40295  -0.40219
 Alpha  occ. eigenvalues --   -0.39968  -0.39872  -0.39641  -0.39476  -0.39422
 Alpha  occ. eigenvalues --   -0.39252  -0.39102  -0.39036  -0.38968  -0.38823
 Alpha  occ. eigenvalues --   -0.38734  -0.38664  -0.38425  -0.38184  -0.38005
 Alpha  occ. eigenvalues --   -0.37786  -0.37617  -0.37589  -0.37035  -0.36923
 Alpha  occ. eigenvalues --   -0.36712  -0.36352  -0.35869  -0.35415  -0.35355
 Alpha  occ. eigenvalues --   -0.35281  -0.35111  -0.35043  -0.35008  -0.34885
 Alpha  occ. eigenvalues --   -0.34775  -0.34522  -0.34501  -0.34280  -0.34204
 Alpha  occ. eigenvalues --   -0.34038  -0.33913  -0.33529  -0.33494  -0.33417
 Alpha  occ. eigenvalues --   -0.33334  -0.33057  -0.32904  -0.32688  -0.32598
 Alpha  occ. eigenvalues --   -0.32274  -0.31825  -0.31495  -0.30009  -0.29383
 Alpha  occ. eigenvalues --   -0.28500  -0.27887  -0.27546  -0.27277  -0.27147
 Alpha  occ. eigenvalues --   -0.27011  -0.26714  -0.26666  -0.26540  -0.26371
 Alpha  occ. eigenvalues --   -0.25905  -0.25826  -0.25446  -0.25169  -0.25066
 Alpha virt. eigenvalues --   -0.07904  -0.06767  -0.06270  -0.05738  -0.05476
 Alpha virt. eigenvalues --   -0.05113  -0.03157  -0.02250  -0.01172   0.03528
 Alpha virt. eigenvalues --    0.03816   0.03839   0.04034   0.04382   0.04527

 Mulliken charges:
               1
     1  C    0.374238
     2  C   -0.187573
     3  C   -0.351254
     4  C    0.404948
     5  H    0.128472
     6  C   -0.372367
     7  C    0.352848
     8  H    0.135506
     9  C   -0.291221
    10  C   -0.176601
    11  H    0.129973
    12  C   -0.204694
    13  H    0.072037
    14  H    0.084946
    15  H    0.078513
    16  C    0.325811
    17  C    0.048139
    18  C   -0.385590
    19  C    0.391755
    20  H    0.150533
    21  C   -0.366295
    22  C    0.368048
    23  H    0.142081
    24  C   -0.300355
    25  C   -0.161941
    26  H    0.123139
    27  C   -0.146248
    28  H    0.075803
    29  H    0.084230
    30  H    0.082224
    31  C    0.354072
    32  C   -0.198595
    33  C   -0.294745
    34  C    0.385818
    35  H    0.130145
    36  C   -0.372513
    37  C    0.371628
    38  H    0.135053
    39  C   -0.319411
    40  C   -0.161246
    41  H    0.114151
    42  C   -0.187360
    43  H    0.083037
    44  H    0.084741
    45  C    0.115483
    46  C    0.130863
    47  N   -0.259688
    48  H    0.075840
    49  C   -0.038241
    50  N   -0.262832
    51  H    0.068242
    52  C    0.007099
    53  H    0.073869
    54  C   -0.399090
    55  C   -0.391917
    56  H    0.069420
    57  C   -0.423934
    58  C   -0.385656
    59  H    0.120209
    60  H    0.121742
    61  H    0.133963
    62  H    0.117060
    63  H    0.115399
    64  H    0.134802
    65  H    0.125509
    66  H    0.112453
    67  H    0.119818
    68  H    0.116363
    69  H    0.150755
    70  H    0.113228
    71  O   -0.314429
    72  C    0.089831
    73  C    0.104410
    74  N   -0.245482
    75  H    0.082682
    76  C   -0.006044
    77  N   -0.253495
    78  H    0.082930
    79  C   -0.029850
    80  H    0.081934
    81  C   -0.410370
    82  C   -0.388160
    83  H    0.085543
    84  C   -0.407591
    85  C   -0.381589
    86  H    0.112725
    87  H    0.122107
    88  H    0.133477
    89  H    0.138071
    90  H    0.118534
    91  H    0.118614
    92  H    0.125436
    93  H    0.127993
    94  H    0.113134
    95  H    0.137139
    96  H    0.119879
    97  H    0.121926
    98  C    0.098671
    99  C    0.100524
   100  N   -0.254534
   101  H    0.080015
   102  C   -0.026346
   103  N   -0.255811
   104  H    0.076096
   105  C    0.001878
   106  H    0.079242
   107  C   -0.403903
   108  C   -0.383146
   109  H    0.076925
   110  C   -0.409910
   111  C   -0.388464
   112  H    0.128553
   113  H    0.113192
   114  H    0.124206
   115  H    0.118391
   116  H    0.138621
   117  H    0.118138
   118  H    0.130855
   119  H    0.112629
   120  H    0.121192
   121  H    0.117241
   122  H    0.136923
   123  H    0.117241
   124  C    0.127029
   125  C    0.101959
   126  N   -0.243305
   127  H    0.051324
   128  C    0.002501
   129  N   -0.254278
   130  H    0.046687
   131  C   -0.025545
   132  H    0.064353
   133  C   -0.386108
   134  C   -0.383559
   135  H    0.068849
   136  C   -0.384224
   137  C   -0.385047
   138  H    0.126754
   139  H    0.115635
   140  H    0.121383
   141  H    0.110536
   142  H    0.131220
   143  H    0.117007
   144  H    0.123784
   145  H    0.128087
   146  H    0.117811
   147  H    0.118988
   148  H    0.110330
   149  H    0.137629
   150  H    0.097789
 Sum of Mulliken charges =  -0.00000

 Dipole moment (field-independent basis, Debye):
    X=             -0.8852    Y=              0.0201    Z=             -2.8052  Tot=              2.9416
 Quadrupole moment (field-independent basis, Debye-Ang):
   XX=           -408.5210   YY=           -407.4725   ZZ=           -415.1383
   XY=              0.6249   XZ=              3.3787   YZ=              0.0440

 Normal termination of Gaussian 16 at Mon Oct 18 11:10:57 2021.
