 Gaussian 16, Revision C.01,
 Gaussian 16:  ES64L-G16RevC.01  3-Jul-2019

 ----------------------------------------------------------------------
 #P PBE1PBE/Def2TZVP SP SCF=(YQC,MaxCycle=900) int=(Grid=Superfinegrid)
  EmpiricalDispersion=GD3
 ----------------------------------------------------------------------

 -------------------------
 _3_alde1_5_ami4_1_opt_gas
 -------------------------
 Symbolic Z-matrix:
 Charge =  0 Multiplicity = 1

                         Standard orientation:
 ---------------------------------------------------------------------
 Center     Atomic      Atomic             Coordinates (Angstroms)
 Number     Number       Type             X           Y           Z
 ---------------------------------------------------------------------
      1          6           0       -3.628169    0.731694    0.920461
      2          6           0       -4.725921   -0.205862    0.741725
      3          6           0       -3.464524    1.828222    0.074437
      4          6           0       -2.372433    2.674959    0.223261
      5          1           0       -4.206531    2.003528   -0.689418
      6          6           0       -1.406112    2.386315    1.185809
      7          6           0       -1.537809    1.276481    2.011883
      8          1           0       -0.545865    3.032935    1.258690
      9          6           0       -2.671719    0.474360    1.896263
     10          6           0       -0.455950    0.895617    2.907566
     11          1           0       -2.767891   -0.372786    2.557233
     12          6           0       -2.179996    3.812769   -0.668722
     13          1           0        0.502416    1.407481    2.730081
     14          1           0       -4.812195   -0.980260    1.518384
     15          1           0       -2.681365    3.746678   -1.646756
     16          6           0        2.946338    0.853174    0.426078
     17          6           0        3.490341    0.158061    1.646917
     18          6           0        2.951591    0.198253   -0.794403
     19          6           0        2.443572    0.814754   -1.937577
     20          1           0        3.327773   -0.809291   -0.862952
     21          6           0        1.940648    2.106951   -1.849319
     22          6           0        1.964971    2.790687   -0.636838
     23          1           0        1.535068    2.610435   -2.713416
     24          6           0        2.464189    2.151316    0.497601
     25          6           0        1.438646    4.141915   -0.531796
     26          1           0        2.480031    2.676669    1.443123
     27          6           0        2.396802    0.093304   -3.201474
     28          1           0        1.467732    4.584977    0.476384
     29          1           0        1.695591    0.491651   -3.951958
     30          6           0       -2.083128   -2.667242   -1.001532
     31          6           0       -3.424032   -2.499710   -1.546166
     32          6           0       -1.880275   -2.636960    0.377096
     33          6           0       -0.595545   -2.662179    0.911087
     34          1           0       -2.745761   -2.561011    1.016347
     35          6           0        0.496969   -2.781436    0.052571
     36          6           0        0.304935   -2.868178   -1.322896
     37          1           0        1.492635   -2.798663    0.467169
     38          6           0       -0.985180   -2.784477   -1.846204
     39          6           0        1.457540   -3.018387   -2.198099
     40          1           0       -1.106742   -2.822451   -2.918094
     41          6           0       -0.438404   -2.516385    2.349137
     42          1           0        2.428015   -3.086756   -1.687373
     43          1           0       -1.367535   -2.607625    2.928929
     44          6           0       -5.741986   -2.300139   -1.370336
     45          6           0       -6.406136   -1.266191   -0.433102
     46          7           0       -4.457852   -2.620411   -0.834835
     47          1           0       -5.682913   -1.895273   -2.392893
     48          7           0       -5.495215   -0.176891   -0.258912
     49          1           0       -6.644072   -1.764225    0.518892
     50          6           0        5.326380   -0.833366    2.580294
     51          6           0        4.336393   -1.966783    2.235696
     52          7           0        4.938429    0.280334    1.728406
     53          1           0        6.368761   -1.104756    2.424646
     54          7           0        3.209942   -1.280668    1.610588
     55          1           0        4.047104   -2.540185    3.120491
     56          6           0       -1.178644    5.835259   -1.270369
     57          6           0        0.350776    6.039163   -1.289522
     58          7           0       -1.464912    4.794320   -0.336245
     59          1           0       -1.543398    5.604503   -2.283499
     60          7           0        0.966961    4.769735   -1.520127
     61          1           0        0.656487    6.480629   -0.327940
     62          6           0        0.542045   -0.458994    4.522715
     63          6           0        0.648540   -1.986839    4.320516
     64          7           0       -0.589938    0.001633    3.786496
     65          1           0        1.478683    0.029418    4.207709
     66          7           0        0.664269   -2.263769    2.914145
     67          1           0       -0.207150   -2.460981    4.822062
     68          6           0        2.940669   -1.672171   -4.622153
     69          6           0        2.553846   -3.114878   -4.233122
     70          7           0        3.106440   -0.925688   -3.417965
     71          1           0        2.169925   -1.245858   -5.284512
     72          7           0        1.353603   -3.070358   -3.455824
     73          1           0        3.393681   -3.555914   -3.676137
     74          1           0       -3.471376   -2.227814   -2.612024
     75          1           0        2.319209   -1.511821    2.044885
     76          1           0        3.079219    0.638182    2.556806
     77          1           0        5.324579    0.149182    0.796788
     78          1           0       -6.355936   -3.205433   -1.374608
     79          1           0       -7.320269   -0.893687   -0.899449
     80          1           0        5.194396   -0.519022    3.620712
     81          1           0        4.778804   -2.658683    1.507832
     82          1           0       -1.647377    6.759940   -0.920596
     83          1           0        0.613237    6.712491   -2.108464
     84          1           0        0.374660   -0.263745    5.585676
     85          1           0        1.581847   -2.344336    4.761344
     86          1           0        3.898434   -1.702348   -5.149195
     87          1           0        2.360628   -3.691912   -5.139864
 ---------------------------------------------------------------------

 SCF Done:  E(RPBE1PBE) =  -1979.87184991     a.u. after    7 cycles
 SCF Done:  E(RPBE1PBE) =  -1979.87185299     A.U. after    9 cycles

 The electronic state is 1-A.
 Alpha  occ. eigenvalues --  -14.38488 -14.38293 -14.37990 -14.37879 -14.37505
 Alpha  occ. eigenvalues --  -14.37399 -14.37193 -14.37177 -14.36927 -14.35000
 Alpha  occ. eigenvalues --  -10.27388 -10.27300 -10.27168 -10.26863 -10.26715
 Alpha  occ. eigenvalues --  -10.26430 -10.26272 -10.26131 -10.26040 -10.25880
 Alpha  occ. eigenvalues --  -10.25697 -10.25306 -10.25098 -10.24930 -10.24858
 Alpha  occ. eigenvalues --  -10.24681 -10.24554 -10.24356 -10.24301 -10.24279
 Alpha  occ. eigenvalues --  -10.24250 -10.24235 -10.24096 -10.24036 -10.23919
 Alpha  occ. eigenvalues --  -10.23872 -10.23857 -10.23820 -10.23762 -10.23644
 Alpha  occ. eigenvalues --  -10.23563 -10.23545 -10.23458 -10.23346 -10.23262
 Alpha  occ. eigenvalues --  -10.22852 -10.22416  -0.98575  -0.98173  -0.97580
 Alpha  occ. eigenvalues --   -0.97329  -0.97123  -0.95528  -0.94871  -0.94719
 Alpha  occ. eigenvalues --   -0.94406  -0.90218  -0.89586  -0.89186  -0.86745
 Alpha  occ. eigenvalues --   -0.82559  -0.82020  -0.81798  -0.80657  -0.80458
 Alpha  occ. eigenvalues --   -0.79984  -0.77969  -0.76391  -0.75963  -0.75779
 Alpha  occ. eigenvalues --   -0.74121  -0.70058  -0.69688  -0.69476  -0.69275
 Alpha  occ. eigenvalues --   -0.66751  -0.66321  -0.65834  -0.64927  -0.63646
 Alpha  occ. eigenvalues --   -0.63101  -0.62511  -0.62199  -0.60947  -0.60722
 Alpha  occ. eigenvalues --   -0.58533  -0.56934  -0.56820  -0.56073  -0.55913
 Alpha  occ. eigenvalues --   -0.55657  -0.54158  -0.53944  -0.53512  -0.52702
 Alpha  occ. eigenvalues --   -0.52466  -0.51980  -0.51411  -0.50894  -0.50751
 Alpha  occ. eigenvalues --   -0.50417  -0.50211  -0.49826  -0.49389  -0.49225
 Alpha  occ. eigenvalues --   -0.48910  -0.47943  -0.47187  -0.46922  -0.46707
 Alpha  occ. eigenvalues --   -0.46437  -0.46352  -0.46227  -0.45648  -0.45165
 Alpha  occ. eigenvalues --   -0.44873  -0.44771  -0.44096  -0.43812  -0.43553
 Alpha  occ. eigenvalues --   -0.43401  -0.41877  -0.41669  -0.41469  -0.41079
 Alpha  occ. eigenvalues --   -0.40708  -0.40629  -0.40040  -0.39948  -0.39847
 Alpha  occ. eigenvalues --   -0.39406  -0.39098  -0.39016  -0.38880  -0.38327
 Alpha  occ. eigenvalues --   -0.37004  -0.36935  -0.36555  -0.36428  -0.36240
 Alpha  occ. eigenvalues --   -0.35753  -0.35507  -0.35207  -0.35085  -0.34891
 Alpha  occ. eigenvalues --   -0.34742  -0.34470  -0.31663  -0.31029  -0.30609
 Alpha  occ. eigenvalues --   -0.28371  -0.27639  -0.27400  -0.27289  -0.27004
 Alpha  occ. eigenvalues --   -0.26893  -0.26745  -0.26587  -0.26085  -0.26027
 Alpha  occ. eigenvalues --   -0.25793  -0.25713  -0.25574  -0.25380  -0.24816
 Alpha  occ. eigenvalues --   -0.22663
 Alpha virt. eigenvalues --   -0.06523  -0.06240  -0.05586  -0.05293  -0.05189
 Alpha virt. eigenvalues --   -0.03917  -0.02555  -0.01462   0.02042   0.03534
 Alpha virt. eigenvalues --    0.04467   0.04693   0.04850   0.05098   0.05454

 Mulliken charges:
               1
     1  C    0.388903
     2  C   -0.169444
     3  C   -0.383004
     4  C    0.360604
     5  H    0.122878
     6  C   -0.292553
     7  C    0.306125
     8  H    0.112425
     9  C   -0.299450
    10  C   -0.109713
    11  H    0.123372
    12  C   -0.146922
    13  H    0.052173
    14  H    0.076965
    15  H    0.071787
    16  C    0.373576
    17  C   -0.099044
    18  C   -0.336560
    19  C    0.391773
    20  H    0.136156
    21  C   -0.371285
    22  C    0.375612
    23  H    0.117107
    24  C   -0.427745
    25  C   -0.173279
    26  H    0.118297
    27  C   -0.168287
    28  H    0.067875
    29  H    0.066094
    30  C    0.334813
    31  C   -0.142771
    32  C   -0.287643
    33  C    0.369361
    34  H    0.121751
    35  C   -0.319802
    36  C    0.340366
    37  H    0.151534
    38  C   -0.370095
    39  C   -0.172067
    40  H    0.122933
    41  C   -0.140285
    42  H    0.085500
    43  H    0.094837
    44  C   -0.083179
    45  C   -0.064330
    46  N   -0.189835
    47  H    0.073760
    48  N   -0.181862
    49  H    0.079815
    50  C   -0.111612
    51  C   -0.124935
    52  N   -0.271539
    53  H    0.126010
    54  N   -0.292257
    55  H    0.094605
    56  C   -0.076089
    57  C   -0.060288
    58  N   -0.190746
    59  H    0.073122
    60  N   -0.174515
    61  H    0.074234
    62  C   -0.105770
    63  C   -0.040588
    64  N   -0.187435
    65  H    0.075278
    66  N   -0.259017
    67  H    0.091648
    68  C   -0.075678
    69  C   -0.063259
    70  N   -0.183631
    71  H    0.069801
    72  N   -0.181270
    73  H    0.079191
    74  H    0.069540
    75  H    0.207534
    76  H    0.047347
    77  H    0.199539
    78  H    0.115606
    79  H    0.115922
    80  H    0.074044
    81  H    0.081014
    82  H    0.114742
    83  H    0.115673
    84  H    0.120644
    85  H    0.115520
    86  H    0.114558
    87  H    0.115821
 Sum of Mulliken charges =   0.00000

 Dipole moment (field-independent basis, Debye):
    X=             -0.7433    Y=             -0.6464    Z=              0.5966  Tot=              1.1517
 Quadrupole moment (field-independent basis, Debye-Ang):
   XX=           -270.1778   YY=           -271.9104   ZZ=           -258.1101
   XY=             -3.9958   XZ=              7.3474   YZ=             -5.5196

 Normal termination of Gaussian 16 at Mon Oct 18 08:02:52 2021.
