 Gaussian 16, Revision C.01,
 Gaussian 16:  ES64L-G16RevC.01  3-Jul-2019

 ----------------------------------------------------------------------
 #P PBE1PBE/Def2TZVP SP SCF=(YQC,MaxCycle=900) int=(Grid=Superfinegrid)
  EmpiricalDispersion=GD3 SCRF=(PCM,Solvent=Dichloromethane)
 ----------------------------------------------------------------------

 -------------------------
 _3_alde1_5_ami1_1_opt_dcm
 -------------------------
 Symbolic Z-matrix:
 Charge =  0 Multiplicity = 1

                         Standard orientation:
 ---------------------------------------------------------------------
 Center     Atomic      Atomic             Coordinates (Angstroms)
 Number     Number       Type             X           Y           Z
 ---------------------------------------------------------------------
      1          6           0       -1.202505   -2.021158    2.071857
      2          6           0       -0.877007   -1.403254    3.347430
      3          6           0       -0.253648   -2.684745    1.295562
      4          6           0       -0.606324   -3.229952    0.064508
      5          1           0        0.756093   -2.771744    1.666802
      6          6           0       -1.902556   -3.052784   -0.419674
      7          6           0       -2.857858   -2.390764    0.341498
      8          1           0       -2.143752   -3.453067   -1.392646
      9          6           0       -2.506375   -1.909224    1.600365
     10          6           0       -4.193792   -2.141011   -0.184465
     11          1           0       -3.266961   -1.418388    2.186535
     12          6           0        0.377479   -3.965311   -0.716526
     13          1           0       -4.303106   -2.250992   -1.274809
     14          1           0       -1.748971   -1.058604    3.923558
     15          1           0        1.374591   -4.053992   -0.261399
     16          6           0        2.594661    0.141657    0.055879
     17          6           0        3.058982   -0.159885    1.464193
     18          6           0        2.396516    1.444256   -0.373200
     19          6           0        1.926482    1.707466   -1.659576
     20          1           0        2.620220    2.258922    0.300091
     21          6           0        1.638783    0.646000   -2.513534
     22          6           0        1.856262   -0.662144   -2.099495
     23          1           0        1.262374    0.865272   -3.500935
     24          6           0        2.336410   -0.903659   -0.813461
     25          6           0        1.552545   -1.786609   -2.973607
     26          1           0        2.508545   -1.919503   -0.501933
     27          6           0        1.714525    3.084636   -2.072856
     28          1           0        0.843161   -1.584706   -3.792306
     29          1           0        1.969355    3.847734   -1.320565
     30          6           0       -1.214167    2.071543    1.619436
     31          6           0       -0.123142    1.812944    2.549998
     32          6           0       -2.484014    1.555148    1.871167
     33          6           0       -3.488019    1.632529    0.912779
     34          1           0       -2.654975    1.058695    2.813529
     35          6           0       -3.226317    2.273616   -0.296968
     36          6           0       -1.987583    2.858348   -0.532838
     37          1           0       -4.008734    2.310247   -1.039641
     38          6           0       -0.980817    2.742916    0.424579
     39          6           0       -1.724129    3.529867   -1.799960
     40          1           0       -0.014252    3.169299    0.208875
     41          6           0       -4.758141    0.965118    1.153549
     42          1           0       -2.374618    3.233257   -2.638319
     43          1           0       -4.897435    0.569059    2.170884
     44          6           0        0.771260    0.991052    4.547592
     45          6           0        0.461330   -0.468190    4.983136
     46          7           0       -0.329222    1.381609    3.716803
     47          1           0        1.712500    0.995483    3.972861
     48          6           0        0.923202    1.976927    5.723848
     49          7           0        0.298934   -1.222886    3.769406
     50          1           0       -0.489395   -0.431625    5.541366
     51          6           0        1.527170   -1.129590    5.872319
     52          1           0        1.720717    1.603722    6.374920
     53          6           0       -0.363422    2.113809    6.532564
     54          6           0        1.352786    3.341099    5.183398
     55          1           0        1.643807   -0.525392    6.777798
     56          6           0        2.874316   -1.245751    5.167464
     57          6           0        1.032205   -2.516483    6.283922
     58          1           0        0.571012    3.760812    4.554100
     59          1           0        2.261682    3.255067    4.590635
     60          1           0        1.541709    4.028888    6.004617
     61          1           0       -0.594242    1.194189    7.063787
     62          1           0       -1.189903    2.352479    5.868644
     63          1           0       -0.258759    2.910950    7.265477
     64          1           0        0.078061   -2.446855    6.802153
     65          1           0        1.749119   -2.995118    6.947265
     66          1           0        0.900092   -3.140154    5.402646
     67          1           0        3.561846   -1.841776    5.764695
     68          1           0        3.319916   -0.265615    5.017376
     69          1           0        2.731823   -1.729086    4.204544
     70          6           0        5.112544    0.874418    1.525334
     71          6           0        5.321563   -0.646613    1.214291
     72          7           0        3.747947    0.992891    2.031787
     73          1           0        5.137649    1.418954    0.573125
     74          6           0        6.164337    1.491602    2.456744
     75          7           0        4.016175   -1.264238    1.447620
     76          1           0        6.068520   -1.083660    1.885803
     77          6           0        5.783659   -0.901680   -0.230477
     78          1           0        7.144212    1.237791    2.038275
     79          6           0        6.108395    0.954594    3.888576
     80          6           0        6.018599    3.012844    2.468150
     81          1           0        5.056812   -0.441611   -0.907008
     82          6           0        5.814730   -2.402915   -0.506935
     83          6           0        7.161826   -0.297176   -0.485635
     84          1           0        6.747009    3.460978    3.140325
     85          1           0        5.020445    3.290300    2.798778
     86          1           0        6.172855    3.419793    1.471587
     87          1           0        5.259297    1.367901    4.430944
     88          1           0        7.009191    1.245788    4.424204
     89          1           0        6.042525   -0.131379    3.907861
     90          1           0        7.892818   -0.713031    0.205990
     91          1           0        7.151644    0.783548   -0.369748
     92          1           0        7.484384   -0.525234   -1.498948
     93          1           0        6.543908   -2.893128    0.135689
     94          1           0        6.087491   -2.589601   -1.542838
     95          1           0        4.837052   -2.834517   -0.318049
     96          6           0        1.149302   -5.107406   -2.586562
     97          6           0        1.673686   -4.040127   -3.586796
     98          7           0        0.102968   -4.474263   -1.837694
     99          1           0        1.994317   -5.367504   -1.927458
    100          6           0        0.606903   -6.388382   -3.241937
    101          7           0        2.062512   -2.922046   -2.782906
    102          1           0        0.849400   -3.769590   -4.269616
    103          6           0        2.873337   -4.517477   -4.430144
    104          1           0        1.416006   -6.850612   -3.816463
    105          6           0       -0.571834   -6.103208   -4.168062
    106          6           0        0.184955   -7.362335   -2.141405
    107          1           0        2.563900   -5.410760   -4.981967
    108          6           0        4.086220   -4.849756   -3.565467
    109          6           0        3.236011   -3.434349   -5.446448
    110          1           0       -0.619826   -6.928548   -1.552363
    111          1           0        1.019660   -7.579396   -1.477687
    112          1           0       -0.162910   -8.297749   -2.573891
    113          1           0       -0.253485   -5.562218   -5.055406
    114          1           0       -1.311774   -5.508686   -3.640095
    115          1           0       -1.030983   -7.036457   -4.486951
    116          1           0        4.038147   -3.779565   -6.094865
    117          1           0        3.567924   -2.533713   -4.934341
    118          1           0        2.378150   -3.182961   -6.067343
    119          1           0        4.955129   -5.027111   -4.195866
    120          1           0        3.913624   -5.742681   -2.970593
    121          1           0        4.297088   -4.018885   -2.898028
    122          6           0       -6.416641   -1.439824   -0.006703
    123          6           0       -6.761687   -0.022737    0.532302
    124          7           0       -5.146015   -1.783317    0.558677
    125          1           0       -6.353227   -1.385383   -1.106653
    126          6           0       -7.461875   -2.511679    0.367816
    127          7           0       -5.620977    0.799515    0.248793
    128          1           0       -6.907557   -0.119773    1.621480
    129          6           0       -8.019434    0.607048   -0.089013
    130          1           0       -8.439099   -2.162532    0.019368
    131          6           0       -7.523561   -2.758718    1.872691
    132          6           0       -7.135585   -3.814387   -0.362473
    133          1           0       -8.871532   -0.050053    0.113632
    134          6           0       -7.879305    0.801957   -1.596175
    135          6           0       -8.279821    1.951567    0.590687
    136          1           0       -7.098976   -3.656787   -1.438649
    137          1           0       -7.895476   -4.563704   -0.152428
    138          1           0       -6.171959   -4.200092   -0.035991
    139          1           0       -7.911208   -1.890937    2.399417
    140          1           0       -6.529011   -2.981828    2.249732
    141          1           0       -8.178041   -3.601745    2.083653
    142          1           0       -8.391294    1.825666    1.665864
    143          1           0       -9.188711    2.405038    0.201912
    144          1           0       -7.446431    2.625965    0.407329
    145          1           0       -6.943902    1.310830   -1.810444
    146          1           0       -8.703621    1.403584   -1.972762
    147          1           0       -7.889892   -0.150271   -2.120059
    148          6           0        0.972261    4.776717   -3.474529
    149          6           0       -0.544095    4.974473   -3.202856
    150          7           0        1.257577    3.396611   -3.206599
    151          1           0        1.514468    5.427740   -2.767668
    152          6           0        1.408162    5.123047   -4.908499
    153          7           0       -0.808493    4.384435   -1.924315
    154          1           0       -1.109195    4.456177   -3.996056
    155          6           0       -0.975609    6.456522   -3.189019
    156          1           0        1.122521    6.159500   -5.117024
    157          6           0        0.762785    4.204673   -5.942616
    158          6           0        2.930859    5.017530   -4.996192
    159          1           0       -0.625403    6.916167   -4.118764
    160          6           0       -0.391412    7.218417   -2.002252
    161          6           0       -2.501623    6.540810   -3.161722
    162          1           0        3.242339    3.996931   -4.785792
    163          1           0        3.406222    5.679373   -4.274749
    164          1           0        3.275202    5.290154   -5.991173
    165          1           0        1.215937    4.365137   -6.918477
    166          1           0       -0.303507    4.395857   -6.030845
    167          1           0        0.911058    3.169458   -5.649426
    168          1           0       -2.934170    6.019037   -4.013187
    169          1           0       -2.822085    7.579572   -3.198887
    170          1           0       -2.888505    6.093900   -2.248088
    171          1           0       -0.638118    6.704572   -1.076998
    172          1           0       -0.803150    8.224810   -1.968709
    173          1           0        0.689573    7.298705   -2.078276
    174          1           0        0.888598    1.961833    2.146011
    175          1           0        4.005448   -1.746237    2.339873
    176          1           0        2.176340   -0.424127    2.061010
    177          1           0        3.758327    0.906209    3.043817
 ---------------------------------------------------------------------

 SCF Done:  E(RPBE1PBE) =  -3158.32123979     a.u. after    6 cycles
 SCF Done:  E(RPBE1PBE) =  -3158.32128483     A.U. after    9 cycles

 The electronic state is 1-A.
 Alpha  occ. eigenvalues --  -14.37670 -14.37668 -14.37627 -14.37597 -14.37312
 Alpha  occ. eigenvalues --  -14.37247 -14.37196 -14.36924 -14.36911 -14.36448
 Alpha  occ. eigenvalues --  -10.27421 -10.26646 -10.26614 -10.26515 -10.26503
 Alpha  occ. eigenvalues --  -10.26314 -10.26239 -10.26205 -10.25941 -10.25305
 Alpha  occ. eigenvalues --  -10.25083 -10.24991 -10.24937 -10.24851 -10.24788
 Alpha  occ. eigenvalues --  -10.24642 -10.24597 -10.24369 -10.24324 -10.24314
 Alpha  occ. eigenvalues --  -10.24297 -10.24279 -10.24251 -10.24240 -10.24052
 Alpha  occ. eigenvalues --  -10.23984 -10.23845 -10.23845 -10.23818 -10.23809
 Alpha  occ. eigenvalues --  -10.23802 -10.23514 -10.23491 -10.23161 -10.22904
 Alpha  occ. eigenvalues --  -10.22796 -10.22783 -10.22712 -10.22664 -10.22590
 Alpha  occ. eigenvalues --  -10.22589 -10.22465 -10.22346 -10.22288 -10.22203
 Alpha  occ. eigenvalues --  -10.22176 -10.21382 -10.20940 -10.20499 -10.20358
 Alpha  occ. eigenvalues --  -10.20279 -10.20265 -10.20265 -10.20245 -10.20131
 Alpha  occ. eigenvalues --  -10.20125 -10.20083 -10.20078 -10.20027 -10.20017
 Alpha  occ. eigenvalues --  -10.20008 -10.19945 -10.19830 -10.19813 -10.19792
 Alpha  occ. eigenvalues --  -10.19711 -10.19274  -0.99332  -0.98032  -0.97869
 Alpha  occ. eigenvalues --   -0.97708  -0.97679  -0.95201  -0.94796  -0.94781
 Alpha  occ. eigenvalues --   -0.94560  -0.90472  -0.89760  -0.89301  -0.88285
 Alpha  occ. eigenvalues --   -0.84918  -0.84544  -0.84469  -0.83787  -0.83375
 Alpha  occ. eigenvalues --   -0.82421  -0.82201  -0.81746  -0.81658  -0.80706
 Alpha  occ. eigenvalues --   -0.80124  -0.79944  -0.79744  -0.79559  -0.79157
 Alpha  occ. eigenvalues --   -0.78981  -0.74932  -0.74224  -0.74083  -0.73960
 Alpha  occ. eigenvalues --   -0.73067  -0.70793  -0.70624  -0.70406  -0.70323
 Alpha  occ. eigenvalues --   -0.70321  -0.70278  -0.70056  -0.69977  -0.69947
 Alpha  occ. eigenvalues --   -0.69821  -0.69236  -0.69016  -0.68986  -0.68742
 Alpha  occ. eigenvalues --   -0.66932  -0.66754  -0.65982  -0.65927  -0.64486
 Alpha  occ. eigenvalues --   -0.64005  -0.63942  -0.63520  -0.62684  -0.62340
 Alpha  occ. eigenvalues --   -0.60144  -0.59730  -0.59583  -0.59109  -0.58612
 Alpha  occ. eigenvalues --   -0.57900  -0.57745  -0.57574  -0.56882  -0.56596
 Alpha  occ. eigenvalues --   -0.56215  -0.55756  -0.55548  -0.55240  -0.55027
 Alpha  occ. eigenvalues --   -0.54478  -0.53566  -0.53411  -0.53033  -0.52876
 Alpha  occ. eigenvalues --   -0.52014  -0.51876  -0.51727  -0.50814  -0.50514
 Alpha  occ. eigenvalues --   -0.50241  -0.50101  -0.49944  -0.49728  -0.49531
 Alpha  occ. eigenvalues --   -0.49378  -0.48962  -0.48679  -0.48512  -0.48312
 Alpha  occ. eigenvalues --   -0.48156  -0.47713  -0.47088  -0.46845  -0.46783
 Alpha  occ. eigenvalues --   -0.46492  -0.46291  -0.46073  -0.45830  -0.45211
 Alpha  occ. eigenvalues --   -0.45137  -0.45049  -0.44972  -0.44938  -0.44744
 Alpha  occ. eigenvalues --   -0.44507  -0.44346  -0.44087  -0.43693  -0.43467
 Alpha  occ. eigenvalues --   -0.43199  -0.43173  -0.43120  -0.42970  -0.42951
 Alpha  occ. eigenvalues --   -0.42771  -0.42665  -0.42533  -0.42468  -0.42138
 Alpha  occ. eigenvalues --   -0.41972  -0.41951  -0.41740  -0.41593  -0.40898
 Alpha  occ. eigenvalues --   -0.40460  -0.40221  -0.40208  -0.40130  -0.40050
 Alpha  occ. eigenvalues --   -0.39939  -0.39791  -0.39726  -0.39628  -0.39491
 Alpha  occ. eigenvalues --   -0.39238  -0.39163  -0.39030  -0.38960  -0.38923
 Alpha  occ. eigenvalues --   -0.38849  -0.38636  -0.38605  -0.38217  -0.38137
 Alpha  occ. eigenvalues --   -0.38027  -0.37933  -0.37792  -0.37664  -0.37380
 Alpha  occ. eigenvalues --   -0.37161  -0.36785  -0.36677  -0.36596  -0.36382
 Alpha  occ. eigenvalues --   -0.35953  -0.35738  -0.35677  -0.35322  -0.35127
 Alpha  occ. eigenvalues --   -0.34989  -0.34937  -0.34931  -0.34803  -0.34686
 Alpha  occ. eigenvalues --   -0.34646  -0.34592  -0.34562  -0.34465  -0.34308
 Alpha  occ. eigenvalues --   -0.34074  -0.33944  -0.33892  -0.33760  -0.33716
 Alpha  occ. eigenvalues --   -0.33623  -0.33500  -0.33059  -0.33044  -0.32887
 Alpha  occ. eigenvalues --   -0.32838  -0.32652  -0.32437  -0.32315  -0.32242
 Alpha  occ. eigenvalues --   -0.32098  -0.31903  -0.30317  -0.30102  -0.29495
 Alpha  occ. eigenvalues --   -0.27611  -0.27194  -0.27014  -0.26955  -0.26880
 Alpha  occ. eigenvalues --   -0.26613  -0.26540  -0.26302  -0.26205  -0.25971
 Alpha  occ. eigenvalues --   -0.25806  -0.25520  -0.25507  -0.25312  -0.24839
 Alpha  occ. eigenvalues --   -0.23749
 Alpha virt. eigenvalues --   -0.06455  -0.06294  -0.05650  -0.05336  -0.05059
 Alpha virt. eigenvalues --   -0.03970  -0.02361  -0.01369   0.01733   0.02959
 Alpha virt. eigenvalues --    0.03955   0.04188   0.04305   0.04547   0.04564

 Mulliken charges:
               1
     1  C    0.368097
     2  C   -0.196815
     3  C   -0.365506
     4  C    0.402549
     5  H    0.144161
     6  C   -0.374473
     7  C    0.336757
     8  H    0.144247
     9  C   -0.296983
    10  C   -0.188020
    11  H    0.138704
    12  C   -0.218819
    13  H    0.093110
    14  H    0.106911
    15  H    0.102043
    16  C    0.169919
    17  C    0.203487
    18  C   -0.435159
    19  C    0.414035
    20  H    0.159719
    21  C   -0.414970
    22  C    0.417006
    23  H    0.136201
    24  C   -0.431965
    25  C   -0.198277
    26  H    0.139475
    27  C   -0.190871
    28  H    0.089757
    29  H    0.087756
    30  C    0.318073
    31  C   -0.172674
    32  C   -0.316935
    33  C    0.379247
    34  H    0.141516
    35  C   -0.386428
    36  C    0.370177
    37  H    0.144807
    38  C   -0.326512
    39  C   -0.176168
    40  H    0.126883
    41  C   -0.191357
    42  H    0.095114
    43  H    0.097654
    44  C    0.163663
    45  C    0.133578
    46  N   -0.272649
    47  H   -0.001656
    48  C   -0.031084
    49  N   -0.277609
    50  H    0.091867
    51  C    0.018659
    52  H    0.088336
    53  C   -0.423311
    54  C   -0.399448
    55  H    0.090452
    56  C   -0.433592
    57  C   -0.406608
    58  H    0.126511
    59  H    0.126437
    60  H    0.131306
    61  H    0.129334
    62  H    0.131718
    63  H    0.127485
    64  H    0.122684
    65  H    0.129555
    66  H    0.128256
    67  H    0.133420
    68  H    0.118486
    69  H    0.116644
    70  C   -0.054994
    71  C   -0.028133
    72  N   -0.335530
    73  H    0.097459
    74  C   -0.019470
    75  N   -0.329251
    76  H    0.099467
    77  C   -0.022561
    78  H    0.095210
    79  C   -0.441338
    80  C   -0.383834
    81  H    0.084547
    82  C   -0.410315
    83  C   -0.398841
    84  H    0.128076
    85  H    0.127876
    86  H    0.123288
    87  H    0.130876
    88  H    0.139694
    89  H    0.137876
    90  H    0.119263
    91  H    0.130424
    92  H    0.129930
    93  H    0.109708
    94  H    0.122392
    95  H    0.132859
    96  C    0.090349
    97  C    0.087500
    98  N   -0.256591
    99  H    0.090576
   100  C    0.005239
   101  N   -0.263498
   102  H    0.089574
   103  C   -0.018044
   104  H    0.087917
   105  C   -0.429682
   106  C   -0.406374
   107  H    0.089140
   108  C   -0.428291
   109  C   -0.398035
   110  H    0.127112
   111  H    0.120546
   112  H    0.128214
   113  H    0.127753
   114  H    0.133120
   115  H    0.124079
   116  H    0.129611
   117  H    0.126630
   118  H    0.120192
   119  H    0.122587
   120  H    0.126076
   121  H    0.138068
   122  C    0.086393
   123  C    0.102816
   124  N   -0.260112
   125  H    0.091681
   126  C   -0.019195
   127  N   -0.262184
   128  H    0.085144
   129  C    0.004868
   130  H    0.086675
   131  C   -0.421374
   132  C   -0.399139
   133  H    0.085046
   134  C   -0.429077
   135  C   -0.405410
   136  H    0.122125
   137  H    0.130773
   138  H    0.126530
   139  H    0.126396
   140  H    0.130887
   141  H    0.125693
   142  H    0.120397
   143  H    0.128540
   144  H    0.126957
   145  H    0.133255
   146  H    0.124198
   147  H    0.126740
   148  C    0.120259
   149  C    0.091508
   150  N   -0.259781
   151  H    0.076010
   152  C    0.010588
   153  N   -0.266925
   154  H    0.084810
   155  C   -0.012956
   156  H    0.079902
   157  C   -0.426562
   158  C   -0.404442
   159  H    0.082072
   160  C   -0.417953
   161  C   -0.401458
   162  H    0.126896
   163  H    0.119772
   164  H    0.127640
   165  H    0.122709
   166  H    0.124155
   167  H    0.133758
   168  H    0.122345
   169  H    0.130137
   170  H    0.126914
   171  H    0.130576
   172  H    0.124696
   173  H    0.124050
   174  H    0.105410
   175  H    0.198063
   176  H    0.143194
   177  H    0.159643
 Sum of Mulliken charges =   0.00000

 Dipole moment (field-independent basis, Debye):
    X=              1.0336    Y=              0.1599    Z=              2.2292  Tot=              2.4624
 Quadrupole moment (field-independent basis, Debye-Ang):
   XX=           -451.0471   YY=           -475.0727   ZZ=           -450.5398
   XY=              4.6640   XZ=             18.8761   YZ=             -1.1672

 Normal termination of Gaussian 16 at Mon Oct 18 05:06:05 2021.
