 Gaussian 16, Revision C.01,
 Gaussian 16:  ES64L-G16RevC.01  3-Jul-2019

 ----------------------------------------------------------------------
 #P PBE1PBE/Def2TZVP SP SCF=(YQC,MaxCycle=900) int=(Grid=Superfinegrid)
  EmpiricalDispersion=GD3
 ----------------------------------------------------------------------

 -------------------------
 _3_alde1_6_ami4_2_opt_gas
 -------------------------
 Symbolic Z-matrix:
 Charge =  0 Multiplicity = 1

                         Standard orientation:
 ---------------------------------------------------------------------
 Center     Atomic      Atomic             Coordinates (Angstroms)
 Number     Number       Type             X           Y           Z
 ---------------------------------------------------------------------
      1          6           0        2.564023    1.871743    0.587156
      2          6           0        3.514128    1.918011   -0.513960
      3          6           0        2.516682    0.790789    1.469992
      4          6           0        1.630516    0.789866    2.541628
      5          1           0        3.197263   -0.033763    1.322123
      6          6           0        0.756492    1.863924    2.705097
      7          6           0        0.789621    2.947242    1.835635
      8          1           0        0.070889    1.839983    3.538065
      9          6           0        1.705940    2.949558    0.785720
     10          6           0       -0.140470    4.051570    2.024347
     11          1           0        1.733131    3.805526    0.129072
     12          6           0        1.627852   -0.300220    3.509774
     13          1           0       -0.997644    3.836654    2.681431
     14          1           0        3.527433    2.858534   -1.083815
     15          1           0        2.244302   -1.175681    3.258041
     16          6           0       -0.472386   -3.633459    0.155161
     17          6           0        0.769157   -4.051663   -0.483381
     18          6           0       -1.654050   -3.541675   -0.576482
     19          6           0       -2.817382   -3.052216    0.013475
     20          1           0       -1.664785   -3.843639   -1.615469
     21          6           0       -2.790285   -2.637950    1.344678
     22          6           0       -1.618899   -2.733223    2.087783
     23          1           0       -3.698107   -2.244931    1.776189
     24          6           0       -0.469055   -3.239441    1.488729
     25          6           0       -1.546421   -2.249401    3.460773
     26          1           0        0.441833   -3.307235    2.060073
     27          6           0       -4.032449   -2.932126   -0.777363
     28          1           0       -2.370184   -1.600695    3.796443
     29          1           0        0.700765   -4.370141   -1.533294
     30          1           0       -3.929676   -3.181566   -1.845380
     31          6           0       -1.283164    1.018425   -2.492037
     32          6           0       -0.322354    0.209657   -3.235877
     33          6           0       -0.935220    2.293459   -2.049900
     34          6           0       -1.838046    3.068598   -1.331612
     35          1           0        0.052898    2.660636   -2.281200
     36          6           0       -3.093345    2.545360   -1.021491
     37          6           0       -3.456459    1.278309   -1.462701
     38          1           0       -3.776514    3.153418   -0.448193
     39          6           0       -2.551202    0.525129   -2.210450
     40          6           0       -4.755479    0.718175   -1.112955
     41          1           0       -2.855594   -0.455031   -2.545035
     42          6           0       -1.445975    4.401970   -0.905771
     43          1           0       -5.263945    1.190330   -0.257766
     44          1           0       -0.733244   -0.717258   -3.656203
     45          1           0       -0.446755    4.720544   -1.237660
     46          6           0        6.660532    0.877049   -1.287221
     47          6           0        5.240497    1.099480   -1.856716
     48          7           0        6.877110   -0.424742   -0.699231
     49          7           0        4.285544    0.960047   -0.802453
     50          6           0        3.950627   -2.968568   -0.444968
     51          6           0        3.098048   -4.243346   -0.533111
     52          7           0        3.270482   -1.878075   -1.128228
     53          7           0        1.865483   -3.986451    0.137715
     54          6           0        1.601897   -1.563183   -4.538823
     55          6           0        1.893838   -0.132622   -4.049216
     56          7           0        1.443737   -2.547446   -3.483287
     57          7           0        0.873893    0.588731   -3.354597
     58          6           0        0.977506   -1.297098    5.516119
     59          6           0       -0.404464   -1.977265    5.487642
     60          7           0        0.979165   -0.212178    4.588191
     61          7           0       -0.566555   -2.548231    4.193386
     62          6           0       -0.990050    6.175003    1.623777
     63          6           0       -1.644849    6.395526    0.241598
     64          7           0        0.020626    5.178172    1.480790
     65          7           0       -2.187033    5.150352   -0.208324
     66          6           0       -6.247399   -2.359677   -1.151413
     67          6           0       -6.476940   -0.843252   -1.304406
     68          7           0       -5.131324   -2.559846   -0.282293
     69          7           0       -5.253286   -0.252518   -1.743149
     70          1           0        0.651596   -2.299092   -2.897429
     71          1           0        2.263023   -2.519679   -2.875282
     72          1           0        6.708589   -1.152971   -1.385923
     73          1           0        6.224341   -0.566239    0.064091
     74          1           0        3.782610   -1.004511   -1.011383
     75          1           0        2.362816   -1.734735   -0.691409
     76          1           0       -6.832367   -0.418170   -0.352437
     77          1           0       -7.236337   -0.685019   -2.076053
     78          1           0       -6.081793   -2.795171   -2.149711
     79          1           0       -7.131942   -2.808490   -0.693026
     80          1           0        3.615859   -5.047953   -0.003201
     81          1           0        2.957179   -4.527907   -1.587674
     82          1           0        4.908892   -3.142791   -0.942580
     83          1           0        4.143515   -2.759101    0.618871
     84          1           0       -1.189302   -1.246798    5.740974
     85          1           0       -0.405440   -2.785233    6.225129
     86          1           0        1.742495   -2.053930    5.284026
     87          1           0        1.149499   -0.885428    6.514103
     88          1           0        6.853949    1.629059   -0.517345
     89          1           0        7.383603    1.015178   -2.095461
     90          1           0        5.040649    0.319038   -2.599790
     91          1           0        5.186479    2.083100   -2.350402
     92          1           0        2.442594   -1.882635   -5.161410
     93          1           0        0.704555   -1.571614   -5.165381
     94          1           0        2.183517    0.495431   -4.899830
     95          1           0        2.748094   -0.160144   -3.361507
     96          1           0       -0.877916    6.787216   -0.442805
     97          1           0       -2.459280    7.115283    0.343655
     98          1           0       -1.766228    5.889013    2.351440
     99          1           0       -0.516279    7.109133    1.935318
 ---------------------------------------------------------------------

 SCF Done:  E(RPBE1PBE) =  -2170.24684323     a.u. after    6 cycles
 SCF Done:  E(RPBE1PBE) =  -2170.24687184     A.U. after    9 cycles

 The electronic state is 1-A.
 Alpha  occ. eigenvalues --  -14.39039 -14.38187 -14.37959 -14.37922 -14.37834
 Alpha  occ. eigenvalues --  -14.37810 -14.37717 -14.37714 -14.37517 -14.36170
 Alpha  occ. eigenvalues --  -14.35669 -14.34305 -10.27837 -10.27076 -10.26843
 Alpha  occ. eigenvalues --  -10.26763 -10.26748 -10.26641 -10.26571 -10.26540
 Alpha  occ. eigenvalues --  -10.26444 -10.25371 -10.25282 -10.25227 -10.25223
 Alpha  occ. eigenvalues --  -10.25053 -10.25017 -10.24990 -10.24967 -10.24874
 Alpha  occ. eigenvalues --  -10.24704 -10.24696 -10.24586 -10.24479 -10.24475
 Alpha  occ. eigenvalues --  -10.24428 -10.24386 -10.24322 -10.24188 -10.24185
 Alpha  occ. eigenvalues --  -10.24156 -10.24146 -10.24076 -10.24043 -10.23985
 Alpha  occ. eigenvalues --  -10.23788 -10.23691 -10.23670 -10.23569 -10.23514
 Alpha  occ. eigenvalues --  -10.23116  -0.97832  -0.97558  -0.97494  -0.97415
 Alpha  occ. eigenvalues --   -0.96598  -0.95948  -0.95280  -0.95090  -0.94870
 Alpha  occ. eigenvalues --   -0.91377  -0.90790  -0.90209  -0.89931  -0.89601
 Alpha  occ. eigenvalues --   -0.88980  -0.82449  -0.82286  -0.81782  -0.81134
 Alpha  occ. eigenvalues --   -0.80759  -0.80406  -0.77630  -0.76444  -0.76371
 Alpha  occ. eigenvalues --   -0.75322  -0.74959  -0.74416  -0.70091  -0.69822
 Alpha  occ. eigenvalues --   -0.69611  -0.67951  -0.67551  -0.67249  -0.66362
 Alpha  occ. eigenvalues --   -0.65883  -0.64916  -0.63302  -0.63026  -0.62754
 Alpha  occ. eigenvalues --   -0.61726  -0.60949  -0.59759  -0.57863  -0.56990
 Alpha  occ. eigenvalues --   -0.56629  -0.56265  -0.55883  -0.55300  -0.54310
 Alpha  occ. eigenvalues --   -0.54133  -0.53478  -0.53188  -0.52579  -0.52054
 Alpha  occ. eigenvalues --   -0.51957  -0.51637  -0.51143  -0.50769  -0.50607
 Alpha  occ. eigenvalues --   -0.50299  -0.50112  -0.49673  -0.49310  -0.49128
 Alpha  occ. eigenvalues --   -0.48742  -0.48087  -0.47727  -0.47540  -0.47049
 Alpha  occ. eigenvalues --   -0.46684  -0.46567  -0.46422  -0.46283  -0.46095
 Alpha  occ. eigenvalues --   -0.45806  -0.45499  -0.45203  -0.44866  -0.44332
 Alpha  occ. eigenvalues --   -0.43936  -0.43836  -0.42898  -0.42412  -0.42135
 Alpha  occ. eigenvalues --   -0.41823  -0.41392  -0.41296  -0.40787  -0.40745
 Alpha  occ. eigenvalues --   -0.40544  -0.40257  -0.40049  -0.39765  -0.39600
 Alpha  occ. eigenvalues --   -0.39527  -0.39117  -0.38343  -0.37900  -0.37112
 Alpha  occ. eigenvalues --   -0.37077  -0.36810  -0.36759  -0.36578  -0.36063
 Alpha  occ. eigenvalues --   -0.35875  -0.35787  -0.35434  -0.35204  -0.35114
 Alpha  occ. eigenvalues --   -0.34983  -0.34787  -0.31484  -0.30814  -0.30453
 Alpha  occ. eigenvalues --   -0.28782  -0.28063  -0.27712  -0.27374  -0.27340
 Alpha  occ. eigenvalues --   -0.27224  -0.27079  -0.27028  -0.26902  -0.26578
 Alpha  occ. eigenvalues --   -0.26368  -0.26145  -0.25735  -0.25616  -0.25529
 Alpha  occ. eigenvalues --   -0.25155  -0.25064  -0.22845
 Alpha virt. eigenvalues --   -0.06736  -0.06543  -0.06305  -0.05658  -0.05513
 Alpha virt. eigenvalues --   -0.05265  -0.02603  -0.02074  -0.01605   0.02964
 Alpha virt. eigenvalues --    0.03405   0.04169   0.04525   0.04791   0.05005

 Mulliken charges:
               1
     1  C    0.385434
     2  C   -0.127920
     3  C   -0.367930
     4  C    0.363869
     5  H    0.133841
     6  C   -0.337049
     7  C    0.375406
     8  H    0.121997
     9  C   -0.369412
    10  C   -0.152318
    11  H    0.122742
    12  C   -0.163552
    13  H    0.069395
    14  H    0.078265
    15  H    0.084782
    16  C    0.379104
    17  C   -0.221045
    18  C   -0.349308
    19  C    0.355784
    20  H    0.123680
    21  C   -0.378784
    22  C    0.422629
    23  H    0.119918
    24  C   -0.346219
    25  C   -0.154255
    26  H    0.134554
    27  C   -0.159439
    28  H    0.071088
    29  H    0.119667
    30  H    0.065117
    31  C    0.361992
    32  C   -0.182871
    33  C   -0.312263
    34  C    0.376874
    35  H    0.114524
    36  C   -0.370189
    37  C    0.356173
    38  H    0.122872
    39  C   -0.338492
    40  C   -0.151075
    41  H    0.114554
    42  C   -0.168637
    43  H    0.068663
    44  H    0.086623
    45  H    0.073827
    46  C   -0.095096
    47  C   -0.095511
    48  N   -0.479748
    49  N   -0.250884
    50  C   -0.093292
    51  C   -0.076852
    52  N   -0.539172
    53  N   -0.205795
    54  C   -0.114677
    55  C   -0.146703
    56  N   -0.483583
    57  N   -0.166128
    58  C   -0.060287
    59  C   -0.075069
    60  N   -0.184500
    61  N   -0.183875
    62  C   -0.074900
    63  C   -0.071924
    64  N   -0.180481
    65  N   -0.178351
    66  C   -0.061150
    67  C   -0.071663
    68  N   -0.175518
    69  N   -0.188632
    70  H    0.193511
    71  H    0.234957
    72  H    0.206967
    73  H    0.224075
    74  H    0.189898
    75  H    0.240902
    76  H    0.071679
    77  H    0.115520
    78  H    0.072132
    79  H    0.116168
    80  H    0.117964
    81  H    0.096415
    82  H    0.091751
    83  H    0.086216
    84  H    0.070396
    85  H    0.117851
    86  H    0.074909
    87  H    0.118087
    88  H    0.109458
    89  H    0.113757
    90  H    0.116889
    91  H    0.082512
    92  H    0.109237
    93  H    0.107363
    94  H    0.108610
    95  H    0.122247
    96  H    0.082896
    97  H    0.118427
    98  H    0.073194
    99  H    0.117189
 Sum of Mulliken charges =   0.00000

 Dipole moment (field-independent basis, Debye):
    X=             -1.0028    Y=              1.5627    Z=              0.0963  Tot=              1.8592
 Quadrupole moment (field-independent basis, Debye-Ang):
   XX=           -299.4279   YY=           -301.0055   ZZ=           -294.4599
   XY=              2.7962   XZ=             -9.5758   YZ=              1.4397

 Normal termination of Gaussian 16 at Mon Oct 18 02:46:21 2021.
