 Gaussian 16, Revision C.01,
 Gaussian 16:  ES64L-G16RevC.01  3-Jul-2019

 ----------------------------------------------------------------------
 #P PBE1PBE/Def2TZVP SP SCF=(YQC,MaxCycle=900) int=(Grid=Superfinegrid)
  EmpiricalDispersion=GD3 SCRF=(PCM,Solvent=Dichloromethane)
 ----------------------------------------------------------------------

 -------------------------
 _3_alde1_6_ami2_1_opt_dcm
 -------------------------
 Symbolic Z-matrix:
 Charge =  0 Multiplicity = 1

                         Standard orientation:
 ---------------------------------------------------------------------
 Center     Atomic      Atomic             Coordinates (Angstroms)
 Number     Number       Type             X           Y           Z
 ---------------------------------------------------------------------
      1          6           0        4.601102   -0.057915   -0.219484
      2          6           0        5.467600   -1.197569   -0.691892
      3          6           0        3.919302   -0.163855    0.981758
      4          6           0        3.119191    0.878888    1.447400
      5          1           0        3.980413   -1.058114    1.581195
      6          6           0        2.996649    2.034451    0.684588
      7          6           0        3.663455    2.148776   -0.531246
      8          1           0        2.383855    2.860374    1.012689
      9          6           0        4.461916    1.096360   -0.975447
     10          6           0        3.515894    3.344655   -1.354205
     11          1           0        4.986122    1.187848   -1.916821
     12          6           0        2.445824    0.773847    2.737665
     13          1           0        3.788394    3.206178   -2.407009
     14          1           0        1.790149    1.616851    2.985539
     15          6           0       -3.072860   -2.532000    0.483351
     16          6           0       -3.400176   -3.474390   -0.639113
     17          6           0       -3.912377   -1.481303    0.816258
     18          6           0       -3.553836   -0.578186    1.819190
     19          1           0       -4.854140   -1.346100    0.309132
     20          6           0       -2.357251   -0.754312    2.501761
     21          6           0       -1.532617   -1.840165    2.216351
     22          1           0       -2.056299   -0.071050    3.281067
     23          6           0       -1.896892   -2.718505    1.198992
     24          6           0       -0.313930   -2.070985    2.977812
     25          1           0       -1.271632   -3.564023    0.955965
     26          6           0       -4.394780    0.572188    2.128854
     27          1           0        0.297854   -2.928759    2.657963
     28          1           0       -3.891561    1.352575    2.712563
     29          6           0       -1.221279    0.974591   -2.110405
     30          6           0       -0.593584   -0.237480   -2.764358
     31          6           0       -0.509963    2.144740   -1.906013
     32          6           0       -1.095461    3.219780   -1.236238
     33          1           0        0.504586    2.233608   -2.258111
     34          6           0       -2.406187    3.122133   -0.786723
     35          6           0       -3.148412    1.970091   -1.034317
     36          1           0       -2.882683    3.940684   -0.269264
     37          6           0       -2.540584    0.899823   -1.685550
     38          6           0       -4.536250    1.852844   -0.622241
     39          1           0       -3.106938   -0.004455   -1.860454
     40          6           0       -0.324162    4.433004   -0.990463
     41          1           0       -5.039223    0.925502   -0.934687
     42          1           0       -0.623957    5.016912   -0.104778
     43          6           0        6.827639   -2.902136    0.024405
     44          6           0        5.468030   -3.561817   -0.325089
     45          7           0        6.539053   -1.495335    0.239696
     46          1           0        7.306826   -3.343764    0.895700
     47          7           0        4.669358   -2.432097   -0.816595
     48          6           0        5.619247   -4.658917   -1.375674
     49          6           0        4.793845   -4.126100    0.930536
     50          6           0       -2.746218   -4.509567   -2.559068
     51          6           0       -4.027179   -3.669901   -2.885146
     52          7           0       -2.206194   -3.967271   -1.325362
     53          1           0       -2.010083   -4.472366   -3.360546
     54          7           0       -4.271735   -2.896735   -1.661344
     55          6           0       -5.231015   -4.575296   -3.146833
     56          6           0       -3.791421   -2.744395   -4.076296
     57          6           0        0.906978   -1.762709   -1.717360
     58          6           0        1.645637   -0.517254   -2.258041
     59          7           0       -0.507316   -1.361035   -1.801927
     60          6           0        1.327929   -2.107544   -0.297166
     61          6           0        1.125088   -2.970159   -2.636148
     62          7           0        0.748744    0.045701   -3.253314
     63          1           0        2.621744   -0.740039   -2.683426
     64          6           0        2.085302   -0.378707    4.800209
     65          6           0        1.178239   -1.631062    4.714813
     66          7           0        2.658558   -0.212253    3.492689
     67          6           0        3.264925   -0.690308    5.731564
     68          6           0        1.279741    0.801331    5.351057
     69          7           0       -0.000414   -1.351471    3.964984
     70          1           0        0.861551   -1.887129    5.730957
     71          1           0        0.961389    0.576129    6.365220
     72          6           0        2.889036    5.626269   -1.626898
     73          6           0        1.385070    5.950296   -1.437691
     74          7           0        3.110496    4.428745   -0.859627
     75          6           0        3.729413    6.731854   -0.977949
     76          6           0        3.194413    5.538756   -3.125804
     77          7           0        0.615954    4.788430   -1.748162
     78          1           0        1.111740    6.743528   -2.140346
     79          1           0        4.230637    5.251439   -3.294304
     80          6           0       -6.410332    1.809470    1.906605
     81          6           0       -6.464368    2.459326    0.487875
     82          7           0       -5.592830    0.640534    1.742766
     83          6           0       -7.813318    1.324081    2.282450
     84          6           0       -5.920608    2.852651    2.916579
     85          7           0       -5.137983    2.743034    0.043868
     86          1           0       -7.017781    3.397851    0.554520
     87          1           0       -1.605151   -3.167177   -1.536413
     88          1           0       -3.922797   -4.358073   -0.234645
     89          1           0       -4.008169   -1.927027   -1.811284
     90          1           0        0.897140   -0.407305   -4.147845
     91          1           0       -0.828745   -1.049633   -0.888823
     92          1           0       -1.235014   -0.543218   -3.605916
     93          1           0        4.360986   -2.574577   -1.769748
     94          1           0        6.207181   -1.347241    1.188030
     95          1           0        5.933936   -0.930150   -1.657227
     96          1           0       -3.023367   -5.553433   -2.381740
     97          1           0       -3.655808   -3.325721   -4.985667
     98          1           0       -2.900029   -2.138501   -3.915357
     99          1           0       -4.644472   -2.082311   -4.214005
    100          1           0        7.508565   -2.979732   -0.830232
    101          1           0        4.720348   -3.359976    1.698337
    102          1           0        5.363398   -4.965248    1.322764
    103          1           0        3.788535   -4.462702    0.689889
    104          1           0        1.771241    0.208802   -1.449129
    105          1           0        0.848298   -2.732768   -3.661480
    106          1           0        0.512790   -3.803847   -2.301803
    107          1           0        2.169106   -3.272114   -2.613533
    108          1           0        1.759382   -2.468555    4.295308
    109          1           0        1.889166    1.703030    5.369567
    110          1           0        0.394182    0.969351    4.744418
    111          1           0        1.203490    6.308125   -0.411825
    112          1           0        3.032506    6.511630   -3.582944
    113          1           0        2.531824    4.817729   -3.598044
    114          1           0       -6.986199    1.760316   -0.181727
    115          1           0       -6.107400   -3.971183   -3.366769
    116          1           0       -5.442664   -5.175987   -2.266429
    117          1           0       -5.034101   -5.235077   -3.988494
    118          1           0        4.649382   -5.094825   -1.607766
    119          1           0        6.271650   -5.445787   -1.004565
    120          1           0        6.051709   -4.257613   -2.291337
    121          1           0        0.815544   -3.007402    0.032850
    122          1           0        1.087804   -1.294449    0.386858
    123          1           0        2.402543   -2.275451   -0.266696
    124          1           0        2.909074   -0.942563    6.727066
    125          1           0        3.917982    0.176784    5.798999
    126          1           0        3.839594   -1.523409    5.335926
    127          1           0       -5.732509    2.386939    3.882563
    128          1           0       -6.684420    3.615432    3.042884
    129          1           0       -5.012492    3.332088    2.559984
    130          1           0       -8.114781    0.518769    1.618329
    131          1           0       -8.531717    2.136721    2.210728
    132          1           0       -7.808544    0.945162    3.301786
    133          1           0        3.463359    7.701857   -1.390519
    134          1           0        4.785801    6.547726   -1.159951
    135          1           0        3.562634    6.741198    0.095858
 ---------------------------------------------------------------------

 SCF Done:  E(RPBE1PBE) =  -2641.68973818     a.u. after    6 cycles
 SCF Done:  E(RPBE1PBE) =  -2641.68977520     A.U. after    9 cycles

 The electronic state is 1-A.
 Alpha  occ. eigenvalues --  -14.37834 -14.37821 -14.37558 -14.37493 -14.37476
 Alpha  occ. eigenvalues --  -14.37462 -14.37406 -14.37368 -14.37332 -14.36699
 Alpha  occ. eigenvalues --  -14.36584 -14.35957 -10.28269 -10.28006 -10.27568
 Alpha  occ. eigenvalues --  -10.26673 -10.26533 -10.26529 -10.26522 -10.26464
 Alpha  occ. eigenvalues --  -10.26389 -10.26316 -10.26226 -10.26209 -10.25691
 Alpha  occ. eigenvalues --  -10.25487 -10.25422 -10.24531 -10.24498 -10.24452
 Alpha  occ. eigenvalues --  -10.24377 -10.24190 -10.24144 -10.24140 -10.24066
 Alpha  occ. eigenvalues --  -10.24026 -10.23937 -10.23872 -10.23832 -10.23776
 Alpha  occ. eigenvalues --  -10.23732 -10.23605 -10.23552 -10.23456 -10.23428
 Alpha  occ. eigenvalues --  -10.23427 -10.23376 -10.23341 -10.23228 -10.22981
 Alpha  occ. eigenvalues --  -10.22975 -10.20906 -10.20898 -10.20704 -10.20672
 Alpha  occ. eigenvalues --  -10.20601 -10.20545 -10.20414 -10.20376 -10.20301
 Alpha  occ. eigenvalues --  -10.20130 -10.20048 -10.19638  -0.99481  -0.99444
 Alpha  occ. eigenvalues --   -0.99112  -0.97870  -0.97426  -0.97339  -0.95208
 Alpha  occ. eigenvalues --   -0.94962  -0.94628  -0.90200  -0.89759  -0.89685
 Alpha  occ. eigenvalues --   -0.88600  -0.88433  -0.87722  -0.83704  -0.83502
 Alpha  occ. eigenvalues --   -0.83105  -0.82151  -0.81979  -0.81030  -0.80261
 Alpha  occ. eigenvalues --   -0.78961  -0.78347  -0.77992  -0.77884  -0.77583
 Alpha  occ. eigenvalues --   -0.72327  -0.72045  -0.71683  -0.71364  -0.71256
 Alpha  occ. eigenvalues --   -0.71244  -0.71188  -0.71090  -0.71017  -0.70184
 Alpha  occ. eigenvalues --   -0.70043  -0.69878  -0.68071  -0.67806  -0.67518
 Alpha  occ. eigenvalues --   -0.66432  -0.65592  -0.65429  -0.64810  -0.64321
 Alpha  occ. eigenvalues --   -0.63411  -0.60667  -0.60583  -0.60287  -0.59121
 Alpha  occ. eigenvalues --   -0.58474  -0.58347  -0.57783  -0.57340  -0.56802
 Alpha  occ. eigenvalues --   -0.55916  -0.54515  -0.53974  -0.53875  -0.53597
 Alpha  occ. eigenvalues --   -0.53541  -0.53266  -0.52156  -0.51738  -0.51464
 Alpha  occ. eigenvalues --   -0.51191  -0.51031  -0.50615  -0.50132  -0.49752
 Alpha  occ. eigenvalues --   -0.49513  -0.49123  -0.48887  -0.48350  -0.48257
 Alpha  occ. eigenvalues --   -0.48137  -0.47874  -0.47810  -0.47545  -0.47196
 Alpha  occ. eigenvalues --   -0.46739  -0.46678  -0.46243  -0.46035  -0.45986
 Alpha  occ. eigenvalues --   -0.45743  -0.45423  -0.45373  -0.45225  -0.45027
 Alpha  occ. eigenvalues --   -0.44834  -0.44056  -0.43603  -0.43252  -0.42785
 Alpha  occ. eigenvalues --   -0.42672  -0.42278  -0.42000  -0.41863  -0.41564
 Alpha  occ. eigenvalues --   -0.41223  -0.40995  -0.40898  -0.40790  -0.40650
 Alpha  occ. eigenvalues --   -0.40619  -0.40527  -0.40304  -0.40178  -0.39949
 Alpha  occ. eigenvalues --   -0.39804  -0.39659  -0.39520  -0.39433  -0.39313
 Alpha  occ. eigenvalues --   -0.39199  -0.39175  -0.39029  -0.38494  -0.38084
 Alpha  occ. eigenvalues --   -0.37951  -0.37761  -0.37736  -0.37693  -0.37511
 Alpha  occ. eigenvalues --   -0.37196  -0.36981  -0.36925  -0.36836  -0.36477
 Alpha  occ. eigenvalues --   -0.36358  -0.36113  -0.35881  -0.35713  -0.35320
 Alpha  occ. eigenvalues --   -0.35178  -0.35128  -0.34706  -0.34521  -0.34493
 Alpha  occ. eigenvalues --   -0.34363  -0.34134  -0.34049  -0.33770  -0.33621
 Alpha  occ. eigenvalues --   -0.31931  -0.31568  -0.31131  -0.27394  -0.27108
 Alpha  occ. eigenvalues --   -0.27012  -0.26994  -0.26872  -0.26762  -0.26458
 Alpha  occ. eigenvalues --   -0.26443  -0.26214  -0.26098  -0.25950  -0.25783
 Alpha  occ. eigenvalues --   -0.25588  -0.25253  -0.24978  -0.24629  -0.23812
 Alpha  occ. eigenvalues --   -0.23677
 Alpha virt. eigenvalues --   -0.06121  -0.05633  -0.05575  -0.04439  -0.04295
 Alpha virt. eigenvalues --   -0.03879   0.01342   0.01469   0.01676   0.02865
 Alpha virt. eigenvalues --    0.03705   0.04227   0.04315   0.04998   0.05170

 Mulliken charges:
               1
     1  C    0.398168
     2  C   -0.134085
     3  C   -0.361334
     4  C    0.330103
     5  H    0.149922
     6  C   -0.371360
     7  C    0.335142
     8  H    0.120510
     9  C   -0.406473
    10  C   -0.173371
    11  H    0.122048
    12  C   -0.200884
    13  H    0.098193
    14  H    0.108565
    15  C    0.250719
    16  C   -0.014557
    17  C   -0.483437
    18  C    0.413036
    19  H    0.146033
    20  C   -0.378743
    21  C    0.385952
    22  H    0.143473
    23  C   -0.387898
    24  C   -0.184785
    25  H    0.142955
    26  C   -0.155540
    27  H    0.089036
    28  H    0.098110
    29  C    0.150955
    30  C    0.053172
    31  C   -0.331048
    32  C    0.357561
    33  H    0.184333
    34  C   -0.406486
    35  C    0.361461
    36  H    0.125792
    37  C   -0.312195
    38  C   -0.183626
    39  H    0.092040
    40  C   -0.187198
    41  H    0.095997
    42  H    0.088895
    43  C   -0.101016
    44  C    0.106947
    45  N   -0.281959
    46  H    0.139542
    47  N   -0.303823
    48  C   -0.429401
    49  C   -0.400565
    50  C   -0.129167
    51  C    0.119096
    52  N   -0.294136
    53  H    0.127819
    54  N   -0.262649
    55  C   -0.412532
    56  C   -0.431810
    57  C    0.069364
    58  C   -0.063550
    59  N   -0.347603
    60  C   -0.420029
    61  C   -0.394419
    62  N   -0.293325
    63  H    0.120834
    64  C    0.159071
    65  C   -0.097629
    66  N   -0.200591
    67  C   -0.365847
    68  C   -0.433844
    69  N   -0.195639
    70  H    0.127872
    71  H    0.134422
    72  C    0.194521
    73  C   -0.076230
    74  N   -0.203020
    75  C   -0.368001
    76  C   -0.447731
    77  N   -0.210353
    78  H    0.123132
    79  H    0.136064
    80  C    0.155718
    81  C   -0.070954
    82  N   -0.199564
    83  C   -0.369845
    84  C   -0.440732
    85  N   -0.214908
    86  H    0.123066
    87  H    0.177276
    88  H    0.089163
    89  H    0.172072
    90  H    0.211077
    91  H    0.224396
    92  H    0.103438
    93  H    0.214860
    94  H    0.213448
    95  H    0.090261
    96  H    0.098926
    97  H    0.134494
    98  H    0.127420
    99  H    0.135760
   100  H    0.085846
   101  H    0.119293
   102  H    0.125425
   103  H    0.126899
   104  H    0.070228
   105  H    0.114277
   106  H    0.134506
   107  H    0.114976
   108  H    0.086701
   109  H    0.136275
   110  H    0.146784
   111  H    0.087636
   112  H    0.135928
   113  H    0.142459
   114  H    0.096122
   115  H    0.119057
   116  H    0.128477
   117  H    0.121079
   118  H    0.136877
   119  H    0.133122
   120  H    0.131070
   121  H    0.111852
   122  H    0.133215
   123  H    0.158900
   124  H    0.124703
   125  H    0.129927
   126  H    0.126852
   127  H    0.139495
   128  H    0.137094
   129  H    0.143504
   130  H    0.128350
   131  H    0.124401
   132  H    0.128369
   133  H    0.125524
   134  H    0.128496
   135  H    0.127943
 Sum of Mulliken charges =   0.00000

 Dipole moment (field-independent basis, Debye):
    X=              3.3728    Y=             -1.6501    Z=             -2.1816  Tot=              4.3426
 Quadrupole moment (field-independent basis, Debye-Ang):
   XX=           -385.5617   YY=           -369.0370   ZZ=           -359.8697
   XY=            -21.4335   XZ=             -9.1789   YZ=             11.1232

 Normal termination of Gaussian 16 at Sun Oct 17 23:37:53 2021.
