 Gaussian 16, Revision C.01,
 Gaussian 16:  ES64L-G16RevC.01  3-Jul-2019

 ----------------------------------------------------------------------
 #P MP2/aug-cc-pVDZ SP SCF=(YQC,MaxCycle=900) int=(Grid=Superfinegrid)
 SCRF=(PCM,Solvent=Dichloromethane)
 ----------------------------------------------------------------------

 -----------------------------
 _3_alde1_6_ami2_2_opt_dcm_mp2
 -----------------------------
 Symbolic Z-matrix:
 Charge =  0 Multiplicity = 1

                         Standard orientation:
 ---------------------------------------------------------------------
 Center     Atomic      Atomic             Coordinates (Angstroms)
 Number     Number       Type             X           Y           Z
 ---------------------------------------------------------------------
      1          6           0        6.007506   -0.696158   -0.526610
      2          6           0        7.210270   -1.458970   -0.827473
      3          6           0        4.852591   -1.336495   -0.086355
      4          6           0        3.696662   -0.610201    0.189984
      5          1           0        4.852174   -2.405385    0.049349
      6          6           0        3.703755    0.769288    0.020310
      7          6           0        4.857475    1.427884   -0.403788
      8          1           0        2.823513    1.361778    0.221202
      9          6           0        6.004753    0.690011   -0.676098
     10          6           0        4.854261    2.878267   -0.532656
     11          1           0        6.901791    1.196193   -1.007290
     12          6           0        2.493958   -1.274332    0.683699
     13          1           0        5.821784    3.353639   -0.764014
     14          1           0        8.074585   -0.876796   -1.187256
     15          1           0        1.619892   -0.630352    0.822500
     16          6           0       -4.550098   -1.120169   -1.388822
     17          6           0       -5.912933   -1.571234   -1.629007
     18          6           0       -4.009526   -0.094527   -2.154996
     19          6           0       -2.699563    0.337452   -1.945271
     20          1           0       -4.587479    0.384479   -2.930864
     21          6           0       -1.930722   -0.262910   -0.954363
     22          6           0       -2.456570   -1.300594   -0.183024
     23          1           0       -0.916190    0.057243   -0.771102
     24          6           0       -3.764072   -1.719443   -0.404740
     25          6           0       -1.656650   -1.978718    0.824695
     26          1           0       -4.194811   -2.518455    0.179567
     27          6           0       -2.156297    1.428971   -2.740909
     28          1           0       -2.148482   -2.835924    1.311895
     29          1           0       -6.461482   -1.038494   -2.421455
     30          1           0       -1.112699    1.703793   -2.531040
     31          6           0       -1.941813    2.274347    2.158989
     32          6           0       -2.604452    1.533349    3.221080
     33          6           0       -0.636096    2.739221    2.317251
     34          6           0       -0.044778    3.536767    1.343236
     35          1           0       -0.108974    2.485742    3.224765
     36          6           0       -0.760901    3.848891    0.190742
     37          6           0       -2.052502    3.368054    0.003819
     38          1           0       -0.307707    4.467981   -0.565564
     39          6           0       -2.638402    2.582674    0.993523
     40          6           0       -2.779283    3.650254   -1.228180
     41          1           0       -3.645737    2.211337    0.857415
     42          6           0        1.311462    4.051447    1.521464
     43          1           0       -3.800005    3.248452   -1.266912
     44          1           0       -3.664496    1.290425    3.042243
     45          1           0        1.884560    3.587422    2.333792
     46          6           0        8.079515   -4.511892   -2.104420
     47          6           0        8.423061   -3.447302   -1.019929
     48          7           0        6.961954   -5.349460   -1.707876
     49          7           0        7.253801   -2.710989   -0.684279
     50          6           0       -7.698009   -4.456283   -1.735321
     51          6           0       -7.743625   -2.971880   -1.261772
     52          7           0       -6.996199   -5.307838   -0.791695
     53          7           0       -6.427008   -2.517257   -0.970998
     54          6           0       -2.191245   -0.899422    5.494138
     55          6           0       -2.716077    0.559887    5.341497
     56          7           0       -0.739949   -0.963403    5.515504
     57          6           0       -2.684538   -1.734396    4.311916
     58          7           0       -2.020017    1.239264    4.300406
     59          6           0        1.382519   -3.235863    1.443691
     60          6           0        0.251417   -2.378389    2.083008
     61          7           0        2.505908   -2.508249    0.936634
     62          7           0       -0.482102   -1.623051    1.123942
     63          6           0        0.828212   -4.074273    0.284232
     64          6           0        3.759635    4.950619   -0.450195
     65          6           0        3.062319    5.515094    0.816759
     66          7           0        3.789251    3.532694   -0.377415
     67          7           0        1.734586    4.973896    0.777612
     68          6           0        2.920470    7.034341    0.671799
     69          6           0       -2.338078    3.172056   -4.257803
     70          6           0       -2.819251    4.434780   -3.462465
     71          7           0       -2.851489    2.008774   -3.626047
     72          7           0       -2.231742    4.296823   -2.164934
     73          6           0       -2.208632    5.684179   -4.101142
     74          1           0       -0.376277   -0.532063    4.671875
     75          1           0       -0.379818   -0.435627    6.303690
     76          1           0        7.181614   -5.846245   -0.850904
     77          1           0        6.154061   -4.764439   -1.521715
     78          1           0       -7.458211   -5.288684    0.111477
     79          1           0       -6.052755   -4.958846   -0.660743
     80          1           0       -2.363905   -1.283686    3.374696
     81          1           0       -3.769790   -1.802320    4.315516
     82          1           0       -2.266783   -2.735113    4.380361
     83          1           0       -3.806421    0.534834    5.181159
     84          1           0       -2.503963    1.102680    6.268963
     85          1           0       -8.251987   -2.356206   -2.022525
     86          1           0       -8.317076   -2.929666   -0.329022
     87          6           0       -6.970803   -4.541786   -3.078646
     88          1           0       -7.505013   -3.980534   -3.841175
     89          1           0       -6.902475   -5.581585   -3.385185
     90          1           0       -5.963404   -4.140750   -2.989414
     91          1           0        0.718867   -1.676633    2.780585
     92          1           0       -0.396621   -3.064716    2.649953
     93          6           0        1.938090   -4.167001    2.530278
     94          1           0        2.264592   -3.587713    3.390568
     95          1           0        2.791897   -4.708557    2.133233
     96          1           0        1.181976   -4.878495    2.851282
     97          1           0        0.013336   -4.705140    0.631267
     98          1           0        1.618065   -4.702042   -0.119183
     99          1           0        0.461164   -3.424162   -0.507110
    100          6           0        9.299632   -5.406403   -2.327537
    101          6           0        7.699714   -3.806078   -3.407644
    102          1           0        4.759655    5.403725   -0.560447
    103          1           0        3.143384    5.221543   -1.312783
    104          6           0        3.901978    5.181593    2.056133
    105          1           0        3.379540    5.490348    2.959542
    106          1           0        4.850073    5.711673    2.005581
    107          1           0        4.107338    4.114454    2.108872
    108          1           0        2.268561    7.263597   -0.166232
    109          1           0        3.890530    7.497380    0.509299
    110          1           0        2.479264    7.450128    1.574425
    111          1           0       -2.460503    5.740568   -5.156919
    112          1           0       -1.128257    5.662247   -3.990826
    113          1           0       -2.587072    6.571385   -3.599580
    114          6           0       -4.349781    4.507416   -3.504901
    115          1           0       -4.705062    5.251149   -2.793774
    116          1           0       -4.788695    3.542434   -3.267287
    117          1           0       -4.673020    4.793737   -4.502206
    118          1           0       -1.238979    3.194025   -4.286177
    119          1           0       -2.744194    3.228401   -5.269312
    120          1           0        7.421189   -4.547617   -4.150828
    121          1           0        8.534297   -3.220219   -3.785085
    122          1           0        6.851565   -3.144926   -3.243459
    123          1           0        8.745151   -3.976106   -0.115695
    124          1           0        9.250644   -2.807400   -1.371143
    125          6           0       -9.129668   -4.973713   -1.880111
    126          6           0       -2.719862   -1.483663    6.804678
    127          1           0        9.580053   -5.909159   -1.404272
    128          1           0       10.147194   -4.822092   -2.676210
    129          1           0        9.060124   -6.161534   -3.070868
    130          1           0       -3.806766   -1.486815    6.813409
    131          1           0       -2.367145   -0.901966    7.653754
    132          1           0       -2.361049   -2.503293    6.914457
    133          1           0       -9.675201   -4.394926   -2.620902
    134          1           0       -9.658292   -4.910822   -0.931189
    135          1           0       -9.104792   -6.014200   -2.191466
 ---------------------------------------------------------------------

 SCF Done:  E(RHF) =  -2626.81583077     a.u. after    7 cycles
 SCF Done:  E(RHF) =  -2626.81588878     A.U. after   29 cycles
 E2 =    -0.9324389300D+01 EUMP2 =    -0.26361402780826D+04

 The electronic state is 1-A.
 Alpha  occ. eigenvalues --  -15.56470 -15.56334 -15.56197 -15.56163 -15.56055
 Alpha  occ. eigenvalues --  -15.55921 -15.55556 -15.55488 -15.55415 -15.54134
 Alpha  occ. eigenvalues --  -15.54102 -15.53909 -11.29007 -11.28928 -11.28891
 Alpha  occ. eigenvalues --  -11.28888 -11.28742 -11.28731 -11.28588 -11.28178
 Alpha  occ. eigenvalues --  -11.27835 -11.26717 -11.26627 -11.26610 -11.26279
 Alpha  occ. eigenvalues --  -11.26253 -11.26089 -11.25740 -11.25697 -11.25666
 Alpha  occ. eigenvalues --  -11.25648 -11.25617 -11.25427 -11.25398 -11.25386
 Alpha  occ. eigenvalues --  -11.25369 -11.25328 -11.25251 -11.25230 -11.25148
 Alpha  occ. eigenvalues --  -11.25087 -11.25058 -11.25030 -11.25012 -11.24969
 Alpha  occ. eigenvalues --  -11.24967 -11.24873 -11.24850 -11.24798 -11.24609
 Alpha  occ. eigenvalues --  -11.24531 -11.21499 -11.21419 -11.21415 -11.21397
 Alpha  occ. eigenvalues --  -11.21388 -11.21386 -11.21300 -11.21276 -11.21270
 Alpha  occ. eigenvalues --  -11.21115 -11.21103 -11.20988  -1.26973  -1.26292
 Alpha  occ. eigenvalues --   -1.26187  -1.25563  -1.25345  -1.25303  -1.23827
 Alpha  occ. eigenvalues --   -1.23593  -1.23064  -1.19372  -1.19270  -1.19148
 Alpha  occ. eigenvalues --   -1.17477  -1.16953  -1.16802  -1.09227  -1.08896
 Alpha  occ. eigenvalues --   -1.08161  -1.06421  -1.06019  -1.05791  -1.04298
 Alpha  occ. eigenvalues --   -1.03417  -1.03028  -1.02516  -1.02304  -1.02256
 Alpha  occ. eigenvalues --   -0.95658  -0.95472  -0.94983  -0.94788  -0.94698
 Alpha  occ. eigenvalues --   -0.94444  -0.93926  -0.93862  -0.93692  -0.93631
 Alpha  occ. eigenvalues --   -0.93507  -0.93425  -0.89636  -0.89281  -0.88821
 Alpha  occ. eigenvalues --   -0.87451  -0.86953  -0.86892  -0.84876  -0.83142
 Alpha  occ. eigenvalues --   -0.82531  -0.79703  -0.79096  -0.78016  -0.76140
 Alpha  occ. eigenvalues --   -0.75865  -0.75402  -0.75149  -0.75052  -0.74653
 Alpha  occ. eigenvalues --   -0.74296  -0.72666  -0.72272  -0.71288  -0.70216
 Alpha  occ. eigenvalues --   -0.69815  -0.69364  -0.68633  -0.67564  -0.67190
 Alpha  occ. eigenvalues --   -0.66683  -0.66559  -0.66268  -0.66023  -0.65883
 Alpha  occ. eigenvalues --   -0.65687  -0.65545  -0.65240  -0.64978  -0.64714
 Alpha  occ. eigenvalues --   -0.64522  -0.63750  -0.63641  -0.63122  -0.62883
 Alpha  occ. eigenvalues --   -0.62541  -0.62356  -0.62230  -0.62081  -0.61810
 Alpha  occ. eigenvalues --   -0.61062  -0.60899  -0.60474  -0.60125  -0.59955
 Alpha  occ. eigenvalues --   -0.59636  -0.59490  -0.59346  -0.59119  -0.57492
 Alpha  occ. eigenvalues --   -0.56878  -0.56764  -0.56538  -0.56412  -0.56018
 Alpha  occ. eigenvalues --   -0.55139  -0.54920  -0.54836  -0.54604  -0.54289
 Alpha  occ. eigenvalues --   -0.54112  -0.53509  -0.53417  -0.53333  -0.53230
 Alpha  occ. eigenvalues --   -0.52977  -0.52931  -0.52903  -0.52828  -0.52760
 Alpha  occ. eigenvalues --   -0.52690  -0.52518  -0.52246  -0.51803  -0.51543
 Alpha  occ. eigenvalues --   -0.51477  -0.51389  -0.51205  -0.50962  -0.50584
 Alpha  occ. eigenvalues --   -0.50540  -0.50384  -0.50006  -0.49883  -0.49677
 Alpha  occ. eigenvalues --   -0.49465  -0.49205  -0.49129  -0.48402  -0.48217
 Alpha  occ. eigenvalues --   -0.47996  -0.46882  -0.46677  -0.46542  -0.45923
 Alpha  occ. eigenvalues --   -0.45479  -0.45363  -0.44995  -0.44705  -0.44018
 Alpha  occ. eigenvalues --   -0.42083  -0.41066  -0.40991  -0.40750  -0.40700
 Alpha  occ. eigenvalues --   -0.40585  -0.40339  -0.40174  -0.39821  -0.39251
 Alpha  occ. eigenvalues --   -0.39225  -0.38714  -0.38053  -0.37922  -0.37628
 Alpha  occ. eigenvalues --   -0.33158  -0.32681  -0.32503  -0.32146  -0.31904
 Alpha  occ. eigenvalues --   -0.31660
 Alpha virt. eigenvalues --    0.03138   0.03373   0.03540   0.03660   0.03958
 Alpha virt. eigenvalues --    0.04033   0.04175   0.04261   0.04423   0.04581
 Alpha virt. eigenvalues --    0.04756   0.04893   0.04975   0.05041   0.05222

 Mulliken charges:
               1
     1  C    0.536409
     2  C    0.532104
     3  C   -0.249434
     4  C    0.897393
     5  H   -1.023729
     6  C    0.542641
     7  C    0.447753
     8  H   -0.862651
     9  C    0.923970
    10  C    0.295398
    11  H   -0.715018
    12  C    0.573904
    13  H   -0.716377
    14  H   -0.671529
    15  H   -1.019848
    16  C    0.742558
    17  C    0.814725
    18  C   -0.100911
    19  C    1.877924
    20  H   -0.931415
    21  C    0.294675
    22  C    1.953477
    23  H   -1.380303
    24  C   -0.619136
    25  C    0.394802
    26  H   -0.949285
    27  C    0.776401
    28  H   -0.706865
    29  H   -0.674059
    30  H   -0.541789
    31  C    1.928832
    32  C    0.506693
    33  C   -0.159538
    34  C    1.138766
    35  H   -0.941953
    36  C   -0.328063
    37  C    1.608230
    38  H   -1.159387
    39  C    0.283250
    40  C    0.223909
    41  H   -1.112661
    42  C    0.504867
    43  H   -0.758509
    44  H   -0.842697
    45  H   -0.836459
    46  C   -3.677350
    47  C    1.662547
    48  N   -0.067840
    49  N   -0.328362
    50  C   -3.612528
    51  C    1.626354
    52  N   -0.096828
    53  N   -0.440178
    54  C   -3.843579
    55  C    1.681759
    56  N    0.057960
    57  C    1.235611
    58  N   -0.583288
    59  C   -2.132344
    60  C    0.232492
    61  N   -0.282365
    62  N    0.054503
    63  C    1.565357
    64  C    1.636497
    65  C   -4.020824
    66  N    0.057002
    67  N   -0.050203
    68  C    1.697972
    69  C    1.379331
    70  C   -3.558760
    71  N   -0.740579
    72  N   -0.070063
    73  C    1.591299
    74  H    0.104874
    75  H   -0.025205
    76  H    0.002075
    77  H    0.039713
    78  H    0.004693
    79  H    0.021736
    80  H   -0.105527
    81  H   -0.055161
    82  H   -0.001085
    83  H   -0.114010
    84  H   -0.274353
    85  H   -0.156543
    86  H   -0.267025
    87  C    1.447748
    88  H   -0.008785
    89  H   -0.045027
    90  H    0.007725
    91  H   -0.379817
    92  H   -0.367542
    93  C    1.397990
    94  H    0.023990
    95  H   -0.119607
    96  H   -0.054476
    97  H    0.051084
    98  H   -0.191653
    99  H    0.063033
   100  C    1.469919
   101  C    1.458980
   102  H   -0.186416
   103  H   -0.219499
   104  C    1.763717
   105  H    0.014070
   106  H   -0.161831
   107  H    0.074098
   108  H   -0.040026
   109  H   -0.020015
   110  H   -0.049942
   111  H   -0.053584
   112  H   -0.025806
   113  H   -0.021034
   114  C    1.471767
   115  H    0.036004
   116  H   -0.028631
   117  H   -0.093616
   118  H   -0.157444
   119  H   -0.304588
   120  H   -0.042170
   121  H   -0.001454
   122  H   -0.026273
   123  H   -0.257283
   124  H   -0.150779
   125  C    1.468222
   126  C    1.576081
   127  H   -0.048181
   128  H    0.001924
   129  H    0.036705
   130  H    0.066975
   131  H   -0.062941
   132  H    0.041724
   133  H    0.010430
   134  H   -0.046813
   135  H    0.038210
 Sum of Mulliken charges =   0.00000

 Dipole moment (field-independent basis, Debye):
    X=             -1.2059    Y=              4.8908    Z=              1.2898  Tot=              5.1998
 Quadrupole moment (field-independent basis, Debye-Ang):
   XX=           -319.0994   YY=           -427.6277   ZZ=           -385.0890
   XY=             18.5150   XZ=             -4.5739   YZ=            -12.2584

 Normal termination of Gaussian 16 at Thu Nov 11 00:34:38 2021.
