 Gaussian 16, Revision C.01,
 Gaussian 16:  ES64L-G16RevC.01  3-Jul-2019

 ----------------------------------------------------------------------
 #P PBE1PBE/Def2TZVP SP SCF=(YQC,MaxCycle=900) int=(Grid=Superfinegrid)
  EmpiricalDispersion=GD3
 ----------------------------------------------------------------------

 -------------------------
 _3_alde1_5_ami4_2_opt_gas
 -------------------------
 Symbolic Z-matrix:
 Charge =  0 Multiplicity = 1

                         Standard orientation:
 ---------------------------------------------------------------------
 Center     Atomic      Atomic             Coordinates (Angstroms)
 Number     Number       Type             X           Y           Z
 ---------------------------------------------------------------------
      1          6           0       -4.025328    1.412035    0.289217
      2          6           0       -5.104719    0.717570   -0.396229
      3          6           0       -3.399625    2.523488   -0.274341
      4          6           0       -2.307079    3.110466    0.354291
      5          1           0       -3.779043    2.908103   -1.209083
      6          6           0       -1.807732    2.550443    1.531429
      7          6           0       -2.433271    1.455142    2.113206
      8          1           0       -0.934064    2.999744    1.978091
      9          6           0       -3.560833    0.910799    1.499890
     10          6           0       -1.880021    0.832106    3.308853
     11          1           0       -4.040882    0.068124    1.971656
     12          6           0       -1.670934    4.288848   -0.218934
     13          1           0       -0.837243    1.096551    3.542377
     14          1           0       -5.640553   -0.030232    0.206523
     15          1           0       -2.175092    4.720045   -1.098314
     16          6           0        4.279166    1.244300   -0.442744
     17          6           0        5.418297    1.410637    0.449828
     18          6           0        4.044564    0.025625   -1.077014
     19          6           0        2.953240   -0.133691   -1.925547
     20          1           0        4.717368   -0.800784   -0.917187
     21          6           0        2.087137    0.938437   -2.130719
     22          6           0        2.317580    2.166219   -1.517290
     23          1           0        1.233312    0.819147   -2.784253
     24          6           0        3.416570    2.311999   -0.673157
     25          6           0        1.423618    3.283912   -1.776289
     26          1           0        3.577430    3.272139   -0.207279
     27          6           0        2.721093   -1.391384   -2.620466
     28          1           0        0.529800    3.047069   -2.377591
     29          1           0        5.532019    2.408841    0.901364
     30          1           0        1.838977   -1.416101   -3.279592
     31          6           0       -2.596201   -2.423703   -1.112307
     32          6           0       -3.497521   -1.936435   -2.148335
     33          6           0       -2.989132   -2.376153    0.224592
     34          6           0       -2.098078   -2.698697    1.241131
     35          1           0       -3.992993   -2.051075    0.447739
     36          6           0       -0.810841   -3.120451    0.911303
     37          6           0       -0.425992   -3.238352   -0.419859
     38          1           0       -0.128074   -3.362764    1.711344
     39          6           0       -1.317110   -2.867531   -1.427690
     40          6           0        0.899893   -3.743892   -0.749253
     41          1           0       -0.990338   -2.940459   -2.453890
     42          6           0       -2.507858   -2.526363    2.626384
     43          1           0        1.600758   -3.834732    0.094311
     44          1           0       -3.580185   -2.334192    2.779000
     45          6           0       -5.551419   -1.119806   -2.910327
     46          6           0       -6.321427    0.038060   -2.238179
     47          7           0       -4.721085   -1.732507   -1.924338
     48          7           0       -5.372535    0.909716   -1.615169
     49          6           0        7.147178   -0.343754    2.766748
     50          6           0        7.310151    0.643458    1.587010
     51          7           0        7.083372   -1.734737    2.381581
     52          7           0        6.223602    0.468882    0.682337
     53          6           0        0.029408    5.899763   -0.314629
     54          6           0        0.735734    5.497463   -1.625654
     55          7           0       -0.617191    4.768631    0.282247
     56          7           0        1.666161    4.450320   -1.363750
     57          6           0       -1.928091   -0.676495    5.089933
     58          6           0       -2.170897   -2.188113    4.885812
     59          7           0       -2.544654    0.019821    4.006978
     60          7           0       -1.689479   -2.547544    3.587287
     61          6           0        3.200718   -3.594875   -3.185390
     62          6           0        2.518077   -4.571213   -2.209455
     63          7           0        3.495685   -2.379165   -2.496787
     64          7           0        1.206722   -4.088447   -1.923051
     65          1           0        6.310946   -1.865461    1.736110
     66          1           0        7.932170   -2.000696    1.892105
     67          1           0       -3.032554   -1.723607   -3.123852
     68          1           0        6.223437   -0.102255    3.300106
     69          1           0        7.988071   -0.210493    3.452978
     70          1           0        8.230370    0.393277    1.047590
     71          1           0        7.388820    1.673762    1.974435
     72          1           0       -4.977196   -0.742552   -3.771065
     73          1           0       -6.280112   -1.857168   -3.261079
     74          1           0       -7.026296   -0.393379   -1.511705
     75          1           0       -6.866518    0.597361   -3.001254
     76          1           0        4.146027   -4.029989   -3.517855
     77          1           0        2.531302   -3.444059   -4.046242
     78          1           0        3.141799   -4.680453   -1.308223
     79          1           0        2.415033   -5.539837   -2.706781
     80          1           0        0.774473    6.257228    0.398913
     81          1           0       -0.679358    6.706632   -0.546324
     82          1           0       -3.248206   -2.382112    4.997297
     83          1           0       -1.609594   -2.746863    5.637276
     84          1           0       -2.414137   -0.373043    6.021772
     85          1           0       -0.847428   -0.475943    5.160283
     86          1           0        1.292101    6.361625   -1.998555
     87          1           0       -0.028413    5.204635   -2.367399
 ---------------------------------------------------------------------

 SCF Done:  E(RPBE1PBE) =  -1979.85026483     a.u. after    7 cycles
 SCF Done:  E(RPBE1PBE) =  -1979.85027056     A.U. after    9 cycles

 The electronic state is 1-A.
 Alpha  occ. eigenvalues --  -14.38170 -14.37990 -14.37880 -14.37860 -14.37855
 Alpha  occ. eigenvalues --  -14.37696 -14.37634 -14.37544 -14.37462 -14.34998
 Alpha  occ. eigenvalues --  -10.27081 -10.27021 -10.26853 -10.26748 -10.26734
 Alpha  occ. eigenvalues --  -10.26550 -10.26536 -10.26507 -10.26373 -10.25563
 Alpha  occ. eigenvalues --  -10.25490 -10.25245 -10.25216 -10.25035 -10.25021
 Alpha  occ. eigenvalues --  -10.24838 -10.24825 -10.24372 -10.24371 -10.24311
 Alpha  occ. eigenvalues --  -10.24310 -10.24303 -10.24264 -10.24236 -10.24213
 Alpha  occ. eigenvalues --  -10.24202 -10.24114 -10.24100 -10.23965 -10.23951
 Alpha  occ. eigenvalues --  -10.23908 -10.23887 -10.23823 -10.23806 -10.23754
 Alpha  occ. eigenvalues --  -10.23663 -10.23175  -0.97717  -0.97545  -0.97492
 Alpha  occ. eigenvalues --   -0.97335  -0.96275  -0.95323  -0.95178  -0.94913
 Alpha  occ. eigenvalues --   -0.94759  -0.90437  -0.90172  -0.89609  -0.89428
 Alpha  occ. eigenvalues --   -0.82425  -0.82129  -0.82102  -0.81056  -0.80406
 Alpha  occ. eigenvalues --   -0.80275  -0.78010  -0.76462  -0.75887  -0.75867
 Alpha  occ. eigenvalues --   -0.74511  -0.70051  -0.69805  -0.69730  -0.69642
 Alpha  occ. eigenvalues --   -0.67202  -0.66636  -0.66547  -0.65872  -0.63622
 Alpha  occ. eigenvalues --   -0.63314  -0.62937  -0.62145  -0.60689  -0.60403
 Alpha  occ. eigenvalues --   -0.57639  -0.56794  -0.56549  -0.56253  -0.55777
 Alpha  occ. eigenvalues --   -0.55392  -0.54195  -0.53912  -0.53157  -0.52844
 Alpha  occ. eigenvalues --   -0.52427  -0.52003  -0.51126  -0.50907  -0.50763
 Alpha  occ. eigenvalues --   -0.50495  -0.49940  -0.49691  -0.49297  -0.49040
 Alpha  occ. eigenvalues --   -0.48754  -0.48213  -0.47334  -0.46777  -0.46691
 Alpha  occ. eigenvalues --   -0.46557  -0.46359  -0.46297  -0.46212  -0.45563
 Alpha  occ. eigenvalues --   -0.45202  -0.45060  -0.44868  -0.44202  -0.43990
 Alpha  occ. eigenvalues --   -0.43793  -0.42087  -0.42012  -0.41843  -0.41464
 Alpha  occ. eigenvalues --   -0.41423  -0.40830  -0.40456  -0.40227  -0.39748
 Alpha  occ. eigenvalues --   -0.39684  -0.39606  -0.39025  -0.38805  -0.37306
 Alpha  occ. eigenvalues --   -0.37060  -0.36924  -0.36781  -0.36499  -0.36394
 Alpha  occ. eigenvalues --   -0.36230  -0.35608  -0.35503  -0.35251  -0.35063
 Alpha  occ. eigenvalues --   -0.34937  -0.34676  -0.31205  -0.31051  -0.30324
 Alpha  occ. eigenvalues --   -0.27666  -0.27575  -0.27422  -0.27364  -0.27086
 Alpha  occ. eigenvalues --   -0.26888  -0.26848  -0.26726  -0.26616  -0.26298
 Alpha  occ. eigenvalues --   -0.26002  -0.25850  -0.25725  -0.25567  -0.25041
 Alpha  occ. eigenvalues --   -0.24108
 Alpha virt. eigenvalues --   -0.06457  -0.06438  -0.06044  -0.05779  -0.05359
 Alpha virt. eigenvalues --   -0.05187  -0.02745  -0.01813  -0.01493   0.04129
 Alpha virt. eigenvalues --    0.04711   0.04852   0.04954   0.05110   0.05344

 Mulliken charges:
               1
     1  C    0.379576
     2  C   -0.173598
     3  C   -0.371248
     4  C    0.400077
     5  H    0.118603
     6  C   -0.353592
     7  C    0.334708
     8  H    0.128969
     9  C   -0.289117
    10  C   -0.145603
    11  H    0.123149
    12  C   -0.187484
    13  H    0.073426
    14  H    0.081355
    15  H    0.075106
    16  C    0.415100
    17  C   -0.176277
    18  C   -0.371534
    19  C    0.379696
    20  H    0.135731
    21  C   -0.319735
    22  C    0.317505
    23  H    0.105614
    24  C   -0.349728
    25  C   -0.129575
    26  H    0.122633
    27  C   -0.171750
    28  H    0.059986
    29  H    0.067702
    30  H    0.064690
    31  C    0.327105
    32  C   -0.143815
    33  C   -0.280286
    34  C    0.385456
    35  H    0.121703
    36  C   -0.368123
    37  C    0.379313
    38  H    0.123922
    39  C   -0.361441
    40  C   -0.162081
    41  H    0.123868
    42  C   -0.179858
    43  H    0.076843
    44  H    0.081497
    45  C   -0.086695
    46  C   -0.061645
    47  N   -0.187979
    48  N   -0.187774
    49  C   -0.083002
    50  C   -0.118100
    51  N   -0.496728
    52  N   -0.165010
    53  C   -0.080877
    54  C   -0.132555
    55  N   -0.162810
    56  N   -0.164459
    57  C   -0.085067
    58  C   -0.063745
    59  N   -0.190046
    60  N   -0.182645
    61  C   -0.066834
    62  C   -0.071284
    63  N   -0.168272
    64  N   -0.182856
    65  H    0.227509
    66  H    0.206785
    67  H    0.064916
    68  H    0.103917
    69  H    0.107200
    70  H    0.112091
    71  H    0.065742
    72  H    0.073481
    73  H    0.116769
    74  H    0.081426
    75  H    0.115472
    76  H    0.119465
    77  H    0.075164
    78  H    0.074747
    79  H    0.118103
    80  H    0.111810
    81  H    0.100745
    82  H    0.080873
    83  H    0.117121
    84  H    0.116183
    85  H    0.076148
    86  H    0.120855
    87  H    0.083373
 Sum of Mulliken charges =   0.00000

 Dipole moment (field-independent basis, Debye):
    X=             -1.4204    Y=              1.6733    Z=             -1.7804  Tot=              2.8262
 Quadrupole moment (field-independent basis, Debye-Ang):
   XX=           -269.2653   YY=           -270.3106   ZZ=           -262.9819
   XY=              4.9990   XZ=              3.1652   YZ=              1.7926

 Normal termination of Gaussian 16 at Mon Oct 18 01:32:32 2021.
