 Gaussian 16, Revision C.01,
 Gaussian 16:  ES64L-G16RevC.01  3-Jul-2019

 ----------------------------------------------------------------------
 #P MP2/aug-cc-pVDZ SP SCF=(YQC,MaxCycle=900) int=(Grid=Superfinegrid)
 SCRF=(PCM,Solvent=Dichloromethane)
 ----------------------------------------------------------------------

 -----------------------------
 _3_alde1_5_ami4_1_opt_dcm_mp2
 -----------------------------
 Symbolic Z-matrix:
 Charge =  0 Multiplicity = 1

                         Standard orientation:
 ---------------------------------------------------------------------
 Center     Atomic      Atomic             Coordinates (Angstroms)
 Number     Number       Type             X           Y           Z
 ---------------------------------------------------------------------
      1          6           0       -3.628169    0.731694    0.920461
      2          6           0       -4.725921   -0.205862    0.741725
      3          6           0       -3.464524    1.828222    0.074437
      4          6           0       -2.372433    2.674959    0.223261
      5          1           0       -4.206531    2.003528   -0.689418
      6          6           0       -1.406112    2.386315    1.185809
      7          6           0       -1.537809    1.276481    2.011883
      8          1           0       -0.545865    3.032935    1.258690
      9          6           0       -2.671719    0.474360    1.896263
     10          6           0       -0.455950    0.895617    2.907566
     11          1           0       -2.767891   -0.372786    2.557233
     12          6           0       -2.179996    3.812769   -0.668722
     13          1           0        0.502416    1.407481    2.730081
     14          1           0       -4.812195   -0.980260    1.518384
     15          1           0       -2.681365    3.746678   -1.646756
     16          6           0        2.946338    0.853174    0.426078
     17          6           0        3.490341    0.158061    1.646917
     18          6           0        2.951591    0.198253   -0.794403
     19          6           0        2.443572    0.814754   -1.937577
     20          1           0        3.327773   -0.809291   -0.862952
     21          6           0        1.940648    2.106951   -1.849319
     22          6           0        1.964971    2.790687   -0.636838
     23          1           0        1.535068    2.610435   -2.713416
     24          6           0        2.464189    2.151316    0.497601
     25          6           0        1.438646    4.141915   -0.531796
     26          1           0        2.480031    2.676669    1.443123
     27          6           0        2.396802    0.093304   -3.201474
     28          1           0        1.467732    4.584977    0.476384
     29          1           0        1.695591    0.491651   -3.951958
     30          6           0       -2.083128   -2.667242   -1.001532
     31          6           0       -3.424032   -2.499710   -1.546166
     32          6           0       -1.880275   -2.636960    0.377096
     33          6           0       -0.595545   -2.662179    0.911087
     34          1           0       -2.745761   -2.561011    1.016347
     35          6           0        0.496969   -2.781436    0.052571
     36          6           0        0.304935   -2.868178   -1.322896
     37          1           0        1.492635   -2.798663    0.467169
     38          6           0       -0.985180   -2.784477   -1.846204
     39          6           0        1.457540   -3.018387   -2.198099
     40          1           0       -1.106742   -2.822451   -2.918094
     41          6           0       -0.438404   -2.516385    2.349137
     42          1           0        2.428015   -3.086756   -1.687373
     43          1           0       -1.367535   -2.607625    2.928929
     44          6           0       -5.741986   -2.300139   -1.370336
     45          6           0       -6.406136   -1.266191   -0.433102
     46          7           0       -4.457852   -2.620411   -0.834835
     47          1           0       -5.682913   -1.895273   -2.392893
     48          7           0       -5.495215   -0.176891   -0.258912
     49          1           0       -6.644072   -1.764225    0.518892
     50          6           0        5.326380   -0.833366    2.580294
     51          6           0        4.336393   -1.966783    2.235696
     52          7           0        4.938429    0.280334    1.728406
     53          1           0        6.368761   -1.104756    2.424646
     54          7           0        3.209942   -1.280668    1.610588
     55          1           0        4.047104   -2.540185    3.120491
     56          6           0       -1.178644    5.835259   -1.270369
     57          6           0        0.350776    6.039163   -1.289522
     58          7           0       -1.464912    4.794320   -0.336245
     59          1           0       -1.543398    5.604503   -2.283499
     60          7           0        0.966961    4.769735   -1.520127
     61          1           0        0.656487    6.480629   -0.327940
     62          6           0        0.542045   -0.458994    4.522715
     63          6           0        0.648540   -1.986839    4.320516
     64          7           0       -0.589938    0.001633    3.786496
     65          1           0        1.478683    0.029418    4.207709
     66          7           0        0.664269   -2.263769    2.914145
     67          1           0       -0.207150   -2.460981    4.822062
     68          6           0        2.940669   -1.672171   -4.622153
     69          6           0        2.553846   -3.114878   -4.233122
     70          7           0        3.106440   -0.925688   -3.417965
     71          1           0        2.169925   -1.245858   -5.284512
     72          7           0        1.353603   -3.070358   -3.455824
     73          1           0        3.393681   -3.555914   -3.676137
     74          1           0       -3.471376   -2.227814   -2.612024
     75          1           0        2.319209   -1.511821    2.044885
     76          1           0        3.079219    0.638182    2.556806
     77          1           0        5.324579    0.149182    0.796788
     78          1           0       -6.355936   -3.205433   -1.374608
     79          1           0       -7.320269   -0.893687   -0.899449
     80          1           0        5.194396   -0.519022    3.620712
     81          1           0        4.778804   -2.658683    1.507832
     82          1           0       -1.647377    6.759940   -0.920596
     83          1           0        0.613237    6.712491   -2.108464
     84          1           0        0.374660   -0.263745    5.585676
     85          1           0        1.581847   -2.344336    4.761344
     86          1           0        3.898434   -1.702348   -5.149195
     87          1           0        2.360628   -3.691912   -5.139864
 ---------------------------------------------------------------------

 SCF Done:  E(RHF) =  -1969.03061015     a.u. after    7 cycles
 SCF Done:  E(RHF) =  -1969.03066980     A.U. after   18 cycles
 E2 =    -0.6819790249D+01 EUMP2 =    -0.19758504600474D+04

 The electronic state is 1-A.
 Alpha  occ. eigenvalues --  -15.56579 -15.56451 -15.56426 -15.56386 -15.56162
 Alpha  occ. eigenvalues --  -15.56096 -15.55963 -15.55944 -15.55436 -15.52889
 Alpha  occ. eigenvalues --  -11.29197 -11.29068 -11.28877 -11.28778 -11.28746
 Alpha  occ. eigenvalues --  -11.28689 -11.28577 -11.28525 -11.28523 -11.26176
 Alpha  occ. eigenvalues --  -11.25974 -11.25901 -11.25827 -11.25716 -11.25650
 Alpha  occ. eigenvalues --  -11.25607 -11.25563 -11.25541 -11.25523 -11.25505
 Alpha  occ. eigenvalues --  -11.25499 -11.25495 -11.25415 -11.25266 -11.25256
 Alpha  occ. eigenvalues --  -11.25245 -11.25206 -11.25205 -11.25066 -11.25009
 Alpha  occ. eigenvalues --  -11.24933 -11.24766 -11.24722 -11.24545 -11.24457
 Alpha  occ. eigenvalues --  -11.24328 -11.24016  -1.27405  -1.26776  -1.26451
 Alpha  occ. eigenvalues --   -1.26330  -1.26236  -1.23948  -1.23500  -1.23364
 Alpha  occ. eigenvalues --   -1.23148  -1.17756  -1.16994  -1.16766  -1.13564
 Alpha  occ. eigenvalues --   -1.07822  -1.07413  -1.07245  -1.05994  -1.05698
 Alpha  occ. eigenvalues --   -1.05323  -1.01754  -1.00204  -0.99730  -0.99680
 Alpha  occ. eigenvalues --   -0.97745  -0.91843  -0.91511  -0.91476  -0.91341
 Alpha  occ. eigenvalues --   -0.88043  -0.87613  -0.86928  -0.85768  -0.83785
 Alpha  occ. eigenvalues --   -0.83200  -0.82762  -0.82021  -0.80694  -0.80078
 Alpha  occ. eigenvalues --   -0.77555  -0.75572  -0.75459  -0.74760  -0.74557
 Alpha  occ. eigenvalues --   -0.74321  -0.71475  -0.71129  -0.70759  -0.69511
 Alpha  occ. eigenvalues --   -0.69263  -0.68282  -0.67749  -0.67326  -0.67260
 Alpha  occ. eigenvalues --   -0.66767  -0.66580  -0.65803  -0.65360  -0.65137
 Alpha  occ. eigenvalues --   -0.64808  -0.63847  -0.62560  -0.62245  -0.62112
 Alpha  occ. eigenvalues --   -0.61746  -0.61628  -0.61539  -0.60766  -0.60309
 Alpha  occ. eigenvalues --   -0.59914  -0.59515  -0.58828  -0.58785  -0.58453
 Alpha  occ. eigenvalues --   -0.57994  -0.55515  -0.55273  -0.55042  -0.54869
 Alpha  occ. eigenvalues --   -0.54798  -0.54189  -0.54028  -0.53748  -0.53571
 Alpha  occ. eigenvalues --   -0.53124  -0.52998  -0.52769  -0.52438  -0.51613
 Alpha  occ. eigenvalues --   -0.50768  -0.50476  -0.50152  -0.49845  -0.49708
 Alpha  occ. eigenvalues --   -0.48926  -0.48324  -0.46125  -0.45764  -0.45548
 Alpha  occ. eigenvalues --   -0.45347  -0.45172  -0.41930  -0.41637  -0.41434
 Alpha  occ. eigenvalues --   -0.41006  -0.40895  -0.40817  -0.40736  -0.40554
 Alpha  occ. eigenvalues --   -0.40203  -0.40034  -0.39910  -0.38971  -0.36041
 Alpha  occ. eigenvalues --   -0.33223  -0.33065  -0.32777  -0.32668  -0.32297
 Alpha  occ. eigenvalues --   -0.31809
 Alpha virt. eigenvalues --    0.03352   0.03598   0.03877   0.03975   0.04420
 Alpha virt. eigenvalues --    0.04470   0.04547   0.04805   0.04904   0.05363
 Alpha virt. eigenvalues --    0.05526   0.05747   0.05787   0.05844   0.05959

 Mulliken charges:
               1
     1  C    0.697619
     2  C    0.819886
     3  C    0.580432
     4  C    0.819529
     5  H   -0.886597
     6  C    0.622536
     7  C    1.252977
     8  H   -0.834120
     9  C    0.250123
    10  C    0.990756
    11  H   -1.065818
    12  C    0.582712
    13  H   -0.804638
    14  H   -0.640742
    15  H   -0.625623
    16  C    1.603065
    17  C    1.084766
    18  C    0.349493
    19  C    0.895631
    20  H   -1.291853
    21  C    0.341537
    22  C    0.736658
    23  H   -0.952728
    24  C   -0.034438
    25  C    1.067966
    26  H   -0.972208
    27  C    0.757859
    28  H   -0.639537
    29  H   -0.670374
    30  C    1.046364
    31  C    0.690806
    32  C   -0.007430
    33  C    1.404531
    34  H   -1.018266
    35  C    0.655839
    36  C    0.900686
    37  H   -0.804480
    38  C    0.190141
    39  C    1.038548
    40  H   -0.887808
    41  C    0.120066
    42  H   -0.750172
    43  H   -0.700711
    44  C    0.709096
    45  C    0.578620
    46  N   -0.697864
    47  H   -0.125285
    48  N   -0.854356
    49  H   -0.097787
    50  C    0.828145
    51  C    0.861336
    52  N   -0.763819
    53  H   -0.238659
    54  N   -0.092210
    55  H   -0.236181
    56  C    0.730762
    57  C    0.572539
    58  N   -0.726319
    59  H   -0.128628
    60  N   -0.863575
    61  H   -0.101138
    62  C    0.976772
    63  C    0.708186
    64  N   -0.807199
    65  H   -0.192735
    66  N   -0.523624
    67  H   -0.182654
    68  C    0.671332
    69  C    0.581117
    70  N   -0.786527
    71  H   -0.122748
    72  N   -0.878347
    73  H   -0.110313
    74  H   -0.691131
    75  H   -0.528297
    76  H   -0.510158
    77  H    0.082476
    78  H   -0.244254
    79  H   -0.320012
    80  H   -0.277695
    81  H   -0.349113
    82  H   -0.240930
    83  H   -0.316169
    84  H   -0.303876
    85  H   -0.307311
    86  H   -0.257741
    87  H   -0.336710
 Sum of Mulliken charges =   0.00000

 Dipole moment (field-independent basis, Debye):
    X=             -0.8889    Y=             -0.8460    Z=              1.3667  Tot=              1.8368
 Quadrupole moment (field-independent basis, Debye-Ang):
   XX=           -277.4547   YY=           -278.2187   ZZ=           -259.1819
   XY=             -4.6481   XZ=             11.3056   YZ=             -7.6327

 Normal termination of Gaussian 16 at Tue Nov  9 08:36:07 2021.
