 Gaussian 16, Revision C.01,
 Gaussian 16:  ES64L-G16RevC.01  3-Jul-2019

 ----------------------------------------------------------------------
 #P PBE1PBE/Def2TZVP SP SCF=(YQC,MaxCycle=900) int=(Grid=Superfinegrid)
  EmpiricalDispersion=GD3 SCRF=(PCM,Solvent=Chloroform)
 ----------------------------------------------------------------------

 -------------------------
 _3_alde1_6_ami2_2_opt_cfm
 -------------------------
 Symbolic Z-matrix:
 Charge =  0 Multiplicity = 1

                         Standard orientation:
 ---------------------------------------------------------------------
 Center     Atomic      Atomic             Coordinates (Angstroms)
 Number     Number       Type             X           Y           Z
 ---------------------------------------------------------------------
      1          6           0        6.007506   -0.696158   -0.526610
      2          6           0        7.210270   -1.458970   -0.827473
      3          6           0        4.852591   -1.336495   -0.086355
      4          6           0        3.696662   -0.610201    0.189984
      5          1           0        4.852174   -2.405385    0.049349
      6          6           0        3.703755    0.769288    0.020310
      7          6           0        4.857475    1.427884   -0.403788
      8          1           0        2.823513    1.361778    0.221202
      9          6           0        6.004753    0.690011   -0.676098
     10          6           0        4.854261    2.878267   -0.532656
     11          1           0        6.901791    1.196193   -1.007290
     12          6           0        2.493958   -1.274332    0.683699
     13          1           0        5.821784    3.353639   -0.764014
     14          1           0        8.074585   -0.876796   -1.187256
     15          1           0        1.619892   -0.630352    0.822500
     16          6           0       -4.550098   -1.120169   -1.388822
     17          6           0       -5.912933   -1.571234   -1.629007
     18          6           0       -4.009526   -0.094527   -2.154996
     19          6           0       -2.699563    0.337452   -1.945271
     20          1           0       -4.587479    0.384479   -2.930864
     21          6           0       -1.930722   -0.262910   -0.954363
     22          6           0       -2.456570   -1.300594   -0.183024
     23          1           0       -0.916190    0.057243   -0.771102
     24          6           0       -3.764072   -1.719443   -0.404740
     25          6           0       -1.656650   -1.978718    0.824695
     26          1           0       -4.194811   -2.518455    0.179567
     27          6           0       -2.156297    1.428971   -2.740909
     28          1           0       -2.148482   -2.835924    1.311895
     29          1           0       -6.461482   -1.038494   -2.421455
     30          1           0       -1.112699    1.703793   -2.531040
     31          6           0       -1.941813    2.274347    2.158989
     32          6           0       -2.604452    1.533349    3.221080
     33          6           0       -0.636096    2.739221    2.317251
     34          6           0       -0.044778    3.536767    1.343236
     35          1           0       -0.108974    2.485742    3.224765
     36          6           0       -0.760901    3.848891    0.190742
     37          6           0       -2.052502    3.368054    0.003819
     38          1           0       -0.307707    4.467981   -0.565564
     39          6           0       -2.638402    2.582674    0.993523
     40          6           0       -2.779283    3.650254   -1.228180
     41          1           0       -3.645737    2.211337    0.857415
     42          6           0        1.311462    4.051447    1.521464
     43          1           0       -3.800005    3.248452   -1.266912
     44          1           0       -3.664496    1.290425    3.042243
     45          1           0        1.884560    3.587422    2.333792
     46          6           0        8.079515   -4.511892   -2.104420
     47          6           0        8.423061   -3.447302   -1.019929
     48          7           0        6.961954   -5.349460   -1.707876
     49          7           0        7.253801   -2.710989   -0.684279
     50          6           0       -7.698009   -4.456283   -1.735321
     51          6           0       -7.743625   -2.971880   -1.261772
     52          7           0       -6.996199   -5.307838   -0.791695
     53          7           0       -6.427008   -2.517257   -0.970998
     54          6           0       -2.191245   -0.899422    5.494138
     55          6           0       -2.716077    0.559887    5.341497
     56          7           0       -0.739949   -0.963403    5.515504
     57          6           0       -2.684538   -1.734396    4.311916
     58          7           0       -2.020017    1.239264    4.300406
     59          6           0        1.382519   -3.235863    1.443691
     60          6           0        0.251417   -2.378389    2.083008
     61          7           0        2.505908   -2.508249    0.936634
     62          7           0       -0.482102   -1.623051    1.123942
     63          6           0        0.828212   -4.074273    0.284232
     64          6           0        3.759635    4.950619   -0.450195
     65          6           0        3.062319    5.515094    0.816759
     66          7           0        3.789251    3.532694   -0.377415
     67          7           0        1.734586    4.973896    0.777612
     68          6           0        2.920470    7.034341    0.671799
     69          6           0       -2.338078    3.172056   -4.257803
     70          6           0       -2.819251    4.434780   -3.462465
     71          7           0       -2.851489    2.008774   -3.626047
     72          7           0       -2.231742    4.296823   -2.164934
     73          6           0       -2.208632    5.684179   -4.101142
     74          1           0       -0.376277   -0.532063    4.671875
     75          1           0       -0.379818   -0.435627    6.303690
     76          1           0        7.181614   -5.846245   -0.850904
     77          1           0        6.154061   -4.764439   -1.521715
     78          1           0       -7.458211   -5.288684    0.111477
     79          1           0       -6.052755   -4.958846   -0.660743
     80          1           0       -2.363905   -1.283686    3.374696
     81          1           0       -3.769790   -1.802320    4.315516
     82          1           0       -2.266783   -2.735113    4.380361
     83          1           0       -3.806421    0.534834    5.181159
     84          1           0       -2.503963    1.102680    6.268963
     85          1           0       -8.251987   -2.356206   -2.022525
     86          1           0       -8.317076   -2.929666   -0.329022
     87          6           0       -6.970803   -4.541786   -3.078646
     88          1           0       -7.505013   -3.980534   -3.841175
     89          1           0       -6.902475   -5.581585   -3.385185
     90          1           0       -5.963404   -4.140750   -2.989414
     91          1           0        0.718867   -1.676633    2.780585
     92          1           0       -0.396621   -3.064716    2.649953
     93          6           0        1.938090   -4.167001    2.530278
     94          1           0        2.264592   -3.587713    3.390568
     95          1           0        2.791897   -4.708557    2.133233
     96          1           0        1.181976   -4.878495    2.851282
     97          1           0        0.013336   -4.705140    0.631267
     98          1           0        1.618065   -4.702042   -0.119183
     99          1           0        0.461164   -3.424162   -0.507110
    100          6           0        9.299632   -5.406403   -2.327537
    101          6           0        7.699714   -3.806078   -3.407644
    102          1           0        4.759655    5.403725   -0.560447
    103          1           0        3.143384    5.221543   -1.312783
    104          6           0        3.901978    5.181593    2.056133
    105          1           0        3.379540    5.490348    2.959542
    106          1           0        4.850073    5.711673    2.005581
    107          1           0        4.107338    4.114454    2.108872
    108          1           0        2.268561    7.263597   -0.166232
    109          1           0        3.890530    7.497380    0.509299
    110          1           0        2.479264    7.450128    1.574425
    111          1           0       -2.460503    5.740568   -5.156919
    112          1           0       -1.128257    5.662247   -3.990826
    113          1           0       -2.587072    6.571385   -3.599580
    114          6           0       -4.349781    4.507416   -3.504901
    115          1           0       -4.705062    5.251149   -2.793774
    116          1           0       -4.788695    3.542434   -3.267287
    117          1           0       -4.673020    4.793737   -4.502206
    118          1           0       -1.238979    3.194025   -4.286177
    119          1           0       -2.744194    3.228401   -5.269312
    120          1           0        7.421189   -4.547617   -4.150828
    121          1           0        8.534297   -3.220219   -3.785085
    122          1           0        6.851565   -3.144926   -3.243459
    123          1           0        8.745151   -3.976106   -0.115695
    124          1           0        9.250644   -2.807400   -1.371143
    125          6           0       -9.129668   -4.973713   -1.880111
    126          6           0       -2.719862   -1.483663    6.804678
    127          1           0        9.580053   -5.909159   -1.404272
    128          1           0       10.147194   -4.822092   -2.676210
    129          1           0        9.060124   -6.161534   -3.070868
    130          1           0       -3.806766   -1.486815    6.813409
    131          1           0       -2.367145   -0.901966    7.653754
    132          1           0       -2.361049   -2.503293    6.914457
    133          1           0       -9.675201   -4.394926   -2.620902
    134          1           0       -9.658292   -4.910822   -0.931189
    135          1           0       -9.104792   -6.014200   -2.191466
 ---------------------------------------------------------------------

 SCF Done:  E(RPBE1PBE) =  -2641.64340037     a.u. after    6 cycles
 SCF Done:  E(RPBE1PBE) =  -2641.64344008     A.U. after    9 cycles

 The electronic state is 1-A.
 Alpha  occ. eigenvalues --  -14.38200 -14.38154 -14.37879 -14.37829 -14.37828
 Alpha  occ. eigenvalues --  -14.37745 -14.37262 -14.37226 -14.37200 -14.35535
 Alpha  occ. eigenvalues --  -14.35446 -14.35150 -10.27025 -10.26959 -10.26916
 Alpha  occ. eigenvalues --  -10.26851 -10.26849 -10.26710 -10.26625 -10.26609
 Alpha  occ. eigenvalues --  -10.26441 -10.26370 -10.26233 -10.25950 -10.25918
 Alpha  occ. eigenvalues --  -10.25896 -10.25660 -10.24762 -10.24719 -10.24716
 Alpha  occ. eigenvalues --  -10.24694 -10.24634 -10.24478 -10.24312 -10.24298
 Alpha  occ. eigenvalues --  -10.24285 -10.24259 -10.24249 -10.24218 -10.24213
 Alpha  occ. eigenvalues --  -10.24162 -10.24162 -10.24121 -10.24084 -10.24072
 Alpha  occ. eigenvalues --  -10.24021 -10.24003 -10.23731 -10.23589 -10.23239
 Alpha  occ. eigenvalues --  -10.23112 -10.20724 -10.20699 -10.20619 -10.20566
 Alpha  occ. eigenvalues --  -10.20546 -10.20511 -10.20445 -10.20442 -10.20347
 Alpha  occ. eigenvalues --  -10.20330 -10.20224 -10.20047  -0.98187  -0.97534
 Alpha  occ. eigenvalues --   -0.97462  -0.96933  -0.96698  -0.96618  -0.95355
 Alpha  occ. eigenvalues --   -0.95150  -0.94711  -0.91824  -0.91764  -0.91533
 Alpha  occ. eigenvalues --   -0.90234  -0.89762  -0.89613  -0.83778  -0.83483
 Alpha  occ. eigenvalues --   -0.82873  -0.81297  -0.80936  -0.80733  -0.79600
 Alpha  occ. eigenvalues --   -0.78822  -0.78451  -0.78143  -0.77937  -0.77859
 Alpha  occ. eigenvalues --   -0.73098  -0.72866  -0.72354  -0.72172  -0.72135
 Alpha  occ. eigenvalues --   -0.71781  -0.71353  -0.71295  -0.71122  -0.71030
 Alpha  occ. eigenvalues --   -0.70947  -0.70856  -0.68141  -0.67887  -0.67551
 Alpha  occ. eigenvalues --   -0.66409  -0.65993  -0.65975  -0.64474  -0.63143
 Alpha  occ. eigenvalues --   -0.62593  -0.60286  -0.59866  -0.59067  -0.57460
 Alpha  occ. eigenvalues --   -0.57181  -0.56874  -0.56770  -0.56717  -0.56367
 Alpha  occ. eigenvalues --   -0.56006  -0.54746  -0.54410  -0.54075  -0.53035
 Alpha  occ. eigenvalues --   -0.52858  -0.52451  -0.52246  -0.51393  -0.50945
 Alpha  occ. eigenvalues --   -0.50720  -0.50552  -0.50391  -0.50171  -0.49977
 Alpha  occ. eigenvalues --   -0.49837  -0.49425  -0.49385  -0.49195  -0.48977
 Alpha  occ. eigenvalues --   -0.48656  -0.48045  -0.47943  -0.47887  -0.47485
 Alpha  occ. eigenvalues --   -0.47421  -0.47262  -0.47062  -0.46711  -0.46389
 Alpha  occ. eigenvalues --   -0.45999  -0.45575  -0.45302  -0.45187  -0.45117
 Alpha  occ. eigenvalues --   -0.44817  -0.44588  -0.44446  -0.44139  -0.43529
 Alpha  occ. eigenvalues --   -0.43084  -0.42608  -0.42320  -0.42202  -0.42028
 Alpha  occ. eigenvalues --   -0.41816  -0.41523  -0.41382  -0.40916  -0.40560
 Alpha  occ. eigenvalues --   -0.40470  -0.39753  -0.39639  -0.39431  -0.39336
 Alpha  occ. eigenvalues --   -0.39226  -0.39170  -0.39091  -0.39042  -0.38974
 Alpha  occ. eigenvalues --   -0.38913  -0.38722  -0.38621  -0.38582  -0.38362
 Alpha  occ. eigenvalues --   -0.38307  -0.38101  -0.37801  -0.37624  -0.37275
 Alpha  occ. eigenvalues --   -0.37150  -0.37014  -0.36946  -0.36887  -0.36816
 Alpha  occ. eigenvalues --   -0.36659  -0.36575  -0.36381  -0.35941  -0.35610
 Alpha  occ. eigenvalues --   -0.35474  -0.34890  -0.34849  -0.34622  -0.34433
 Alpha  occ. eigenvalues --   -0.34393  -0.33900  -0.33822  -0.33703  -0.33607
 Alpha  occ. eigenvalues --   -0.31139  -0.30608  -0.30183  -0.28143  -0.27505
 Alpha  occ. eigenvalues --   -0.27291  -0.27225  -0.27086  -0.26963  -0.26766
 Alpha  occ. eigenvalues --   -0.26598  -0.26283  -0.26175  -0.26106  -0.25988
 Alpha  occ. eigenvalues --   -0.25790  -0.25459  -0.24976  -0.24813  -0.24576
 Alpha  occ. eigenvalues --   -0.24516
 Alpha virt. eigenvalues --   -0.06829  -0.06595  -0.06434  -0.06190  -0.05142
 Alpha virt. eigenvalues --   -0.05010  -0.02623  -0.02045  -0.01662   0.03367
 Alpha virt. eigenvalues --    0.03900   0.04162   0.04321   0.04488   0.04877

 Mulliken charges:
               1
     1  C    0.368452
     2  C   -0.185342
     3  C   -0.383107
     4  C    0.377870
     5  H    0.126201
     6  C   -0.339935
     7  C    0.306628
     8  H    0.171560
     9  C   -0.324512
    10  C   -0.189190
    11  H    0.128323
    12  C   -0.172840
    13  H    0.083515
    14  H    0.081155
    15  H    0.119743
    16  C    0.364847
    17  C   -0.181248
    18  C   -0.353453
    19  C    0.349489
    20  H    0.134163
    21  C   -0.338742
    22  C    0.376257
    23  H    0.144170
    24  C   -0.357146
    25  C   -0.228653
    26  H    0.127577
    27  C   -0.149522
    28  H    0.106726
    29  H    0.086441
    30  H    0.102327
    31  C    0.346371
    32  C   -0.197206
    33  C   -0.390492
    34  C    0.411581
    35  H    0.125962
    36  C   -0.386369
    37  C    0.354020
    38  H    0.121108
    39  C   -0.291234
    40  C   -0.180418
    41  H    0.125671
    42  C   -0.178260
    43  H    0.099866
    44  H    0.086050
    45  H    0.097065
    46  C    0.152191
    47  C   -0.130945
    48  N   -0.540813
    49  N   -0.182557
    50  C    0.152302
    51  C   -0.134983
    52  N   -0.539927
    53  N   -0.188347
    54  C    0.144871
    55  C   -0.123567
    56  N   -0.527183
    57  C   -0.403879
    58  N   -0.190561
    59  C    0.200115
    60  C   -0.175779
    61  N   -0.192637
    62  N   -0.190802
    63  C   -0.398432
    64  C   -0.122746
    65  C    0.180051
    66  N   -0.184934
    67  N   -0.185276
    68  C   -0.360417
    69  C   -0.089245
    70  C    0.145724
    71  N   -0.216357
    72  N   -0.195102
    73  C   -0.358775
    74  H    0.228582
    75  H    0.218285
    76  H    0.219876
    77  H    0.232767
    78  H    0.220410
    79  H    0.229531
    80  H    0.142838
    81  H    0.126875
    82  H    0.121956
    83  H    0.080916
    84  H    0.121642
    85  H    0.081635
    86  H    0.121656
    87  C   -0.385489
    88  H    0.117402
    89  H    0.128480
    90  H    0.132737
    91  H    0.135410
    92  H    0.110008
    93  C   -0.360599
    94  H    0.126405
    95  H    0.131923
    96  H    0.121469
    97  H    0.120745
    98  H    0.136261
    99  H    0.138694
   100  C   -0.369187
   101  C   -0.385973
   102  H    0.086467
   103  H    0.124515
   104  C   -0.428895
   105  H    0.139418
   106  H    0.133691
   107  H    0.143819
   108  H    0.129625
   109  H    0.118951
   110  H    0.127417
   111  H    0.120315
   112  H    0.128980
   113  H    0.126642
   114  C   -0.420728
   115  H    0.134726
   116  H    0.141275
   117  H    0.133050
   118  H    0.097697
   119  H    0.123343
   120  H    0.127313
   121  H    0.115530
   122  H    0.133650
   123  H    0.121256
   124  H    0.078131
   125  C   -0.369278
   126  C   -0.369879
   127  H    0.122679
   128  H    0.119580
   129  H    0.129672
   130  H    0.120261
   131  H    0.124949
   132  H    0.128944
   133  H    0.120803
   134  H    0.122901
   135  H    0.130469
 Sum of Mulliken charges =   0.00000

 Dipole moment (field-independent basis, Debye):
    X=             -0.9137    Y=              4.0598    Z=              1.1752  Tot=              4.3241
 Quadrupole moment (field-independent basis, Debye-Ang):
   XX=           -323.3578   YY=           -407.5938   ZZ=           -374.4607
   XY=             15.0506   XZ=             -2.8144   YZ=            -13.2635

 Normal termination of Gaussian 16 at Mon Oct 18 15:53:30 2021.
