 Gaussian 16, Revision C.01,
 Gaussian 16:  ES64L-G16RevC.01  3-Jul-2019

 ---------------------------------------------------------------------
 #P MP2/aug-cc-pVDZ SP SCF=(YQC,MaxCycle=900) int=(Grid=Superfinegrid)
 ---------------------------------------------------------------------

 -----------------------------
 _3_alde1_5_ami3_2_opt_gas_mp2
 -----------------------------
 Symbolic Z-matrix:
 Charge =  0 Multiplicity = 1

                         Standard orientation:
 ---------------------------------------------------------------------
 Center     Atomic      Atomic             Coordinates (Angstroms)
 Number     Number       Type             X           Y           Z
 ---------------------------------------------------------------------
      1          6           0        0.727597   -2.972786   -0.649754
      2          6           0       -0.118204   -3.095539   -1.825646
      3          6           0        0.197633   -2.957553    0.639250
      4          6           0        1.023971   -2.757391    1.740375
      5          1           0       -0.865508   -3.099684    0.759807
      6          6           0        2.384113   -2.516131    1.543852
      7          6           0        2.926141   -2.528564    0.264287
      8          1           0        2.999671   -2.327873    2.410215
      9          6           0        2.094858   -2.789117   -0.823574
     10          6           0        4.321674   -2.176631    0.038197
     11          1           0        2.536366   -2.807412   -1.807471
     12          6           0        0.460092   -2.772277    3.081381
     13          1           0        4.813524   -1.639378    0.864563
     14          1           0        0.424526   -3.186654   -2.778871
     15          1           0       -0.622369   -2.961729    3.136298
     16          6           0       -2.734780    0.659471    1.291395
     17          6           0       -3.786133   -0.176463    0.724408
     18          6           0       -2.458365    1.921515    0.766909
     19          6           0       -1.462329    2.719706    1.318150
     20          1           0       -3.040730    2.268610   -0.073796
     21          6           0       -0.714228    2.235661    2.390896
     22          6           0       -0.979855    0.981232    2.926640
     23          1           0        0.063982    2.863412    2.796960
     24          6           0       -1.997788    0.202766    2.377667
     25          6           0       -0.180574    0.464816    4.029152
     26          1           0       -2.191805   -0.765726    2.812167
     27          6           0       -1.191814    4.030464    0.748764
     28          1           0        0.785691    0.966387    4.194869
     29          1           0       -3.933314   -1.135478    1.233570
     30          1           0       -1.748889    4.267963   -0.171205
     31          6           0        0.441693    0.773621   -2.482727
     32          6           0       -0.881529    0.174873   -2.602780
     33          6           0        1.568209    0.055490   -2.879039
     34          6           0        2.847452    0.522951   -2.598047
     35          1           0        1.420553   -0.894288   -3.368455
     36          6           0        2.999373    1.747594   -1.949830
     37          6           0        1.885832    2.508620   -1.614479
     38          1           0        3.997642    2.088024   -1.720808
     39          6           0        0.609205    2.009913   -1.869766
     40          6           0        2.037558    3.775548   -0.908804
     41          1           0       -0.243333    2.594472   -1.560797
     42          6           0        3.991098   -0.327241   -2.886773
     43          1           0        2.946989    3.871297   -0.293966
     44          1           0        3.764124   -1.236775   -3.463578
     45          6           0       -2.369833   -1.474155   -3.313205
     46          6           0       -2.081142   -2.969937   -3.032422
     47          7           0       -1.106245   -0.807386   -3.360620
     48          7           0       -1.379058   -3.039487   -1.786445
     49          6           0       -6.785661    0.383377   -0.833480
     50          6           0       -5.527622   -0.531100   -0.862943
     51          7           0       -6.555781    1.706893   -1.375172
     52          7           0       -4.452526    0.206716   -0.276130
     53          6           0        0.515542   -2.535040    5.389968
     54          6           0        0.285727   -1.045827    5.743471
     55          7           0        1.160861   -2.584986    4.114100
     56          7           0       -0.568878   -0.503347    4.736514
     57          6           0        6.216774   -1.897398   -1.291629
     58          6           0        6.152567   -1.098473   -2.617603
     59          7           0        4.907821   -2.417787   -1.051470
     60          7           0        5.152586   -0.088190   -2.453868
     61          6           0       -0.080415    6.047813    0.542838
     62          6           0        1.285004    5.848425   -0.153806
     63          7           0       -0.370956    4.843110    1.256623
     64          7           0        1.167334    4.683315   -0.974167
     65          1           0       -5.788902    2.143501   -0.874777
     66          1           0       -6.280689    1.638261   -2.350501
     67          1           0       -1.654381    0.598850   -1.942667
     68          6           0       -5.862508   -1.899835   -0.265577
     69          6           0       -3.100209   -1.349532   -4.651571
     70          6           0        1.604112    7.092858   -0.983218
     71          6           0        7.244116   -3.020485   -1.439060
     72          6           0       -0.382769   -0.949274    7.115750
     73          1           0        1.266568   -0.536768    5.768800
     74          6           0        0.481796   -1.614071    8.181165
     75          1           0       -0.543012    0.103629    7.357801
     76          1           0       -1.358957   -1.434244    7.062783
     77          6           0        0.741541   -3.075708    7.828871
     78          1           0       -0.015771   -1.546501    9.150757
     79          1           0        1.434713   -1.084787    8.255487
     80          6           0        1.392556   -3.188520    6.454714
     81          1           0       -0.205283   -3.620873    7.826262
     82          1           0        1.388259   -3.531044    8.581375
     83          1           0        2.365721   -2.694908    6.454518
     84          1           0        1.548130   -4.236639    6.191793
     85          1           0       -0.476978   -3.018240    5.361698
     86          1           0       -3.003258   -1.078917   -2.499712
     87          6           0       -4.400974   -2.145789   -4.632021
     88          1           0       -2.444092   -1.717046   -5.442613
     89          1           0       -3.303517   -0.294238   -4.847545
     90          6           0       -4.138924   -3.612852   -4.303349
     91          1           0       -4.894777   -2.064012   -5.602701
     92          1           0       -5.072215   -1.722542   -3.880655
     93          6           0       -3.392708   -3.746013   -2.979840
     94          1           0       -3.540885   -4.059583   -5.101048
     95          1           0       -5.084517   -4.156728   -4.250352
     96          1           0       -3.179235   -4.795728   -2.768515
     97          1           0       -3.999222   -3.355343   -2.162312
     98          1           0       -1.457028   -3.339429   -3.865716
     99          1           0        2.063234    5.719649    0.619860
    100          6           0       -0.001324    7.252619    1.475416
    101          1           0       -0.827669    6.233526   -0.249708
    102          6           0        0.349400    8.505212    0.678034
    103          1           0        0.756007    7.060537    2.237149
    104          1           0       -0.961065    7.380030    1.980054
    105          6           0        1.662426    8.320356   -0.078949
    106          1           0        0.427926    9.360967    1.351338
    107          1           0       -0.451752    8.712935   -0.035261
    108          1           0        2.478322    8.200251    0.637833
    109          1           0        1.872325    9.207892   -0.679340
    110          1           0        0.833473    7.217253   -1.745896
    111          1           0        2.560605    6.948572   -1.490749
    112          1           0        6.535183   -1.213061   -0.484445
    113          6           0        7.520905   -0.492245   -2.911487
    114          1           0        5.875496   -1.812948   -3.413226
    115          6           0        8.568689   -1.594607   -3.030639
    116          1           0        7.781490    0.195450   -2.105363
    117          1           0        7.466356    0.081671   -3.838543
    118          6           0        8.617096   -2.437781   -1.759063
    119          1           0        9.548979   -1.152988   -3.219866
    120          1           0        8.321043   -2.236129   -3.879825
    121          1           0        9.339789   -3.247602   -1.877607
    122          1           0        8.946538   -1.814227   -0.924617
    123          1           0        6.920443   -3.692390   -2.235702
    124          1           0        7.281485   -3.593205   -0.509691
    125          1           0       -5.250454   -0.655554   -1.920779
    126          6           0       -7.923181   -0.292748   -1.597894
    127          1           0       -7.079053    0.515538    0.215524
    128          6           0       -8.239513   -1.668649   -1.022815
    129          1           0       -7.635150   -0.391131   -2.648064
    130          1           0       -8.801143    0.352707   -1.552792
    131          6           0       -6.997916   -2.554584   -1.045221
    132          1           0       -9.040379   -2.134774   -1.600153
    133          1           0       -8.588318   -1.559564    0.006547
    134          1           0       -6.685299   -2.718037   -2.079784
    135          1           0       -7.227122   -3.529935   -0.610137
    136          1           0       -6.166053   -1.773125    0.777081
    137          1           0       -4.975864   -2.539626   -0.288298
 ---------------------------------------------------------------------

 SCF Done:  E(RHF) =  -2744.00810891     a.u. after    7 cycles
 SCF Done:  E(RHF) =  -2744.00816905     A.U. after   26 cycles
 E2 =    -0.9742594406D+01 EUMP2 =    -0.27537507634561D+04

 The electronic state is 1-A.
 Alpha  occ. eigenvalues --  -15.56191 -15.56003 -15.55829 -15.55822 -15.55701
 Alpha  occ. eigenvalues --  -15.55534 -15.55526 -15.55493 -15.55382 -15.53557
 Alpha  occ. eigenvalues --  -11.28896 -11.28608 -11.28478 -11.28359 -11.28303
 Alpha  occ. eigenvalues --  -11.28277 -11.28178 -11.28122 -11.28104 -11.25722
 Alpha  occ. eigenvalues --  -11.25674 -11.25620 -11.25604 -11.25477 -11.25420
 Alpha  occ. eigenvalues --  -11.25388 -11.25353 -11.25351 -11.25265 -11.25234
 Alpha  occ. eigenvalues --  -11.25225 -11.25170 -11.25051 -11.25031 -11.25010
 Alpha  occ. eigenvalues --  -11.24984 -11.24960 -11.24950 -11.24860 -11.24798
 Alpha  occ. eigenvalues --  -11.24782 -11.24735 -11.24706 -11.24667 -11.24623
 Alpha  occ. eigenvalues --  -11.24538 -11.24507 -11.22581 -11.22520 -11.22362
 Alpha  occ. eigenvalues --  -11.22257 -11.22247 -11.22216 -11.22216 -11.22206
 Alpha  occ. eigenvalues --  -11.22168 -11.22138 -11.22138 -11.22131 -11.22122
 Alpha  occ. eigenvalues --  -11.22101 -11.22087 -11.21920 -11.21879 -11.21849
 Alpha  occ. eigenvalues --  -11.21816 -11.21800  -1.26552  -1.26404  -1.26355
 Alpha  occ. eigenvalues --   -1.26192  -1.25343  -1.23450  -1.23387  -1.22999
 Alpha  occ. eigenvalues --   -1.22806  -1.18562  -1.17446  -1.16777  -1.16508
 Alpha  occ. eigenvalues --   -1.11772  -1.11649  -1.11581  -1.10872  -1.10186
 Alpha  occ. eigenvalues --   -1.05966  -1.05949  -1.05791  -1.05767  -1.05522
 Alpha  occ. eigenvalues --   -1.05457  -1.00795  -1.00768  -1.00431  -1.00187
 Alpha  occ. eigenvalues --   -1.00147  -0.99914  -0.99125  -0.99077  -0.98799
 Alpha  occ. eigenvalues --   -0.97677  -0.90157  -0.90036  -0.89906  -0.89461
 Alpha  occ. eigenvalues --   -0.89269  -0.88312  -0.87784  -0.87650  -0.86392
 Alpha  occ. eigenvalues --   -0.83696  -0.83098  -0.82986  -0.82820  -0.82354
 Alpha  occ. eigenvalues --   -0.82249  -0.81847  -0.80874  -0.80213  -0.79930
 Alpha  occ. eigenvalues --   -0.77847  -0.76977  -0.76943  -0.76854  -0.76750
 Alpha  occ. eigenvalues --   -0.75030  -0.74951  -0.74606  -0.74463  -0.74072
 Alpha  occ. eigenvalues --   -0.73612  -0.70796  -0.70339  -0.70010  -0.69365
 Alpha  occ. eigenvalues --   -0.69167  -0.68781  -0.67365  -0.66964  -0.66911
 Alpha  occ. eigenvalues --   -0.66480  -0.65784  -0.65605  -0.65552  -0.65318
 Alpha  occ. eigenvalues --   -0.65044  -0.64984  -0.63776  -0.63044  -0.62820
 Alpha  occ. eigenvalues --   -0.62728  -0.62649  -0.62595  -0.62478  -0.62150
 Alpha  occ. eigenvalues --   -0.61352  -0.61138  -0.60757  -0.60458  -0.60028
 Alpha  occ. eigenvalues --   -0.59924  -0.59644  -0.59365  -0.59203  -0.59096
 Alpha  occ. eigenvalues --   -0.58970  -0.57836  -0.57658  -0.57614  -0.57385
 Alpha  occ. eigenvalues --   -0.57104  -0.56713  -0.56360  -0.56166  -0.56134
 Alpha  occ. eigenvalues --   -0.56047  -0.55620  -0.54183  -0.53986  -0.53940
 Alpha  occ. eigenvalues --   -0.53831  -0.53653  -0.53391  -0.53008  -0.52911
 Alpha  occ. eigenvalues --   -0.52395  -0.52381  -0.52206  -0.51743  -0.51521
 Alpha  occ. eigenvalues --   -0.51287  -0.50422  -0.49771  -0.49291  -0.49151
 Alpha  occ. eigenvalues --   -0.48939  -0.48922  -0.48838  -0.48673  -0.48637
 Alpha  occ. eigenvalues --   -0.48464  -0.47430  -0.47302  -0.47135  -0.47110
 Alpha  occ. eigenvalues --   -0.47039  -0.46956  -0.46879  -0.46580  -0.46555
 Alpha  occ. eigenvalues --   -0.46446  -0.46388  -0.45882  -0.45569  -0.45313
 Alpha  occ. eigenvalues --   -0.44954  -0.44365  -0.43502  -0.43407  -0.42903
 Alpha  occ. eigenvalues --   -0.42770  -0.42347  -0.40889  -0.40704  -0.40558
 Alpha  occ. eigenvalues --   -0.40434  -0.40394  -0.40238  -0.39759  -0.39731
 Alpha  occ. eigenvalues --   -0.39456  -0.39136  -0.38792  -0.38546  -0.37228
 Alpha  occ. eigenvalues --   -0.32489  -0.32352  -0.32236  -0.31958  -0.31742
 Alpha  occ. eigenvalues --   -0.31419
 Alpha virt. eigenvalues --    0.02976   0.03082   0.03319   0.03439   0.03609
 Alpha virt. eigenvalues --    0.03643   0.03818   0.04031   0.04090   0.04239
 Alpha virt. eigenvalues --    0.04468   0.04576   0.04774   0.04877   0.05054

 Mulliken charges:
               1
     1  C    1.770435
     2  C    0.456088
     3  C    0.145312
     4  C    1.552479
     5  H   -1.081953
     6  C   -0.134290
     7  C    1.404684
     8  H   -0.868915
     9  C    0.110506
    10  C    0.482716
    11  H   -1.066305
    12  C    0.571422
    13  H   -0.823124
    14  H   -0.797008
    15  H   -0.752380
    16  C    1.505748
    17  C   -0.030160
    18  C    0.378419
    19  C    1.804587
    20  H   -0.978689
    21  C   -0.204500
    22  C    1.337647
    23  H   -0.926568
    24  C    0.230099
    25  C    0.370842
    26  H   -1.085906
    27  C    0.290870
    28  H   -0.815898
    29  H   -0.957107
    30  H   -0.808212
    31  C    0.704507
    32  C    0.985208
    33  C    0.534581
    34  C    1.524088
    35  H   -1.074671
    36  C   -0.056010
    37  C    1.026476
    38  H   -0.859692
    39  C    0.637398
    40  C    0.204345
    41  H   -0.627637
    42  C    0.445888
    43  H   -0.709472
    44  H   -0.719615
    45  C   -0.147779
    46  C   -0.106480
    47  N   -0.430133
    48  N   -0.406322
    49  C    0.447984
    50  C    0.029930
    51  N   -0.283857
    52  N   -0.018491
    53  C   -0.441758
    54  C   -0.384788
    55  N   -0.480262
    56  N   -0.192049
    57  C   -0.385075
    58  C   -0.140331
    59  N   -0.351525
    60  N   -0.571941
    61  C   -0.118536
    62  C   -0.209252
    63  N   -0.549913
    64  N   -0.499266
    65  H   -0.000295
    66  H    0.034621
    67  H   -1.424677
    68  C    0.753802
    69  C    0.712184
    70  C    0.786766
    71  C    0.815451
    72  C    0.920542
    73  H   -0.319026
    74  C    0.550282
    75  H   -0.238731
    76  H   -0.141640
    77  C    0.562408
    78  H   -0.143754
    79  H   -0.087880
    80  C    0.958739
    81  H   -0.083985
    82  H   -0.148405
    83  H   -0.138681
    84  H   -0.207131
    85  H   -0.410665
    86  H   -0.543864
    87  C    0.777230
    88  H   -0.125899
    89  H   -0.248935
    90  C    0.508626
    91  H   -0.209471
    92  H   -0.272875
    93  C    0.940083
    94  H   -0.136477
    95  H   -0.203124
    96  H   -0.300329
    97  H   -0.235195
    98  H   -0.363924
    99  H   -0.274981
   100  C    0.904732
   101  H   -0.340289
   102  C    0.535936
   103  H   -0.131560
   104  H   -0.216397
   105  C    0.564105
   106  H   -0.143862
   107  H   -0.089223
   108  H   -0.096432
   109  H   -0.145164
   110  H   -0.104318
   111  H   -0.217483
   112  H   -0.305575
   113  C    0.814970
   114  H   -0.393339
   115  C    0.530592
   116  H   -0.115760
   117  H   -0.201551
   118  C    0.535779
   119  H   -0.146691
   120  H   -0.084438
   121  H   -0.141563
   122  H   -0.083509
   123  H   -0.122992
   124  H   -0.228526
   125  H   -0.562457
   126  C    0.698670
   127  H   -0.369740
   128  C    0.608305
   129  H   -0.104540
   130  H   -0.135647
   131  C    0.559642
   132  H   -0.170382
   133  H   -0.109525
   134  H   -0.136961
   135  H   -0.170260
   136  H   -0.229124
   137  H   -0.372595
 Sum of Mulliken charges =   0.00000

 Dipole moment (field-independent basis, Debye):
    X=              1.2545    Y=             -1.0184    Z=              0.9082  Tot=              1.8536
 Quadrupole moment (field-independent basis, Debye-Ang):
   XX=           -400.6999   YY=           -403.1745   ZZ=           -399.0062
   XY=             17.0385   XZ=              5.3675   YZ=              5.6498

 Normal termination of Gaussian 16 at Sun Nov 14 02:17:22 2021.
