 Gaussian 16, Revision C.01,
 Gaussian 16:  ES64L-G16RevC.01  3-Jul-2019

 ----------------------------------------------------------------------
 #P PBE1PBE/Def2TZVP SP SCF=(YQC,MaxCycle=900) int=(Grid=Superfinegrid)
  EmpiricalDispersion=GD3
 ----------------------------------------------------------------------

 -------------------------
 _3_alde1_6_ami1_2_opt_gas
 -------------------------
 Symbolic Z-matrix:
 Charge =  0 Multiplicity = 1

                         Standard orientation:
 ---------------------------------------------------------------------
 Center     Atomic      Atomic             Coordinates (Angstroms)
 Number     Number       Type             X           Y           Z
 ---------------------------------------------------------------------
      1          6           0        1.624795    2.820995    0.065714
      2          6           0        1.137824    3.543453   -1.102009
      3          6           0        0.985143    2.956776    1.294328
      4          6           0        1.445092    2.271455    2.414724
      5          1           0        0.121419    3.595443    1.377566
      6          6           0        2.572668    1.464782    2.305918
      7          6           0        3.241007    1.339404    1.089673
      8          1           0        2.962302    0.933440    3.160801
      9          6           0        2.748531    2.003121   -0.030679
     10          6           0        4.447688    0.532522    0.987042
     11          1           0        3.248497    1.887803   -0.982530
     12          6           0        0.741070    2.392277    3.684973
     13          1           0        4.833130    0.377223   -0.032205
     14          1           0        1.732318    3.429694   -2.021346
     15          1           0        0.933751    1.594297    4.419572
     16          6           0       -3.476620   -0.014611   -0.098053
     17          6           0       -3.866383    0.083432   -1.497240
     18          6           0       -3.359358   -1.260539    0.509415
     19          6           0       -2.961379   -1.370493    1.838110
     20          1           0       -3.569078   -2.153112   -0.056441
     21          6           0       -2.706784   -0.216560    2.571009
     22          6           0       -2.847619    1.040600    1.985819
     23          1           0       -2.408435   -0.268669    3.606942
     24          6           0       -3.213276    1.133680    0.645682
     25          6           0       -2.629819    2.249848    2.766361
     26          1           0       -3.303611    2.106383    0.181880
     27          6           0       -2.790681   -2.689602    2.432895
     28          1           0       -2.610220    3.191172    2.195750
     29          1           0       -3.931645    1.101681   -1.910066
     30          1           0       -2.187020   -2.731823    3.353135
     31          6           0        1.511761   -2.218565   -1.767748
     32          6           0        1.694540   -1.594818   -3.070604
     33          6           0        2.529811   -2.159948   -0.821089
     34          6           0        2.388727   -2.777947    0.417185
     35          1           0        3.440834   -1.631878   -1.047340
     36          6           0        1.217406   -3.468720    0.704860
     37          6           0        0.195561   -3.555406   -0.239374
     38          1           0        1.082495   -3.968616    1.651777
     39          6           0        0.344121   -2.917725   -1.468257
     40          6           0       -1.004802   -4.328523    0.044562
     41          1           0       -0.449179   -2.974761   -2.200720
     42          6           0        3.466100   -2.686935    1.394274
     43          1           0       -1.814399   -4.248875   -0.697287
     44          1           0        0.918469   -1.806295   -3.822763
     45          1           0        3.187640   -2.871445    2.443752
     46          6           0       -0.007192    6.498539   -1.879399
     47          6           0       -0.335520    5.014095   -2.181957
     48          7           0        1.446014    6.627486   -1.914586
     49          1           0       -0.415496    6.719364   -0.876987
     50          6           0       -0.629057    7.494198   -2.877779
     51          7           0        0.104209    4.263019   -1.045802
     52          1           0        0.227819    4.737923   -3.091015
     53          6           0       -1.830986    4.712933   -2.402839
     54          1           0       -1.713785    7.354282   -2.861791
     55          6           0       -0.110354    7.269288   -4.295434
     56          6           0       -0.354316    8.935899   -2.443984
     57          1           0       -2.190967    5.328627   -3.231960
     58          6           0       -2.654815    5.013595   -1.153451
     59          6           0       -1.998318    3.247914   -2.805303
     60          1           0        0.693573    9.190307   -2.581750
     61          1           0       -0.618473    9.083634   -1.398272
     62          1           0       -0.946895    9.622517   -3.044564
     63          1           0       -0.452774    8.066558   -4.951168
     64          1           0       -0.462880    6.322720   -4.696310
     65          1           0        0.975857    7.259456   -4.286270
     66          1           0       -1.647319    2.591508   -2.011376
     67          1           0       -1.431404    3.027093   -3.707221
     68          1           0       -3.046945    3.033781   -3.003466
     69          1           0       -2.224736    4.492482   -0.302532
     70          1           0       -3.683481    4.685499   -1.292989
     71          1           0       -2.665375    6.078697   -0.938085
     72          6           0       -5.827674   -1.599131   -3.775164
     73          6           0       -4.471183   -0.854002   -3.558823
     74          7           0       -6.129411   -2.596195   -2.763716
     75          1           0       -5.763092   -2.138966   -4.728743
     76          6           0       -7.035700   -0.644911   -3.888925
     77          7           0       -4.108444   -0.945409   -2.182176
     78          1           0       -4.580195    0.197503   -3.880155
     79          6           0       -3.335395   -1.462500   -4.415568
     80          1           0       -7.915339   -1.296166   -3.845375
     81          6           0       -7.046842    0.084473   -5.230812
     82          6           0       -7.138504    0.356990   -2.740103
     83          1           0       -3.677746   -1.449270   -5.457071
     84          6           0       -3.014479   -2.899987   -4.014858
     85          6           0       -2.081657   -0.595062   -4.311512
     86          1           0       -7.074440   -0.141725   -1.776142
     87          1           0       -8.093438    0.875846   -2.789755
     88          1           0       -6.349205    1.102903   -2.794558
     89          1           0       -6.174973    0.726725   -5.336343
     90          1           0       -7.936113    0.705503   -5.311913
     91          1           0       -7.049173   -0.626097   -6.054203
     92          1           0       -1.701921   -0.590757   -3.291099
     93          1           0       -2.295442    0.432314   -4.599790
     94          1           0       -1.305131   -0.979415   -4.969858
     95          1           0       -2.141956   -3.254608   -4.561438
     96          1           0       -3.843765   -3.565151   -4.242019
     97          1           0       -2.806261   -2.945088   -2.948378
     98          6           0        4.398055   -0.621709   -5.027597
     99          6           0        2.924694   -0.326923   -4.613279
    100          7           0        5.366820   -0.035825   -4.120917
    101          1           0        4.543727   -0.165593   -6.013354
    102          6           0        4.736778   -2.122943   -5.204926
    103          7           0        2.708954   -0.886805   -3.318421
    104          1           0        2.242257   -0.751349   -5.370729
    105          6           0        2.635557    1.193811   -4.537308
    106          1           0        5.686582   -2.132163   -5.752176
    107          6           0        3.698549   -2.854407   -6.053354
    108          6           0        4.972309   -2.867649   -3.892010
    109          1           0        3.223510    1.610347   -3.711720
    110          6           0        1.156424    1.422626   -4.229564
    111          6           0        2.994568    1.923614   -5.830552
    112          1           0        5.192758   -3.912021   -4.103955
    113          1           0        4.099427   -2.823666   -3.248262
    114          1           0        5.820596   -2.441950   -3.364445
    115          1           0        4.081646   -3.829778   -6.345096
    116          1           0        3.469266   -2.294400   -6.957956
    117          1           0        2.780378   -3.011142   -5.492184
    118          1           0        2.513132    1.445832   -6.681602
    119          1           0        4.066989    1.944467   -6.005724
    120          1           0        2.647116    2.953608   -5.776398
    121          1           0        0.535920    1.009096   -5.022438
    122          1           0        0.951539    2.488688   -4.158842
    123          1           0        0.871522    0.958013   -3.287741
    124          6           0       -0.768530    3.414790    5.145450
    125          6           0       -2.264526    3.436870    4.737692
    126          7           0       -0.039487    3.352476    3.915439
    127          1           0       -0.591496    2.512856    5.757313
    128          6           0       -0.317991    4.651102    5.949397
    129          7           0       -2.500450    2.219602    4.019529
    130          1           0       -2.409316    4.312435    4.081400
    131          6           0       -3.248439    3.525660    5.918531
    132          1           0       -0.922717    4.699111    6.860338
    133          6           0       -0.491160    5.944346    5.158169
    134          6           0        1.144251    4.479207    6.361607
    135          1           0       -3.047981    4.454842    6.461134
    136          6           0       -3.107328    2.342224    6.871056
    137          6           0       -4.674986    3.592286    5.372457
    138          1           0        1.783765    4.450011    5.482104
    139          1           0        1.282734    3.555729    6.920714
    140          1           0        1.457973    5.309699    6.990033
    141          1           0       -1.542378    6.175196    5.007298
    142          1           0       -0.010432    5.847048    4.188604
    143          1           0       -0.036078    6.773126    5.696224
    144          1           0       -4.913119    2.675114    4.838393
    145          1           0       -4.787359    4.429939    4.686775
    146          1           0       -5.386287    3.716376    6.185850
    147          1           0       -3.906469    2.359985    7.608917
    148          1           0       -2.157785    2.372601    7.399032
    149          1           0       -3.168113    1.414408    6.309230
    150          6           0        6.175281   -0.777994    1.829768
    151          6           0        5.675894   -2.236884    2.011666
    152          7           0        5.024962    0.059307    2.002909
    153          1           0        6.564944   -0.696718    0.800747
    154          6           0        7.273279   -0.350267    2.818973
    155          7           0        4.640628   -2.406621    1.039700
    156          1           0        5.278850   -2.340599    3.036596
    157          6           0        6.768226   -3.302805    1.793436
    158          1           0        8.134545   -1.011569    2.681356
    159          6           0        6.801918   -0.427837    4.268136
    160          6           0        7.709128    1.076742    2.485248
    161          1           0        7.577979   -3.106319    2.503270
    162          6           0        7.322515   -3.275031    0.371703
    163          6           0        6.190207   -4.683734    2.103715
    164          1           0        6.874536    1.761180    2.619951
    165          1           0        8.049023    1.145160    1.453700
    166          1           0        8.523164    1.386868    3.136479
    167          1           0        5.863596    0.109294    4.374098
    168          1           0        7.542024    0.022825    4.925762
    169          1           0        6.655299   -1.458724    4.580019
    170          1           0        6.964111   -5.443230    2.019524
    171          1           0        5.392626   -4.923918    1.403828
    172          1           0        5.786324   -4.716996    3.113849
    173          1           0        6.504780   -3.326609   -0.342072
    174          1           0        7.981889   -4.125728    0.213958
    175          1           0        7.892263   -2.368086    0.188331
    176          6           0       -3.044811   -5.013338    2.443501
    177          6           0       -2.307637   -5.785067    1.316346
    178          7           0       -3.297949   -3.713334    1.904189
    179          1           0       -2.372461   -4.957676    3.317847
    180          6           0       -4.374971   -5.657914    2.880897
    181          7           0       -1.095591   -5.063949    1.064097
    182          1           0       -2.965500   -5.768371    0.430490
    183          6           0       -1.963257   -7.245122    1.661049
    184          1           0       -4.157002   -6.664992    3.249947
    185          6           0       -5.375924   -5.744606    1.732381
    186          6           0       -4.968279   -4.849137    4.034788
    187          1           0       -2.897614   -7.779210    1.859914
    188          6           0       -1.052858   -7.344925    2.881292
    189          6           0       -1.291750   -7.895011    0.450886
    190          1           0       -5.872224   -5.327856    4.404173
    191          1           0       -5.220175   -3.845014    3.700439
    192          1           0       -4.260321   -4.772144    4.857952
    193          1           0       -6.343384   -6.072385    2.106531
    194          1           0       -5.047886   -6.453410    0.976743
    195          1           0       -5.490495   -4.767726    1.270950
    196          1           0       -0.351531   -7.393500    0.232423
    197          1           0       -1.930918   -7.828134   -0.427390
    198          1           0       -1.088889   -8.945057    0.648925
    199          1           0       -1.572283   -7.040120    3.786034
    200          1           0       -0.185863   -6.705751    2.741013
    201          1           0       -0.716253   -8.370991    3.012577
    202          1           0        5.120748   -0.303318   -3.173830
    203          1           0        5.338448    0.975975   -4.174070
    204          1           0        1.719018    7.547137   -1.587877
    205          1           0        1.866112    5.949154   -1.287359
    206          1           0       -6.214426   -2.148564   -1.856768
    207          1           0       -5.361841   -3.252842   -2.685206
 ---------------------------------------------------------------------

 SCF Done:  E(RPBE1PBE) =  -3584.35565626     a.u. after    7 cycles
 SCF Done:  E(RPBE1PBE) =  -3584.35566607     A.U. after    8 cycles

 The electronic state is 1-A.
 Alpha  occ. eigenvalues --  -14.37977 -14.37958 -14.37662 -14.37547 -14.37499
 Alpha  occ. eigenvalues --  -14.37486 -14.37383 -14.37365 -14.37347 -14.35947
 Alpha  occ. eigenvalues --  -14.35294 -14.34681 -10.27000 -10.26895 -10.26867
 Alpha  occ. eigenvalues --  -10.26604 -10.26583 -10.26559 -10.26475 -10.26452
 Alpha  occ. eigenvalues --  -10.26442 -10.25087 -10.25084 -10.25058 -10.25049
 Alpha  occ. eigenvalues --  -10.24995 -10.24917 -10.24890 -10.24890 -10.24856
 Alpha  occ. eigenvalues --  -10.24833 -10.24431 -10.24372 -10.24348 -10.24323
 Alpha  occ. eigenvalues --  -10.24319 -10.24312 -10.24280 -10.24270 -10.24267
 Alpha  occ. eigenvalues --  -10.24235 -10.24225 -10.24213 -10.24169 -10.24138
 Alpha  occ. eigenvalues --  -10.23797 -10.23774 -10.23730 -10.23373 -10.23319
 Alpha  occ. eigenvalues --  -10.23307 -10.23298 -10.23164 -10.22909 -10.22739
 Alpha  occ. eigenvalues --  -10.22621 -10.22603 -10.22508 -10.22482 -10.22416
 Alpha  occ. eigenvalues --  -10.22397 -10.21962 -10.21582 -10.21366 -10.21015
 Alpha  occ. eigenvalues --  -10.20998 -10.20925 -10.20913 -10.20903 -10.20561
 Alpha  occ. eigenvalues --  -10.20509 -10.20474 -10.20415 -10.20295 -10.20281
 Alpha  occ. eigenvalues --  -10.20232 -10.20186 -10.20117 -10.20110 -10.20020
 Alpha  occ. eigenvalues --  -10.19923 -10.19895 -10.19876 -10.19871 -10.19864
 Alpha  occ. eigenvalues --  -10.19770 -10.18964  -0.97936  -0.97844  -0.97814
 Alpha  occ. eigenvalues --   -0.97302  -0.97082  -0.97019  -0.95116  -0.95064
 Alpha  occ. eigenvalues --   -0.94818  -0.91534  -0.91289  -0.90915  -0.90063
 Alpha  occ. eigenvalues --   -0.89703  -0.89601  -0.84778  -0.84746  -0.84333
 Alpha  occ. eigenvalues --   -0.83724  -0.83470  -0.83266  -0.82322  -0.81912
 Alpha  occ. eigenvalues --   -0.81864  -0.81311  -0.81210  -0.80834  -0.80124
 Alpha  occ. eigenvalues --   -0.80106  -0.80075  -0.79605  -0.79577  -0.79314
 Alpha  occ. eigenvalues --   -0.74884  -0.74353  -0.74332  -0.73619  -0.73279
 Alpha  occ. eigenvalues --   -0.73135  -0.71287  -0.71061  -0.70848  -0.70590
 Alpha  occ. eigenvalues --   -0.70463  -0.70423  -0.70359  -0.70321  -0.70128
 Alpha  occ. eigenvalues --   -0.70050  -0.70015  -0.69712  -0.69241  -0.69166
 Alpha  occ. eigenvalues --   -0.69145  -0.67703  -0.67684  -0.67512  -0.66219
 Alpha  occ. eigenvalues --   -0.66178  -0.65503  -0.64357  -0.64312  -0.64172
 Alpha  occ. eigenvalues --   -0.62958  -0.62426  -0.62271  -0.60036  -0.59961
 Alpha  occ. eigenvalues --   -0.59705  -0.59180  -0.58846  -0.58817  -0.58058
 Alpha  occ. eigenvalues --   -0.57815  -0.57660  -0.57304  -0.56582  -0.56446
 Alpha  occ. eigenvalues --   -0.56039  -0.55664  -0.55438  -0.55047  -0.54983
 Alpha  occ. eigenvalues --   -0.54845  -0.53687  -0.53653  -0.53444  -0.52461
 Alpha  occ. eigenvalues --   -0.52403  -0.52162  -0.51961  -0.51469  -0.51296
 Alpha  occ. eigenvalues --   -0.51164  -0.50679  -0.50470  -0.50189  -0.50056
 Alpha  occ. eigenvalues --   -0.50001  -0.49245  -0.49163  -0.49048  -0.48973
 Alpha  occ. eigenvalues --   -0.48736  -0.48698  -0.48432  -0.48265  -0.47989
 Alpha  occ. eigenvalues --   -0.47595  -0.47437  -0.47410  -0.46668  -0.46558
 Alpha  occ. eigenvalues --   -0.46501  -0.46288  -0.45710  -0.45580  -0.45444
 Alpha  occ. eigenvalues --   -0.45023  -0.44984  -0.44930  -0.44846  -0.44774
 Alpha  occ. eigenvalues --   -0.44755  -0.44633  -0.44525  -0.44215  -0.44096
 Alpha  occ. eigenvalues --   -0.43971  -0.43707  -0.43646  -0.43417  -0.43265
 Alpha  occ. eigenvalues --   -0.43083  -0.43018  -0.42992  -0.42981  -0.42745
 Alpha  occ. eigenvalues --   -0.42589  -0.42544  -0.42371  -0.42289  -0.41999
 Alpha  occ. eigenvalues --   -0.41896  -0.41848  -0.41738  -0.41501  -0.40896
 Alpha  occ. eigenvalues --   -0.40736  -0.40375  -0.40334  -0.40286  -0.40204
 Alpha  occ. eigenvalues --   -0.40076  -0.40055  -0.39916  -0.39820  -0.39663
 Alpha  occ. eigenvalues --   -0.39445  -0.39351  -0.39232  -0.39115  -0.39093
 Alpha  occ. eigenvalues --   -0.38978  -0.38959  -0.38760  -0.38735  -0.38489
 Alpha  occ. eigenvalues --   -0.38393  -0.38282  -0.38244  -0.38114  -0.38068
 Alpha  occ. eigenvalues --   -0.37682  -0.37668  -0.37559  -0.37397  -0.37236
 Alpha  occ. eigenvalues --   -0.37113  -0.36956  -0.36492  -0.36462  -0.36302
 Alpha  occ. eigenvalues --   -0.35732  -0.35694  -0.35567  -0.35301  -0.35238
 Alpha  occ. eigenvalues --   -0.35054  -0.34989  -0.34950  -0.34912  -0.34869
 Alpha  occ. eigenvalues --   -0.34808  -0.34719  -0.34706  -0.34691  -0.34649
 Alpha  occ. eigenvalues --   -0.34578  -0.34496  -0.34376  -0.34219  -0.34104
 Alpha  occ. eigenvalues --   -0.34082  -0.33972  -0.33903  -0.33475  -0.33182
 Alpha  occ. eigenvalues --   -0.33080  -0.33020  -0.32820  -0.32725  -0.32547
 Alpha  occ. eigenvalues --   -0.32507  -0.32363  -0.32170  -0.32000  -0.31831
 Alpha  occ. eigenvalues --   -0.31695  -0.30073  -0.29952  -0.29384  -0.27325
 Alpha  occ. eigenvalues --   -0.27170  -0.27147  -0.27055  -0.26996  -0.26935
 Alpha  occ. eigenvalues --   -0.26619  -0.26591  -0.26529  -0.26126  -0.26042
 Alpha  occ. eigenvalues --   -0.25932  -0.25544  -0.25441  -0.25341  -0.25014
 Alpha  occ. eigenvalues --   -0.24238  -0.24003
 Alpha virt. eigenvalues --   -0.06994  -0.06356  -0.06257  -0.05378  -0.05348
 Alpha virt. eigenvalues --   -0.05045  -0.02119  -0.02061  -0.01642   0.02095
 Alpha virt. eigenvalues --    0.02390   0.02978   0.03280   0.03538   0.03555

 Mulliken charges:
               1
     1  C    0.431704
     2  C   -0.290431
     3  C   -0.360121
     4  C    0.436542
     5  H    0.140464
     6  C   -0.365627
     7  C    0.362394
     8  H    0.128609
     9  C   -0.336217
    10  C   -0.204457
    11  H    0.117283
    12  C   -0.189037
    13  H    0.084281
    14  H    0.103959
    15  H    0.072237
    16  C    0.436694
    17  C   -0.267324
    18  C   -0.368986
    19  C    0.439540
    20  H    0.138525
    21  C   -0.367515
    22  C    0.354948
    23  H    0.125785
    24  C   -0.349854
    25  C   -0.196974
    26  H    0.133927
    27  C   -0.191087
    28  H    0.092587
    29  H    0.076873
    30  H    0.071960
    31  C    0.453053
    32  C   -0.288206
    33  C   -0.356659
    34  C    0.428788
    35  H    0.145681
    36  C   -0.370326
    37  C    0.355976
    38  H    0.128201
    39  C   -0.333073
    40  C   -0.191700
    41  H    0.114335
    42  C   -0.186003
    43  H    0.089240
    44  H    0.089250
    45  H    0.072973
    46  C    0.076315
    47  C    0.079040
    48  N   -0.547093
    49  H    0.112786
    50  C   -0.061534
    51  N   -0.238734
    52  H    0.087173
    53  C    0.038714
    54  H    0.082510
    55  C   -0.382223
    56  C   -0.414442
    57  H    0.087538
    58  C   -0.405004
    59  C   -0.476725
    60  H    0.121074
    61  H    0.124867
    62  H    0.126888
    63  H    0.119007
    64  H    0.116203
    65  H    0.134952
    66  H    0.142949
    67  H    0.126377
    68  H    0.122505
    69  H    0.123250
    70  H    0.114890
    71  H    0.129259
    72  C    0.039629
    73  C    0.040177
    74  N   -0.459142
    75  H    0.083956
    76  C   -0.038929
    77  N   -0.218353
    78  H    0.057704
    79  C    0.079619
    80  H    0.088430
    81  C   -0.376366
    82  C   -0.375365
    83  H    0.080376
    84  C   -0.450048
    85  C   -0.478415
    86  H    0.119119
    87  H    0.130868
    88  H    0.098352
    89  H    0.107432
    90  H    0.123042
    91  H    0.121981
    92  H    0.138121
    93  H    0.125115
    94  H    0.122837
    95  H    0.118820
    96  H    0.146028
    97  H    0.129769
    98  C    0.101185
    99  C   -0.045968
   100  N   -0.509406
   101  H    0.103481
   102  C    0.066929
   103  N   -0.204863
   104  H    0.068305
   105  C   -0.001799
   106  H    0.071856
   107  C   -0.401023
   108  C   -0.452805
   109  H    0.056581
   110  C   -0.459648
   111  C   -0.385598
   112  H    0.112393
   113  H    0.132931
   114  H    0.138913
   115  H    0.126758
   116  H    0.118706
   117  H    0.114636
   118  H    0.121287
   119  H    0.132350
   120  H    0.129365
   121  H    0.117726
   122  H    0.123432
   123  H    0.150386
   124  C    0.092946
   125  C    0.111797
   126  N   -0.243825
   127  H    0.079771
   128  C   -0.026549
   129  N   -0.250118
   130  H    0.077904
   131  C   -0.013405
   132  H    0.084347
   133  C   -0.409648
   134  C   -0.382349
   135  H    0.082669
   136  C   -0.409271
   137  C   -0.385378
   138  H    0.129604
   139  H    0.112197
   140  H    0.123780
   141  H    0.120396
   142  H    0.141207
   143  H    0.118027
   144  H    0.132346
   145  H    0.111957
   146  H    0.122090
   147  H    0.118149
   148  H    0.119387
   149  H    0.138071
   150  C    0.105568
   151  C    0.093308
   152  N   -0.250682
   153  H    0.079597
   154  C   -0.006670
   155  N   -0.248914
   156  H    0.078927
   157  C   -0.020769
   158  H    0.081620
   159  C   -0.409775
   160  C   -0.388585
   161  H    0.081915
   162  C   -0.417113
   163  C   -0.382342
   164  H    0.131293
   165  H    0.113667
   166  H    0.121661
   167  H    0.137298
   168  H    0.117807
   169  H    0.119199
   170  H    0.123465
   171  H    0.129360
   172  H    0.111668
   173  H    0.150330
   174  H    0.117421
   175  H    0.120209
   176  C    0.095537
   177  C    0.100511
   178  N   -0.243371
   179  H    0.080088
   180  C   -0.027725
   181  N   -0.249836
   182  H    0.079392
   183  C   -0.011933
   184  H    0.084493
   185  C   -0.409026
   186  C   -0.381559
   187  H    0.083745
   188  C   -0.408821
   189  C   -0.386264
   190  H    0.123707
   191  H    0.129711
   192  H    0.111704
   193  H    0.118980
   194  H    0.120971
   195  H    0.141158
   196  H    0.132427
   197  H    0.112470
   198  H    0.121976
   199  H    0.119589
   200  H    0.137345
   201  H    0.118190
   202  H    0.226411
   203  H    0.207904
   204  H    0.213970
   205  H    0.217328
   206  H    0.212566
   207  H    0.209173
 Sum of Mulliken charges =  -0.00000

 Dipole moment (field-independent basis, Debye):
    X=             -0.3152    Y=              1.8673    Z=              0.1709  Tot=              1.9014
 Quadrupole moment (field-independent basis, Debye-Ang):
   XX=           -565.1319   YY=           -534.9264   ZZ=           -527.8821
   XY=             -8.3046   XZ=              7.8941   YZ=             -6.5646

 Normal termination of Gaussian 16 at Mon Oct 18 09:17:04 2021.
