 Gaussian 16, Revision C.01,
 Gaussian 16:  ES64L-G16RevC.01  3-Jul-2019

 ----------------------------------------------------------------------
 #P MP2/aug-cc-pVDZ SP SCF=(YQC,MaxCycle=900) int=(Grid=Superfinegrid)
 SCRF=(PCM,Solvent=Dichloromethane)
 ----------------------------------------------------------------------

 -----------------------------
 _3_alde1_6_ami2_1_opt_dcm_mp2
 -----------------------------
 Symbolic Z-matrix:
 Charge =  0 Multiplicity = 1

                         Standard orientation:
 ---------------------------------------------------------------------
 Center     Atomic      Atomic             Coordinates (Angstroms)
 Number     Number       Type             X           Y           Z
 ---------------------------------------------------------------------
      1          6           0        4.601102   -0.057915   -0.219484
      2          6           0        5.467600   -1.197569   -0.691892
      3          6           0        3.919302   -0.163855    0.981758
      4          6           0        3.119191    0.878888    1.447400
      5          1           0        3.980413   -1.058114    1.581195
      6          6           0        2.996649    2.034451    0.684588
      7          6           0        3.663455    2.148776   -0.531246
      8          1           0        2.383855    2.860374    1.012689
      9          6           0        4.461916    1.096360   -0.975447
     10          6           0        3.515894    3.344655   -1.354205
     11          1           0        4.986122    1.187848   -1.916821
     12          6           0        2.445824    0.773847    2.737665
     13          1           0        3.788394    3.206178   -2.407009
     14          1           0        1.790149    1.616851    2.985539
     15          6           0       -3.072860   -2.532000    0.483351
     16          6           0       -3.400176   -3.474390   -0.639113
     17          6           0       -3.912377   -1.481303    0.816258
     18          6           0       -3.553836   -0.578186    1.819190
     19          1           0       -4.854140   -1.346100    0.309132
     20          6           0       -2.357251   -0.754312    2.501761
     21          6           0       -1.532617   -1.840165    2.216351
     22          1           0       -2.056299   -0.071050    3.281067
     23          6           0       -1.896892   -2.718505    1.198992
     24          6           0       -0.313930   -2.070985    2.977812
     25          1           0       -1.271632   -3.564023    0.955965
     26          6           0       -4.394780    0.572188    2.128854
     27          1           0        0.297854   -2.928759    2.657963
     28          1           0       -3.891561    1.352575    2.712563
     29          6           0       -1.221279    0.974591   -2.110405
     30          6           0       -0.593584   -0.237480   -2.764358
     31          6           0       -0.509963    2.144740   -1.906013
     32          6           0       -1.095461    3.219780   -1.236238
     33          1           0        0.504586    2.233608   -2.258111
     34          6           0       -2.406187    3.122133   -0.786723
     35          6           0       -3.148412    1.970091   -1.034317
     36          1           0       -2.882683    3.940684   -0.269264
     37          6           0       -2.540584    0.899823   -1.685550
     38          6           0       -4.536250    1.852844   -0.622241
     39          1           0       -3.106938   -0.004455   -1.860454
     40          6           0       -0.324162    4.433004   -0.990463
     41          1           0       -5.039223    0.925502   -0.934687
     42          1           0       -0.623957    5.016912   -0.104778
     43          6           0        6.827639   -2.902136    0.024405
     44          6           0        5.468030   -3.561817   -0.325089
     45          7           0        6.539053   -1.495335    0.239696
     46          1           0        7.306826   -3.343764    0.895700
     47          7           0        4.669358   -2.432097   -0.816595
     48          6           0        5.619247   -4.658917   -1.375674
     49          6           0        4.793845   -4.126100    0.930536
     50          6           0       -2.746218   -4.509567   -2.559068
     51          6           0       -4.027179   -3.669901   -2.885146
     52          7           0       -2.206194   -3.967271   -1.325362
     53          1           0       -2.010083   -4.472366   -3.360546
     54          7           0       -4.271735   -2.896735   -1.661344
     55          6           0       -5.231015   -4.575296   -3.146833
     56          6           0       -3.791421   -2.744395   -4.076296
     57          6           0        0.906978   -1.762709   -1.717360
     58          6           0        1.645637   -0.517254   -2.258041
     59          7           0       -0.507316   -1.361035   -1.801927
     60          6           0        1.327929   -2.107544   -0.297166
     61          6           0        1.125088   -2.970159   -2.636148
     62          7           0        0.748744    0.045701   -3.253314
     63          1           0        2.621744   -0.740039   -2.683426
     64          6           0        2.085302   -0.378707    4.800209
     65          6           0        1.178239   -1.631062    4.714813
     66          7           0        2.658558   -0.212253    3.492689
     67          6           0        3.264925   -0.690308    5.731564
     68          6           0        1.279741    0.801331    5.351057
     69          7           0       -0.000414   -1.351471    3.964984
     70          1           0        0.861551   -1.887129    5.730957
     71          1           0        0.961389    0.576129    6.365220
     72          6           0        2.889036    5.626269   -1.626898
     73          6           0        1.385070    5.950296   -1.437691
     74          7           0        3.110496    4.428745   -0.859627
     75          6           0        3.729413    6.731854   -0.977949
     76          6           0        3.194413    5.538756   -3.125804
     77          7           0        0.615954    4.788430   -1.748162
     78          1           0        1.111740    6.743528   -2.140346
     79          1           0        4.230637    5.251439   -3.294304
     80          6           0       -6.410332    1.809470    1.906605
     81          6           0       -6.464368    2.459326    0.487875
     82          7           0       -5.592830    0.640534    1.742766
     83          6           0       -7.813318    1.324081    2.282450
     84          6           0       -5.920608    2.852651    2.916579
     85          7           0       -5.137983    2.743034    0.043868
     86          1           0       -7.017781    3.397851    0.554520
     87          1           0       -1.605151   -3.167177   -1.536413
     88          1           0       -3.922797   -4.358073   -0.234645
     89          1           0       -4.008169   -1.927027   -1.811284
     90          1           0        0.897140   -0.407305   -4.147845
     91          1           0       -0.828745   -1.049633   -0.888823
     92          1           0       -1.235014   -0.543218   -3.605916
     93          1           0        4.360986   -2.574577   -1.769748
     94          1           0        6.207181   -1.347241    1.188030
     95          1           0        5.933936   -0.930150   -1.657227
     96          1           0       -3.023367   -5.553433   -2.381740
     97          1           0       -3.655808   -3.325721   -4.985667
     98          1           0       -2.900029   -2.138501   -3.915357
     99          1           0       -4.644472   -2.082311   -4.214005
    100          1           0        7.508565   -2.979732   -0.830232
    101          1           0        4.720348   -3.359976    1.698337
    102          1           0        5.363398   -4.965248    1.322764
    103          1           0        3.788535   -4.462702    0.689889
    104          1           0        1.771241    0.208802   -1.449129
    105          1           0        0.848298   -2.732768   -3.661480
    106          1           0        0.512790   -3.803847   -2.301803
    107          1           0        2.169106   -3.272114   -2.613533
    108          1           0        1.759382   -2.468555    4.295308
    109          1           0        1.889166    1.703030    5.369567
    110          1           0        0.394182    0.969351    4.744418
    111          1           0        1.203490    6.308125   -0.411825
    112          1           0        3.032506    6.511630   -3.582944
    113          1           0        2.531824    4.817729   -3.598044
    114          1           0       -6.986199    1.760316   -0.181727
    115          1           0       -6.107400   -3.971183   -3.366769
    116          1           0       -5.442664   -5.175987   -2.266429
    117          1           0       -5.034101   -5.235077   -3.988494
    118          1           0        4.649382   -5.094825   -1.607766
    119          1           0        6.271650   -5.445787   -1.004565
    120          1           0        6.051709   -4.257613   -2.291337
    121          1           0        0.815544   -3.007402    0.032850
    122          1           0        1.087804   -1.294449    0.386858
    123          1           0        2.402543   -2.275451   -0.266696
    124          1           0        2.909074   -0.942563    6.727066
    125          1           0        3.917982    0.176784    5.798999
    126          1           0        3.839594   -1.523409    5.335926
    127          1           0       -5.732509    2.386939    3.882563
    128          1           0       -6.684420    3.615432    3.042884
    129          1           0       -5.012492    3.332088    2.559984
    130          1           0       -8.114781    0.518769    1.618329
    131          1           0       -8.531717    2.136721    2.210728
    132          1           0       -7.808544    0.945162    3.301786
    133          1           0        3.463359    7.701857   -1.390519
    134          1           0        4.785801    6.547726   -1.159951
    135          1           0        3.562634    6.741198    0.095858
 ---------------------------------------------------------------------

 SCF Done:  E(RHF) =  -2626.81351652     a.u. after    6 cycles
 SCF Done:  E(RHF) =  -2626.81364277     A.U. after   20 cycles
 E2 =    -0.9384675089D+01 EUMP2 =    -0.26361983178620D+04

 The electronic state is 1-A.
 Alpha  occ. eigenvalues --  -15.56112 -15.56059 -15.55693 -15.55683 -15.55643
 Alpha  occ. eigenvalues --  -15.55643 -15.55606 -15.55298 -15.54963 -15.54749
 Alpha  occ. eigenvalues --  -15.54266 -15.53936 -11.29360 -11.29152 -11.28722
 Alpha  occ. eigenvalues --  -11.28545 -11.28509 -11.28409 -11.28284 -11.28248
 Alpha  occ. eigenvalues --  -11.28048 -11.26676 -11.26532 -11.26480 -11.26099
 Alpha  occ. eigenvalues --  -11.25902 -11.25798 -11.25244 -11.25209 -11.25173
 Alpha  occ. eigenvalues --  -11.24980 -11.24958 -11.24950 -11.24924 -11.24877
 Alpha  occ. eigenvalues --  -11.24831 -11.24815 -11.24629 -11.24588 -11.24561
 Alpha  occ. eigenvalues --  -11.24552 -11.24541 -11.24504 -11.24449 -11.24391
 Alpha  occ. eigenvalues --  -11.24382 -11.24363 -11.24296 -11.24281 -11.23976
 Alpha  occ. eigenvalues --  -11.23925 -11.21858 -11.21858 -11.21493 -11.21438
 Alpha  occ. eigenvalues --  -11.21390 -11.21365 -11.21269 -11.21238 -11.21127
 Alpha  occ. eigenvalues --  -11.21101 -11.21048 -11.20348  -1.28095  -1.28044
 Alpha  occ. eigenvalues --   -1.27782  -1.26591  -1.26122  -1.25998  -1.23589
 Alpha  occ. eigenvalues --   -1.23316  -1.22930  -1.17335  -1.16814  -1.16733
 Alpha  occ. eigenvalues --   -1.15266  -1.15110  -1.14512  -1.09070  -1.08840
 Alpha  occ. eigenvalues --   -1.08378  -1.07266  -1.07102  -1.05858  -1.05126
 Alpha  occ. eigenvalues --   -1.03500  -1.02806  -1.02401  -1.02274  -1.01919
 Alpha  occ. eigenvalues --   -0.94806  -0.94527  -0.94144  -0.93938  -0.93870
 Alpha  occ. eigenvalues --   -0.93849  -0.93844  -0.93750  -0.93599  -0.92334
 Alpha  occ. eigenvalues --   -0.92278  -0.91939  -0.89455  -0.89089  -0.88628
 Alpha  occ. eigenvalues --   -0.87415  -0.86555  -0.86169  -0.85289  -0.84587
 Alpha  occ. eigenvalues --   -0.83397  -0.79906  -0.79745  -0.79315  -0.77595
 Alpha  occ. eigenvalues --   -0.76862  -0.76710  -0.76054  -0.75645  -0.75004
 Alpha  occ. eigenvalues --   -0.74240  -0.72499  -0.71504  -0.70841  -0.70518
 Alpha  occ. eigenvalues --   -0.70334  -0.70041  -0.68492  -0.67947  -0.67543
 Alpha  occ. eigenvalues --   -0.67449  -0.67235  -0.66608  -0.66217  -0.65739
 Alpha  occ. eigenvalues --   -0.65308  -0.64777  -0.64604  -0.64002  -0.63912
 Alpha  occ. eigenvalues --   -0.63531  -0.63187  -0.62673  -0.62401  -0.62337
 Alpha  occ. eigenvalues --   -0.62038  -0.61795  -0.61414  -0.61100  -0.60798
 Alpha  occ. eigenvalues --   -0.60715  -0.60530  -0.60362  -0.59908  -0.59794
 Alpha  occ. eigenvalues --   -0.59560  -0.58635  -0.58054  -0.57801  -0.56954
 Alpha  occ. eigenvalues --   -0.56886  -0.56153  -0.55819  -0.55684  -0.55454
 Alpha  occ. eigenvalues --   -0.55027  -0.54878  -0.54799  -0.54588  -0.54495
 Alpha  occ. eigenvalues --   -0.54407  -0.54063  -0.53873  -0.53773  -0.53515
 Alpha  occ. eigenvalues --   -0.53480  -0.53293  -0.53195  -0.53104  -0.52955
 Alpha  occ. eigenvalues --   -0.52854  -0.52412  -0.52282  -0.51909  -0.51574
 Alpha  occ. eigenvalues --   -0.51486  -0.51354  -0.51132  -0.50999  -0.50743
 Alpha  occ. eigenvalues --   -0.50541  -0.50432  -0.50357  -0.50103  -0.49461
 Alpha  occ. eigenvalues --   -0.49100  -0.48862  -0.48480  -0.48367  -0.47866
 Alpha  occ. eigenvalues --   -0.47668  -0.47649  -0.47213  -0.46986  -0.46806
 Alpha  occ. eigenvalues --   -0.46464  -0.46216  -0.45486  -0.44370  -0.44034
 Alpha  occ. eigenvalues --   -0.41776  -0.41282  -0.40932  -0.40422  -0.40371
 Alpha  occ. eigenvalues --   -0.39961  -0.39539  -0.39467  -0.39250  -0.39134
 Alpha  occ. eigenvalues --   -0.38682  -0.38269  -0.37600  -0.36779  -0.36546
 Alpha  occ. eigenvalues --   -0.33230  -0.32938  -0.32913  -0.32418  -0.31916
 Alpha  occ. eigenvalues --   -0.31694
 Alpha virt. eigenvalues --    0.03101   0.03407   0.03499   0.03589   0.04056
 Alpha virt. eigenvalues --    0.04071   0.04208   0.04301   0.04395   0.04910
 Alpha virt. eigenvalues --    0.05004   0.05053   0.05163   0.05284   0.05394

 Mulliken charges:
               1
     1  C    0.818782
     2  C    0.333340
     3  C    0.906381
     4  C    1.054487
     5  H   -1.355766
     6  C    0.263076
     7  C    1.400226
     8  H   -1.097983
     9  C    0.216834
    10  C    0.367414
    11  H   -0.853064
    12  C   -0.065239
    13  H   -0.828752
    14  H   -0.956666
    15  C    1.105218
    16  C    0.927683
    17  C    0.256707
    18  C    0.998347
    19  H   -1.077422
    20  C    0.017830
    21  C    1.061345
    22  H   -0.895709
    23  C    0.159705
    24  C    0.667708
    25  H   -0.902259
    26  C    0.461615
    27  H   -0.782301
    28  H   -0.857018
    29  C   -0.018995
    30  C    1.433290
    31  C    0.855955
    32  C    0.729684
    33  H   -0.977678
    34  C   -0.492578
    35  C    1.430371
    36  H   -0.907321
    37  C    1.278563
    38  C    1.116878
    39  H   -1.120763
    40  C    0.641982
    41  H   -0.575762
    42  H   -0.639532
    43  C    1.561541
    44  C   -2.925414
    45  N   -0.635300
    46  H   -0.235482
    47  N    0.228226
    48  C    1.073860
    49  C    1.508857
    50  C    1.487929
    51  C   -2.242775
    52  N   -0.107184
    53  H   -0.380546
    54  N   -0.231578
    55  C    1.346524
    56  C    1.186254
    57  C   -1.341247
    58  C    2.003002
    59  N   -0.733908
    60  C    1.588228
    61  C    1.723656
    62  N   -1.136629
    63  H   -0.433501
    64  C   -3.869389
    65  C    1.633139
    66  N    0.335203
    67  C    1.992724
    68  C    1.604805
    69  N   -0.415917
    70  H   -0.271486
    71  H   -0.146456
    72  C   -3.832251
    73  C    1.541787
    74  N   -0.006723
    75  C    1.712353
    76  C    1.601320
    77  N   -0.521386
    78  H   -0.237206
    79  H    0.014276
    80  C   -3.459159
    81  C    1.160304
    82  N   -0.176221
    83  C    1.578395
    84  C    1.526716
    85  N   -0.847512
    86  H   -0.321121
    87  H    0.237890
    88  H   -0.301140
    89  H   -0.462247
    90  H    0.044073
    91  H    0.194730
    92  H   -0.211742
    93  H   -0.026279
    94  H    0.111915
    95  H   -0.564359
    96  H   -0.425233
    97  H   -0.029332
    98  H   -0.702603
    99  H    0.013300
   100  H   -0.285521
   101  H   -0.111248
   102  H   -0.115704
   103  H   -0.148966
   104  H   -1.088030
   105  H   -0.002989
   106  H   -0.143823
   107  H   -0.300712
   108  H   -0.219559
   109  H    0.054274
   110  H    0.026034
   111  H   -0.221985
   112  H   -0.164581
   113  H    0.093671
   114  H   -0.136898
   115  H   -0.106628
   116  H   -0.048698
   117  H   -0.055478
   118  H   -0.020381
   119  H   -0.066607
   120  H   -0.076936
   121  H   -0.182591
   122  H   -0.626170
   123  H   -1.521215
   124  H   -0.074578
   125  H   -0.069214
   126  H   -0.022795
   127  H    0.061032
   128  H   -0.147631
   129  H    0.068609
   130  H   -0.057555
   131  H   -0.011678
   132  H   -0.047318
   133  H    0.015117
   134  H   -0.055915
   135  H   -0.065628
 Sum of Mulliken charges =   0.00000

 Dipole moment (field-independent basis, Debye):
    X=              3.4736    Y=             -2.1888    Z=             -2.6445  Tot=              4.8837
 Quadrupole moment (field-independent basis, Debye-Ang):
   XX=           -398.3058   YY=           -376.9680   ZZ=           -368.6669
   XY=            -21.9737   XZ=             -9.6391   YZ=             13.4693

 Normal termination of Gaussian 16 at Wed Oct 27 18:23:27 2021.
