 Gaussian 16, Revision C.01,
 Gaussian 16:  ES64L-G16RevC.01  3-Jul-2019

 ----------------------------------------------------------------------
 #P PBE1PBE/Def2TZVP SP SCF=(YQC,MaxCycle=900) int=(Grid=Superfinegrid)
  EmpiricalDispersion=GD3 SCRF=(PCM,Solvent=Dichloromethane)
 ----------------------------------------------------------------------

 -------------------------
 _3_alde1_4_ami1_1_opt_dcm
 -------------------------
 Symbolic Z-matrix:
 Charge =  0 Multiplicity = 1

                         Standard orientation:
 ---------------------------------------------------------------------
 Center     Atomic      Atomic             Coordinates (Angstroms)
 Number     Number       Type             X           Y           Z
 ---------------------------------------------------------------------
      1          6           0        2.472173    1.351705    1.403294
      2          6           0        2.611086    0.825387    2.753132
      3          6           0        1.655234    2.448154    1.134431
      4          6           0        1.475726    2.896754   -0.169800
      5          1           0        1.166314    2.938272    1.962476
      6          6           0        2.077859    2.204833   -1.221036
      7          6           0        2.897593    1.111539   -0.968377
      8          1           0        1.897940    2.545427   -2.229374
      9          6           0        3.114967    0.712649    0.349718
     10          6           0        3.466105    0.338430   -2.064685
     11          1           0        3.769465   -0.126114    0.526058
     12          6           0        0.646886    4.064921   -0.421874
     13          1           0        3.012633    0.512745   -3.053327
     14          1           0        3.375762    0.044687    2.879076
     15          1           0        0.229410    4.548617    0.474765
     16          6           0       -2.559920    1.338812    2.119702
     17          6           0       -2.118003    1.611839    3.491345
     18          6           0       -3.205926    0.137354    1.826494
     19          6           0       -3.594290   -0.158084    0.524861
     20          1           0       -3.404083   -0.554793    2.633233
     21          6           0       -3.308047    0.754714   -0.489839
     22          6           0       -2.687197    1.966851   -0.208122
     23          1           0       -3.596905    0.500545   -1.498404
     24          6           0       -2.322421    2.258890    1.104350
     25          6           0       -2.397936    2.910474   -1.281876
     26          1           0       -1.840722    3.201482    1.311965
     27          6           0       -4.264965   -1.416161    0.229154
     28          1           0       -2.366060    2.482812   -2.295998
     29          1           0       -1.680224    2.617321    3.632574
     30          1           0       -4.419939   -2.086674    1.086742
     31          6           0        0.295565   -2.159163    1.606077
     32          6           0        0.100276   -1.535616    2.909243
     33          6           0        1.579832   -2.303566    1.083349
     34          6           0        1.775037   -2.749887   -0.218507
     35          1           0        2.415790   -2.027141    1.706301
     36          6           0        0.668553   -3.090743   -0.995135
     37          6           0       -0.614527   -3.016336   -0.465387
     38          1           0        0.833323   -3.421394   -2.009413
     39          6           0       -0.794585   -2.539716    0.832928
     40          6           0       -1.766153   -3.388053   -1.276884
     41          1           0       -1.799647   -2.463071    1.216540
     42          6           0        3.122306   -2.781657   -0.767231
     43          1           0       -1.587556   -3.446553   -2.362368
     44          1           0        3.930182   -2.610647   -0.040257
     45          6           0        0.859144   -0.598672    4.914806
     46          6           0        1.957482    0.501874    4.954408
     47          7           0        1.063890   -1.316290    3.690843
     48          1           0       -0.127924   -0.112262    4.925828
     49          6           0        0.921505   -1.577095    6.107379
     50          7           0        1.870110    1.198109    3.703245
     51          1           0        2.926519   -0.018857    5.039255
     52          6           0        1.819725    1.501083    6.114567
     53          1           0        0.897501   -0.983825    7.026461
     54          6           0        2.185928   -2.432185    6.095685
     55          6           0       -0.318764   -2.469773    6.090748
     56          1           0        1.764367    0.938005    7.051510
     57          6           0        0.574632    2.371542    5.978894
     58          6           0        3.069561    2.381206    6.158473
     59          1           0       -0.333578   -3.109896    6.970229
     60          1           0       -0.319504   -3.102291    5.205125
     61          1           0       -1.223679   -1.866028    6.087262
     62          1           0        2.137868   -3.175472    6.888736
     63          1           0        3.073756   -1.826019    6.254773
     64          1           0        2.278445   -2.942920    5.140589
     65          1           0        3.166665    2.933911    5.226465
     66          1           0        3.964586    1.777382    6.295883
     67          1           0        3.005594    3.091621    6.979584
     68          1           0        0.539301    3.099308    6.787055
     69          1           0       -0.330842    1.773529    6.016637
     70          1           0        0.605387    2.898938    5.029812
     71          8           0       -2.191322    0.832786    4.409956
     72          6           0       -0.468826    5.616187   -1.742837
     73          6           0       -1.848263    5.015500   -2.125304
     74          7           0        0.421221    4.502815   -1.582572
     75          1           0       -0.604115    6.146572   -0.784924
     76          6           0        0.114699    6.590281   -2.780430
     77          7           0       -2.196685    4.131877   -1.054042
     78          1           0       -1.730779    4.458941   -3.071221
     79          6           0       -2.959395    6.068783   -2.309572
     80          1           0       -0.578041    7.430625   -2.891502
     81          6           0        0.323842    5.923637   -4.136951
     82          6           0        1.442800    7.133075   -2.252231
     83          1           0       -2.640292    6.757026   -3.098315
     84          6           0       -3.226275    6.856145   -1.030112
     85          6           0       -4.239654    5.375423   -2.776072
     86          1           0        1.306157    7.614522   -1.285918
     87          1           0        1.856834    7.862677   -2.944302
     88          1           0        2.155011    6.319604   -2.134065
     89          1           0        0.886329    5.003658   -4.006018
     90          1           0        0.880292    6.586111   -4.796314
     91          1           0       -0.625340    5.691467   -4.612979
     92          1           0       -5.012214    6.112526   -2.982459
     93          1           0       -4.605006    4.698266   -2.006938
     94          1           0       -4.061251    4.803171   -3.684448
     95          1           0       -3.409092    6.169925   -0.207641
     96          1           0       -4.100840    7.489871   -1.160250
     97          1           0       -2.382853    7.492422   -0.776071
     98          6           0        4.833084   -1.331391   -2.961277
     99          6           0        4.702416   -2.798676   -2.463323
    100          7           0        4.383887   -0.504693   -1.881492
    101          1           0        4.184484   -1.207177   -3.845155
    102          6           0        6.272990   -0.940830   -3.355128
    103          7           0        3.353460   -2.945112   -1.996331
    104          1           0        5.414603   -2.918452   -1.629709
    105          6           0        4.995699   -3.863849   -3.532748
    106          1           0        6.619807   -1.655486   -4.108172
    107          6           0        7.225522   -0.963924   -2.162888
    108          6           0        6.263953    0.449938   -3.989974
    109          1           0        6.020257   -3.720901   -3.891370
    110          6           0        4.030812   -3.774291   -4.711704
    111          6           0        4.904306   -5.245625   -2.884772
    112          1           0        5.934675    1.193558   -3.267148
    113          1           0        5.594422    0.480240   -4.847435
    114          1           0        7.263208    0.715861   -4.326918
    115          1           0        7.377255   -1.976372   -1.798522
    116          1           0        6.820297   -0.358231   -1.356711
    117          1           0        8.193441   -0.561408   -2.453633
    118          1           0        3.895223   -5.415074   -2.515967
    119          1           0        5.595024   -5.326019   -2.047643
    120          1           0        5.147815   -6.021614   -3.606779
    121          1           0        4.214811   -2.882577   -5.305457
    122          1           0        3.009510   -3.746564   -4.342842
    123          1           0        4.149909   -4.640906   -5.358211
    124          6           0       -5.188758   -3.014130   -1.177332
    125          6           0       -4.013545   -3.950018   -1.584762
    126          7           0       -4.639296   -1.713585   -0.937900
    127          1           0       -5.623403   -3.428076   -0.252514
    128          6           0       -6.286296   -2.923496   -2.252064
    129          7           0       -2.891135   -3.621492   -0.761919
    130          1           0       -3.786704   -3.778049   -2.650935
    131          6           0       -4.367079   -5.442846   -1.397911
    132          1           0       -6.526366   -3.938831   -2.585506
    133          6           0       -5.841016   -2.098032   -3.456226
    134          6           0       -7.540028   -2.304709   -1.635069
    135          1           0       -5.369532   -5.603433   -1.808456
    136          6           0       -4.361482   -5.855868    0.071788
    137          6           0       -3.379622   -6.304570   -2.183027
    138          1           0       -7.315967   -1.306408   -1.265382
    139          1           0       -7.901906   -2.908059   -0.804836
    140          1           0       -8.332618   -2.230806   -2.375998
    141          1           0       -4.983216   -2.547531   -3.948943
    142          1           0       -5.567524   -1.098249   -3.132636
    143          1           0       -6.650818   -2.028346   -4.178952
    144          1           0       -3.625470   -7.357806   -2.069104
    145          1           0       -2.367213   -6.147151   -1.815851
    146          1           0       -3.407091   -6.059488   -3.242951
    147          1           0       -4.604189   -6.912545    0.160186
    148          1           0       -5.092386   -5.290935    0.643867
    149          1           0       -3.379475   -5.681473    0.503471
    150          1           0       -0.929329   -1.227524    3.139172
 ---------------------------------------------------------------------

 SCF Done:  E(RPBE1PBE) =  -2808.62020876     a.u. after    7 cycles
 SCF Done:  E(RPBE1PBE) =  -2808.62021821     A.U. after    8 cycles

 The electronic state is 1-A.
 Alpha  occ. eigenvalues --  -19.21466 -14.38066 -14.37803 -14.37675 -14.37585
 Alpha  occ. eigenvalues --  -14.37493 -14.37429 -14.37342 -14.37187 -10.31806
 Alpha  occ. eigenvalues --  -10.27026 -10.26717 -10.26690 -10.26671 -10.26464
 Alpha  occ. eigenvalues --  -10.26366 -10.26326 -10.26199 -10.25278 -10.25243
 Alpha  occ. eigenvalues --  -10.25236 -10.25185 -10.25134 -10.25110 -10.25086
 Alpha  occ. eigenvalues --  -10.25028 -10.24960 -10.24942 -10.24892 -10.24808
 Alpha  occ. eigenvalues --  -10.24521 -10.24494 -10.24385 -10.24370 -10.24346
 Alpha  occ. eigenvalues --  -10.24279 -10.24274 -10.24264 -10.23876 -10.23871
 Alpha  occ. eigenvalues --  -10.23871 -10.23860 -10.23836 -10.23785 -10.22779
 Alpha  occ. eigenvalues --  -10.22742 -10.22676 -10.22435 -10.22392 -10.22362
 Alpha  occ. eigenvalues --  -10.22304 -10.22035 -10.20399 -10.20345 -10.20295
 Alpha  occ. eigenvalues --  -10.20223 -10.20129 -10.20101 -10.20096 -10.20086
 Alpha  occ. eigenvalues --  -10.20077 -10.20035 -10.19997 -10.19932 -10.19910
 Alpha  occ. eigenvalues --  -10.19864 -10.19836 -10.19411  -1.09152  -0.98209
 Alpha  occ. eigenvalues --   -0.98107  -0.97939  -0.97645  -0.95344  -0.95256
 Alpha  occ. eigenvalues --   -0.94911  -0.94630  -0.91150  -0.90349  -0.89764
 Alpha  occ. eigenvalues --   -0.84893  -0.84788  -0.84662  -0.83654  -0.82498
 Alpha  occ. eigenvalues --   -0.82262  -0.82200  -0.81587  -0.81010  -0.80461
 Alpha  occ. eigenvalues --   -0.80038  -0.79929  -0.79594  -0.79476  -0.74965
 Alpha  occ. eigenvalues --   -0.74437  -0.74341  -0.73928  -0.70512  -0.70460
 Alpha  occ. eigenvalues --   -0.70424  -0.70234  -0.70143  -0.70118  -0.70079
 Alpha  occ. eigenvalues --   -0.69826  -0.69628  -0.69498  -0.69196  -0.68955
 Alpha  occ. eigenvalues --   -0.68695  -0.66797  -0.66743  -0.66306  -0.64666
 Alpha  occ. eigenvalues --   -0.64003  -0.63825  -0.62995  -0.62259  -0.59992
 Alpha  occ. eigenvalues --   -0.59917  -0.59885  -0.58969  -0.57998  -0.57851
 Alpha  occ. eigenvalues --   -0.57702  -0.56640  -0.56451  -0.56006  -0.55839
 Alpha  occ. eigenvalues --   -0.55626  -0.54895  -0.54628  -0.54264  -0.53626
 Alpha  occ. eigenvalues --   -0.53488  -0.52400  -0.51988  -0.51957  -0.51031
 Alpha  occ. eigenvalues --   -0.50779  -0.50554  -0.50414  -0.50038  -0.49979
 Alpha  occ. eigenvalues --   -0.49601  -0.49467  -0.49064  -0.48545  -0.48535
 Alpha  occ. eigenvalues --   -0.48432  -0.47918  -0.47508  -0.46957  -0.46882
 Alpha  occ. eigenvalues --   -0.46619  -0.46332  -0.46170  -0.45326  -0.45304
 Alpha  occ. eigenvalues --   -0.45036  -0.44967  -0.44857  -0.44803  -0.44447
 Alpha  occ. eigenvalues --   -0.44287  -0.44014  -0.43917  -0.43604  -0.43333
 Alpha  occ. eigenvalues --   -0.43225  -0.43174  -0.43061  -0.42807  -0.42715
 Alpha  occ. eigenvalues --   -0.42331  -0.42214  -0.42199  -0.41989  -0.41906
 Alpha  occ. eigenvalues --   -0.41262  -0.40401  -0.40235  -0.40142  -0.40086
 Alpha  occ. eigenvalues --   -0.40065  -0.39937  -0.39779  -0.39455  -0.39258
 Alpha  occ. eigenvalues --   -0.39140  -0.39034  -0.38906  -0.38844  -0.38798
 Alpha  occ. eigenvalues --   -0.38761  -0.38677  -0.38559  -0.38204  -0.38052
 Alpha  occ. eigenvalues --   -0.37944  -0.37717  -0.37613  -0.36933  -0.36752
 Alpha  occ. eigenvalues --   -0.36719  -0.36572  -0.35810  -0.35608  -0.35067
 Alpha  occ. eigenvalues --   -0.35017  -0.35004  -0.34826  -0.34824  -0.34742
 Alpha  occ. eigenvalues --   -0.34703  -0.34671  -0.34463  -0.34347  -0.34075
 Alpha  occ. eigenvalues --   -0.34041  -0.33868  -0.33610  -0.33494  -0.33275
 Alpha  occ. eigenvalues --   -0.33214  -0.33019  -0.32850  -0.32659  -0.32599
 Alpha  occ. eigenvalues --   -0.32346  -0.31908  -0.31449  -0.30117  -0.29486
 Alpha  occ. eigenvalues --   -0.28755  -0.27798  -0.27470  -0.27287  -0.27118
 Alpha  occ. eigenvalues --   -0.26949  -0.26892  -0.26684  -0.26583  -0.26491
 Alpha  occ. eigenvalues --   -0.26108  -0.25994  -0.25658  -0.25422  -0.25273
 Alpha virt. eigenvalues --   -0.07946  -0.06687  -0.06459  -0.05896  -0.05655
 Alpha virt. eigenvalues --   -0.05295  -0.03073  -0.02379  -0.01290   0.03888
 Alpha virt. eigenvalues --    0.04258   0.04295   0.04382   0.04576   0.04789

 Mulliken charges:
               1
     1  C    0.361597
     2  C   -0.189935
     3  C   -0.362592
     4  C    0.395434
     5  H    0.142339
     6  C   -0.381807
     7  C    0.339961
     8  H    0.143372
     9  C   -0.301733
    10  C   -0.185248
    11  H    0.142315
    12  C   -0.209638
    13  H    0.090975
    14  H    0.099828
    15  H    0.095959
    16  C    0.322476
    17  C    0.051341
    18  C   -0.387300
    19  C    0.382601
    20  H    0.155298
    21  C   -0.373459
    22  C    0.358858
    23  H    0.149347
    24  C   -0.310234
    25  C   -0.166720
    26  H    0.137530
    27  C   -0.153055
    28  H    0.094017
    29  H    0.103589
    30  H    0.095943
    31  C    0.339402
    32  C   -0.193510
    33  C   -0.305710
    34  C    0.377047
    35  H    0.141797
    36  C   -0.384335
    37  C    0.362295
    38  H    0.144583
    39  C   -0.337406
    40  C   -0.166648
    41  H    0.130758
    42  C   -0.194525
    43  H    0.100635
    44  H    0.100029
    45  C    0.116782
    46  C    0.130438
    47  N   -0.261394
    48  H    0.068210
    49  C   -0.031251
    50  N   -0.270081
    51  H    0.079416
    52  C    0.007111
    53  H    0.081954
    54  C   -0.419773
    55  C   -0.400318
    56  H    0.077325
    57  C   -0.431312
    58  C   -0.404126
    59  H    0.129126
    60  H    0.124391
    61  H    0.127326
    62  H    0.125136
    63  H    0.124906
    64  H    0.130203
    65  H    0.123718
    66  H    0.120940
    67  H    0.126920
    68  H    0.123927
    69  H    0.137821
    70  H    0.118224
    71  O   -0.339146
    72  C    0.087790
    73  C    0.096258
    74  N   -0.251269
    75  H    0.092139
    76  C   -0.002144
    77  N   -0.260143
    78  H    0.093520
    79  C   -0.024483
    80  H    0.090665
    81  C   -0.429241
    82  C   -0.404790
    83  H    0.092984
    84  C   -0.424933
    85  C   -0.396832
    86  H    0.120669
    87  H    0.129178
    88  H    0.128241
    89  H    0.133664
    90  H    0.125252
    91  H    0.128288
    92  H    0.131687
    93  H    0.126018
    94  H    0.121438
    95  H    0.130355
    96  H    0.127055
    97  H    0.129879
    98  C    0.089027
    99  C    0.098405
   100  N   -0.257984
   101  H    0.091321
   102  C   -0.022133
   103  N   -0.262742
   104  H    0.087213
   105  C    0.005875
   106  H    0.087569
   107  C   -0.422048
   108  C   -0.397930
   109  H    0.085925
   110  C   -0.429694
   111  C   -0.406000
   112  H    0.126247
   113  H    0.121559
   114  H    0.130913
   115  H    0.127003
   116  H    0.131273
   117  H    0.125852
   118  H    0.127092
   119  H    0.120538
   120  H    0.128586
   121  H    0.126912
   122  H    0.132782
   123  H    0.124521
   124  C    0.125620
   125  C    0.086562
   126  N   -0.250332
   127  H    0.065484
   128  C    0.008966
   129  N   -0.258467
   130  H    0.062805
   131  C   -0.018035
   132  H    0.072752
   133  C   -0.409853
   134  C   -0.400141
   135  H    0.077504
   136  C   -0.406016
   137  C   -0.400097
   138  H    0.124115
   139  H    0.123064
   140  H    0.127652
   141  H    0.119250
   142  H    0.130401
   143  H    0.123681
   144  H    0.129639
   145  H    0.127541
   146  H    0.124890
   147  H    0.126243
   148  H    0.119684
   149  H    0.130872
   150  H    0.102951
 Sum of Mulliken charges =  -0.00000

 Dipole moment (field-independent basis, Debye):
    X=             -1.0408    Y=              0.0375    Z=             -3.7433  Tot=              3.8855
 Quadrupole moment (field-independent basis, Debye-Ang):
   XX=           -404.2449   YY=           -403.5054   ZZ=           -411.6180
   XY=              0.6027   XZ=              4.5596   YZ=              0.4456

 Normal termination of Gaussian 16 at Mon Oct 18 20:36:04 2021.
