 Gaussian 16, Revision C.01,
 Gaussian 16:  ES64L-G16RevC.01  3-Jul-2019

 ----------------------------------------------------------------------
 #P PBE1PBE/Def2TZVP SP SCF=(YQC,MaxCycle=900) int=(Grid=Superfinegrid)
  EmpiricalDispersion=GD3
 ----------------------------------------------------------------------

 -------------------------
 _3_alde1_6_ami2_1_opt_gas
 -------------------------
 Symbolic Z-matrix:
 Charge =  0 Multiplicity = 1

                         Standard orientation:
 ---------------------------------------------------------------------
 Center     Atomic      Atomic             Coordinates (Angstroms)
 Number     Number       Type             X           Y           Z
 ---------------------------------------------------------------------
      1          6           0        4.601102   -0.057915   -0.219484
      2          6           0        5.467600   -1.197569   -0.691892
      3          6           0        3.919302   -0.163855    0.981758
      4          6           0        3.119191    0.878888    1.447400
      5          1           0        3.980413   -1.058114    1.581195
      6          6           0        2.996649    2.034451    0.684588
      7          6           0        3.663455    2.148776   -0.531246
      8          1           0        2.383855    2.860374    1.012689
      9          6           0        4.461916    1.096360   -0.975447
     10          6           0        3.515894    3.344655   -1.354205
     11          1           0        4.986122    1.187848   -1.916821
     12          6           0        2.445824    0.773847    2.737665
     13          1           0        3.788394    3.206178   -2.407009
     14          1           0        1.790149    1.616851    2.985539
     15          6           0       -3.072860   -2.532000    0.483351
     16          6           0       -3.400176   -3.474390   -0.639113
     17          6           0       -3.912377   -1.481303    0.816258
     18          6           0       -3.553836   -0.578186    1.819190
     19          1           0       -4.854140   -1.346100    0.309132
     20          6           0       -2.357251   -0.754312    2.501761
     21          6           0       -1.532617   -1.840165    2.216351
     22          1           0       -2.056299   -0.071050    3.281067
     23          6           0       -1.896892   -2.718505    1.198992
     24          6           0       -0.313930   -2.070985    2.977812
     25          1           0       -1.271632   -3.564023    0.955965
     26          6           0       -4.394780    0.572188    2.128854
     27          1           0        0.297854   -2.928759    2.657963
     28          1           0       -3.891561    1.352575    2.712563
     29          6           0       -1.221279    0.974591   -2.110405
     30          6           0       -0.593584   -0.237480   -2.764358
     31          6           0       -0.509963    2.144740   -1.906013
     32          6           0       -1.095461    3.219780   -1.236238
     33          1           0        0.504586    2.233608   -2.258111
     34          6           0       -2.406187    3.122133   -0.786723
     35          6           0       -3.148412    1.970091   -1.034317
     36          1           0       -2.882683    3.940684   -0.269264
     37          6           0       -2.540584    0.899823   -1.685550
     38          6           0       -4.536250    1.852844   -0.622241
     39          1           0       -3.106938   -0.004455   -1.860454
     40          6           0       -0.324162    4.433004   -0.990463
     41          1           0       -5.039223    0.925502   -0.934687
     42          1           0       -0.623957    5.016912   -0.104778
     43          6           0        6.827639   -2.902136    0.024405
     44          6           0        5.468030   -3.561817   -0.325089
     45          7           0        6.539053   -1.495335    0.239696
     46          1           0        7.306826   -3.343764    0.895700
     47          7           0        4.669358   -2.432097   -0.816595
     48          6           0        5.619247   -4.658917   -1.375674
     49          6           0        4.793845   -4.126100    0.930536
     50          6           0       -2.746218   -4.509567   -2.559068
     51          6           0       -4.027179   -3.669901   -2.885146
     52          7           0       -2.206194   -3.967271   -1.325362
     53          1           0       -2.010083   -4.472366   -3.360546
     54          7           0       -4.271735   -2.896735   -1.661344
     55          6           0       -5.231015   -4.575296   -3.146833
     56          6           0       -3.791421   -2.744395   -4.076296
     57          6           0        0.906978   -1.762709   -1.717360
     58          6           0        1.645637   -0.517254   -2.258041
     59          7           0       -0.507316   -1.361035   -1.801927
     60          6           0        1.327929   -2.107544   -0.297166
     61          6           0        1.125088   -2.970159   -2.636148
     62          7           0        0.748744    0.045701   -3.253314
     63          1           0        2.621744   -0.740039   -2.683426
     64          6           0        2.085302   -0.378707    4.800209
     65          6           0        1.178239   -1.631062    4.714813
     66          7           0        2.658558   -0.212253    3.492689
     67          6           0        3.264925   -0.690308    5.731564
     68          6           0        1.279741    0.801331    5.351057
     69          7           0       -0.000414   -1.351471    3.964984
     70          1           0        0.861551   -1.887129    5.730957
     71          1           0        0.961389    0.576129    6.365220
     72          6           0        2.889036    5.626269   -1.626898
     73          6           0        1.385070    5.950296   -1.437691
     74          7           0        3.110496    4.428745   -0.859627
     75          6           0        3.729413    6.731854   -0.977949
     76          6           0        3.194413    5.538756   -3.125804
     77          7           0        0.615954    4.788430   -1.748162
     78          1           0        1.111740    6.743528   -2.140346
     79          1           0        4.230637    5.251439   -3.294304
     80          6           0       -6.410332    1.809470    1.906605
     81          6           0       -6.464368    2.459326    0.487875
     82          7           0       -5.592830    0.640534    1.742766
     83          6           0       -7.813318    1.324081    2.282450
     84          6           0       -5.920608    2.852651    2.916579
     85          7           0       -5.137983    2.743034    0.043868
     86          1           0       -7.017781    3.397851    0.554520
     87          1           0       -1.605151   -3.167177   -1.536413
     88          1           0       -3.922797   -4.358073   -0.234645
     89          1           0       -4.008169   -1.927027   -1.811284
     90          1           0        0.897140   -0.407305   -4.147845
     91          1           0       -0.828745   -1.049633   -0.888823
     92          1           0       -1.235014   -0.543218   -3.605916
     93          1           0        4.360986   -2.574577   -1.769748
     94          1           0        6.207181   -1.347241    1.188030
     95          1           0        5.933936   -0.930150   -1.657227
     96          1           0       -3.023367   -5.553433   -2.381740
     97          1           0       -3.655808   -3.325721   -4.985667
     98          1           0       -2.900029   -2.138501   -3.915357
     99          1           0       -4.644472   -2.082311   -4.214005
    100          1           0        7.508565   -2.979732   -0.830232
    101          1           0        4.720348   -3.359976    1.698337
    102          1           0        5.363398   -4.965248    1.322764
    103          1           0        3.788535   -4.462702    0.689889
    104          1           0        1.771241    0.208802   -1.449129
    105          1           0        0.848298   -2.732768   -3.661480
    106          1           0        0.512790   -3.803847   -2.301803
    107          1           0        2.169106   -3.272114   -2.613533
    108          1           0        1.759382   -2.468555    4.295308
    109          1           0        1.889166    1.703030    5.369567
    110          1           0        0.394182    0.969351    4.744418
    111          1           0        1.203490    6.308125   -0.411825
    112          1           0        3.032506    6.511630   -3.582944
    113          1           0        2.531824    4.817729   -3.598044
    114          1           0       -6.986199    1.760316   -0.181727
    115          1           0       -6.107400   -3.971183   -3.366769
    116          1           0       -5.442664   -5.175987   -2.266429
    117          1           0       -5.034101   -5.235077   -3.988494
    118          1           0        4.649382   -5.094825   -1.607766
    119          1           0        6.271650   -5.445787   -1.004565
    120          1           0        6.051709   -4.257613   -2.291337
    121          1           0        0.815544   -3.007402    0.032850
    122          1           0        1.087804   -1.294449    0.386858
    123          1           0        2.402543   -2.275451   -0.266696
    124          1           0        2.909074   -0.942563    6.727066
    125          1           0        3.917982    0.176784    5.798999
    126          1           0        3.839594   -1.523409    5.335926
    127          1           0       -5.732509    2.386939    3.882563
    128          1           0       -6.684420    3.615432    3.042884
    129          1           0       -5.012492    3.332088    2.559984
    130          1           0       -8.114781    0.518769    1.618329
    131          1           0       -8.531717    2.136721    2.210728
    132          1           0       -7.808544    0.945162    3.301786
    133          1           0        3.463359    7.701857   -1.390519
    134          1           0        4.785801    6.547726   -1.159951
    135          1           0        3.562634    6.741198    0.095858
 ---------------------------------------------------------------------

 SCF Done:  E(RPBE1PBE) =  -2641.67040388     a.u. after    8 cycles
 SCF Done:  E(RPBE1PBE) =  -2641.67040455     A.U. after    7 cycles

 The electronic state is 1-A.
 Alpha  occ. eigenvalues --  -14.37691 -14.37501 -14.37451 -14.37345 -14.37341
 Alpha  occ. eigenvalues --  -14.37246 -14.37240 -14.37045 -14.36872 -14.36848
 Alpha  occ. eigenvalues --  -14.36159 -14.35390 -10.28409 -10.28299 -10.27055
 Alpha  occ. eigenvalues --  -10.26392 -10.26368 -10.26269 -10.26239 -10.26173
 Alpha  occ. eigenvalues --  -10.26082 -10.26081 -10.26016 -10.26006 -10.25962
 Alpha  occ. eigenvalues --  -10.25666 -10.25193 -10.24625 -10.24508 -10.24360
 Alpha  occ. eigenvalues --  -10.24168 -10.23864 -10.23803 -10.23751 -10.23692
 Alpha  occ. eigenvalues --  -10.23684 -10.23677 -10.23581 -10.23550 -10.23487
 Alpha  occ. eigenvalues --  -10.23467 -10.23458 -10.23292 -10.23203 -10.23056
 Alpha  occ. eigenvalues --  -10.23029 -10.22907 -10.22846 -10.22815 -10.22722
 Alpha  occ. eigenvalues --  -10.22396 -10.21895 -10.21081 -10.20826 -10.20801
 Alpha  occ. eigenvalues --  -10.20766 -10.20683 -10.20413 -10.20387 -10.20356
 Alpha  occ. eigenvalues --  -10.20348 -10.19835 -10.19732  -0.99886  -0.99529
 Alpha  occ. eigenvalues --   -0.98662  -0.97314  -0.97117  -0.97051  -0.94920
 Alpha  occ. eigenvalues --   -0.94565  -0.94051  -0.89835  -0.89457  -0.89188
 Alpha  occ. eigenvalues --   -0.88886  -0.88668  -0.87268  -0.83539  -0.83279
 Alpha  occ. eigenvalues --   -0.82935  -0.82140  -0.81768  -0.81052  -0.79798
 Alpha  occ. eigenvalues --   -0.78673  -0.78128  -0.77855  -0.77593  -0.77540
 Alpha  occ. eigenvalues --   -0.72043  -0.71865  -0.71825  -0.71393  -0.71286
 Alpha  occ. eigenvalues --   -0.71265  -0.71199  -0.71118  -0.71089  -0.70596
 Alpha  occ. eigenvalues --   -0.70072  -0.69528  -0.68026  -0.67401  -0.67334
 Alpha  occ. eigenvalues --   -0.66187  -0.65531  -0.65172  -0.64654  -0.63968
 Alpha  occ. eigenvalues --   -0.63150  -0.60581  -0.60256  -0.60155  -0.59073
 Alpha  occ. eigenvalues --   -0.58889  -0.58156  -0.57748  -0.57210  -0.56582
 Alpha  occ. eigenvalues --   -0.55564  -0.54196  -0.53875  -0.53624  -0.53575
 Alpha  occ. eigenvalues --   -0.53324  -0.52977  -0.52408  -0.51544  -0.51342
 Alpha  occ. eigenvalues --   -0.51030  -0.50874  -0.50565  -0.49958  -0.49507
 Alpha  occ. eigenvalues --   -0.49348  -0.48809  -0.48620  -0.48260  -0.48070
 Alpha  occ. eigenvalues --   -0.47871  -0.47671  -0.47525  -0.47343  -0.47068
 Alpha  occ. eigenvalues --   -0.46869  -0.46711  -0.46389  -0.46129  -0.46009
 Alpha  occ. eigenvalues --   -0.45721  -0.45379  -0.45092  -0.45013  -0.44838
 Alpha  occ. eigenvalues --   -0.44577  -0.43835  -0.43629  -0.43582  -0.42628
 Alpha  occ. eigenvalues --   -0.42518  -0.42424  -0.41843  -0.41727  -0.41502
 Alpha  occ. eigenvalues --   -0.41305  -0.41129  -0.40752  -0.40695  -0.40641
 Alpha  occ. eigenvalues --   -0.40502  -0.40338  -0.40304  -0.40046  -0.39856
 Alpha  occ. eigenvalues --   -0.39723  -0.39651  -0.39487  -0.39344  -0.39254
 Alpha  occ. eigenvalues --   -0.39178  -0.39050  -0.38899  -0.38493  -0.38407
 Alpha  occ. eigenvalues --   -0.38134  -0.37818  -0.37746  -0.37558  -0.37478
 Alpha  occ. eigenvalues --   -0.37363  -0.37087  -0.36856  -0.36755  -0.36288
 Alpha  occ. eigenvalues --   -0.36077  -0.35976  -0.35889  -0.35516  -0.35211
 Alpha  occ. eigenvalues --   -0.35097  -0.35028  -0.34803  -0.34530  -0.34324
 Alpha  occ. eigenvalues --   -0.34214  -0.34097  -0.33875  -0.33597  -0.33364
 Alpha  occ. eigenvalues --   -0.31629  -0.31168  -0.30820  -0.26938  -0.26762
 Alpha  occ. eigenvalues --   -0.26688  -0.26639  -0.26394  -0.26224  -0.26140
 Alpha  occ. eigenvalues --   -0.26020  -0.25955  -0.25693  -0.25483  -0.25380
 Alpha  occ. eigenvalues --   -0.25210  -0.25014  -0.24650  -0.24358  -0.24105
 Alpha  occ. eigenvalues --   -0.23195
 Alpha virt. eigenvalues --   -0.05649  -0.05347  -0.05034  -0.03926  -0.03760
 Alpha virt. eigenvalues --   -0.03618   0.01256   0.01793   0.01973   0.02306
 Alpha virt. eigenvalues --    0.03252   0.03800   0.04312   0.04671   0.04875

 Mulliken charges:
               1
     1  C    0.428869
     2  C   -0.151408
     3  C   -0.362568
     4  C    0.337532
     5  H    0.154584
     6  C   -0.352715
     7  C    0.340044
     8  H    0.113758
     9  C   -0.406648
    10  C   -0.174891
    11  H    0.100079
    12  C   -0.194152
    13  H    0.081620
    14  H    0.093204
    15  C    0.226799
    16  C   -0.006701
    17  C   -0.489856
    18  C    0.441590
    19  H    0.160413
    20  C   -0.360167
    21  C    0.380934
    22  H    0.134880
    23  C   -0.388458
    24  C   -0.173566
    25  H    0.144212
    26  C   -0.154365
    27  H    0.069453
    28  H    0.080681
    29  C    0.151503
    30  C    0.038157
    31  C   -0.310554
    32  C    0.381883
    33  H    0.195016
    34  C   -0.397929
    35  C    0.360147
    36  H    0.125011
    37  C   -0.296010
    38  C   -0.178400
    39  H    0.062446
    40  C   -0.190933
    41  H    0.080181
    42  H    0.068888
    43  C   -0.094711
    44  C    0.091358
    45  N   -0.237175
    46  H    0.129353
    47  N   -0.283529
    48  C   -0.415870
    49  C   -0.378089
    50  C   -0.116435
    51  C    0.104076
    52  N   -0.264702
    53  H    0.112308
    54  N   -0.228424
    55  C   -0.380301
    56  C   -0.430488
    57  C    0.063667
    58  C   -0.054816
    59  N   -0.338197
    60  C   -0.412622
    61  C   -0.382279
    62  N   -0.257892
    63  H    0.097129
    64  C    0.140335
    65  C   -0.080729
    66  N   -0.185662
    67  C   -0.344212
    68  C   -0.413019
    69  N   -0.183595
    70  H    0.114778
    71  H    0.122950
    72  C    0.181730
    73  C   -0.058216
    74  N   -0.185062
    75  C   -0.350167
    76  C   -0.436820
    77  N   -0.190598
    78  H    0.108672
    79  H    0.124796
    80  C    0.143926
    81  C   -0.059129
    82  N   -0.184053
    83  C   -0.351171
    84  C   -0.429003
    85  N   -0.197702
    86  H    0.109777
    87  H    0.171603
    88  H    0.078083
    89  H    0.157852
    90  H    0.189471
    91  H    0.223077
    92  H    0.085430
    93  H    0.197455
    94  H    0.199622
    95  H    0.074982
    96  H    0.092709
    97  H    0.124973
    98  H    0.123070
    99  H    0.132508
   100  H    0.076018
   101  H    0.114467
   102  H    0.117498
   103  H    0.125307
   104  H    0.072170
   105  H    0.099499
   106  H    0.145892
   107  H    0.098449
   108  H    0.075508
   109  H    0.128321
   110  H    0.146808
   111  H    0.074765
   112  H    0.123524
   113  H    0.154426
   114  H    0.085747
   115  H    0.115355
   116  H    0.121911
   117  H    0.110317
   118  H    0.134395
   119  H    0.126933
   120  H    0.122792
   121  H    0.107980
   122  H    0.135797
   123  H    0.160460
   124  H    0.113569
   125  H    0.123927
   126  H    0.123051
   127  H    0.131618
   128  H    0.125027
   129  H    0.147370
   130  H    0.130966
   131  H    0.111821
   132  H    0.120578
   133  H    0.113675
   134  H    0.120756
   135  H    0.129717
 Sum of Mulliken charges =   0.00000

 Dipole moment (field-independent basis, Debye):
    X=              2.7222    Y=             -1.0639    Z=             -1.3442  Tot=              3.2170
 Quadrupole moment (field-independent basis, Debye-Ang):
   XX=           -385.5255   YY=           -372.8131   ZZ=           -366.2304
   XY=            -17.2215   XZ=             -6.8206   YZ=              7.9744

 Normal termination of Gaussian 16 at Mon Oct 18 20:09:46 2021.
