 Gaussian 16, Revision C.01,
 Gaussian 16:  ES64L-G16RevC.01  3-Jul-2019

 ----------------------------------------------------------------------
 #P MP2/aug-cc-pVDZ SP SCF=(YQC,MaxCycle=900) int=(Grid=Superfinegrid)
 SCRF=(PCM,Solvent=Dichloromethane)
 ----------------------------------------------------------------------

 -----------------------------
 _3_alde1_5_ami2_2_opt_dcm_mp2
 -----------------------------
 Symbolic Z-matrix:
 Charge =  0 Multiplicity = 1

                         Standard orientation:
 ---------------------------------------------------------------------
 Center     Atomic      Atomic             Coordinates (Angstroms)
 Number     Number       Type             X           Y           Z
 ---------------------------------------------------------------------
      1          6           0       -3.722738    1.521424    1.575872
      2          6           0       -4.987054    1.895844    0.962304
      3          6           0       -2.617076    2.365433    1.537213
      4          6           0       -1.389969    1.949803    2.048639
      5          1           0       -2.709806    3.351715    1.113051
      6          6           0       -1.262833    0.658849    2.559139
      7          6           0       -2.361909   -0.193867    2.611021
      8          1           0       -0.302223    0.320106    2.924222
      9          6           0       -3.592503    0.256652    2.141320
     10          6           0       -2.218396   -1.569108    3.080281
     11          1           0       -4.434116   -0.414917    2.202749
     12          6           0       -0.255417    2.864180    2.057430
     13          1           0       -1.182546   -1.922585    3.149347
     14          1           0       -5.813256    1.185659    1.119205
     15          1           0        0.670626    2.491138    2.523185
     16          6           0        4.890111    0.604731    0.149066
     17          6           0        6.116295    0.663925    0.930860
     18          6           0        4.615994   -0.495842   -0.663184
     19          6           0        3.442554   -0.555491   -1.405648
     20          1           0        5.335342   -1.300129   -0.698883
     21          6           0        2.529422    0.498359   -1.330030
     22          6           0        2.798994    1.611128   -0.543033
     23          1           0        1.619675    0.432079   -1.907172
     24          6           0        3.982081    1.655475    0.195621
     25          6           0        1.880268    2.746646   -0.517900
     26          1           0        4.173767    2.530897    0.797177
     27          6           0        3.186449   -1.707411   -2.256794
     28          1           0        0.946534    2.610594   -1.076956
     29          1           0        6.255867    1.573885    1.535121
     30          1           0        3.993839   -2.455265   -2.299640
     31          6           0       -3.795963   -0.347203   -1.866223
     32          6           0       -4.370597    0.948353   -2.212222
     33          6           0       -4.384148   -1.139472   -0.883509
     34          6           0       -3.764496   -2.304700   -0.442588
     35          1           0       -5.312323   -0.802924   -0.448970
     36          6           0       -2.576039   -2.713169   -1.041445
     37          6           0       -1.992124   -1.951536   -2.048505
     38          1           0       -2.090687   -3.615552   -0.708511
     39          6           0       -2.594654   -0.757010   -2.437717
     40          6           0       -0.732241   -2.369133   -2.656076
     41          1           0       -2.124277   -0.142353   -3.193844
     42          6           0       -4.292492   -2.995368    0.723240
     43          1           0       -0.250461   -1.626889   -3.300066
     44          1           0       -5.248964   -2.611047    1.110565
     45          6           0       -6.076626    2.599446   -1.957909
     46          6           0       -6.332685    3.078071   -0.494740
     47          7           0       -5.514294    1.285013   -1.806241
     48          7           0       -5.120673    2.924209    0.242646
     49          6           0        9.392994   -0.250989    0.714235
     50          6           0        8.165080   -0.177060    1.670131
     51          7           0        9.345592   -1.423177   -0.141910
     52          7           0        6.959850   -0.274367    0.919351
     53          6           0        0.739858    4.928896    1.589762
     54          6           0        1.403254    4.984745    0.184282
     55          7           0       -0.360819    4.028226    1.583154
     56          7           0        2.207225    3.799269    0.092704
     57          6           0       -3.192257   -3.672726    3.665106
     58          6           0       -4.105111   -4.343705    2.592480
     59          7           0       -3.230269   -2.272485    3.338980
     60          7           0       -3.654622   -3.912451    1.310415
     61          6           0        1.875740   -2.995621   -3.690875
     62          6           0        0.971802   -4.017362   -2.935767
     63          7           0        2.113496   -1.829171   -2.911613
     64          7           0       -0.259994   -3.511145   -2.416141
     65          1           0        9.348601   -2.268634    0.418996
     66          1           0        8.482705   -1.413325   -0.675273
     67          1           0       -3.711095    1.594535   -2.804216
     68          6           0       10.670573   -0.315751    1.551837
     69          6           0        9.415436    0.987700   -0.183564
     70          6           0       -5.207727    3.633916   -2.678615
     71          6           0       -7.420959    2.440655   -2.675431
     72          1           0       -7.155358    2.479205   -0.074802
     73          1           0       -6.609102    4.133806   -0.509269
     74          1           0        2.805459   -3.522233   -3.959903
     75          1           0        1.363352   -2.686066   -4.606930
     76          6           0        1.730792   -4.594795   -1.734009
     77          6           0        0.611093   -5.152090   -3.904984
     78          1           0        1.517170    4.652891    2.319903
     79          1           0        0.347338    5.921379    1.824355
     80          1           0       -5.148663   -4.052724    2.790689
     81          1           0       -4.000564   -5.427956    2.664097
     82          6           0       -3.836421   -3.836593    5.045801
     83          6           0       -1.813516   -4.337924    3.637958
     84          6           0        2.387711    6.159869    0.149934
     85          6           0        0.333061    5.160934   -0.896999
     86          1           0       -4.291124    3.805966   -2.119659
     87          1           0       -5.751345    4.572208   -2.751044
     88          1           0       -4.965735    3.300779   -3.686404
     89          1           0       -8.000378    1.649020   -2.207939
     90          1           0       -7.253641    2.175305   -3.717026
     91          1           0       -7.984499    3.369213   -2.633401
     92          1           0       -1.141616   -3.865224    4.352137
     93          1           0       -1.389338   -4.273068    2.638942
     94          1           0       -1.913631   -5.386137    3.906884
     95          1           0       -4.016015   -4.887681    5.256486
     96          1           0       -4.779661   -3.298088    5.082293
     97          1           0       -3.178197   -3.429975    5.810446
     98          1           0        0.786658    5.090000   -1.884163
     99          1           0       -0.128478    6.138560   -0.790800
    100          1           0       -0.444147    4.407938   -0.797551
    101          1           0        1.870112    7.099610    0.322009
    102          1           0        2.876292    6.198260   -0.820731
    103          1           0        3.149946    6.026496    0.912674
    104          1           0       -0.017671   -5.875743   -3.393885
    105          1           0        1.510342   -5.648279   -4.260961
    106          1           0        0.061818   -4.759903   -4.758181
    107          1           0        2.016418   -3.796637   -1.051850
    108          1           0        2.623575   -5.121842   -2.062050
    109          1           0        1.083218   -5.285103   -1.201291
    110          1           0        9.530671    1.890641    0.410746
    111          1           0        8.490558    1.057930   -0.752225
    112          1           0       10.245084    0.912265   -0.880440
    113          1           0       10.661194   -1.190611    2.198910
    114          1           0       10.771054    0.572471    2.169951
    115          1           0       11.529717   -0.386546    0.890731
    116          1           0        8.220039    0.743000    2.276030
    117          1           0        8.201839   -1.044210    2.339138
 ---------------------------------------------------------------------

 SCF Done:  E(RHF) =  -2359.41309086     a.u. after    7 cycles
 SCF Done:  E(RHF) =  -2359.41314298     A.U. after   19 cycles
 E2 =    -0.8340858723D+01 EUMP2 =    -0.23677540017005D+04

 The electronic state is 1-A.
 Alpha  occ. eigenvalues --  -15.56405 -15.56276 -15.55966 -15.55936 -15.55812
 Alpha  occ. eigenvalues --  -15.55768 -15.55738 -15.55695 -15.55489 -15.54120
 Alpha  occ. eigenvalues --  -11.28965 -11.28924 -11.28761 -11.28741 -11.28470
 Alpha  occ. eigenvalues --  -11.28462 -11.28413 -11.28376 -11.28034 -11.26813
 Alpha  occ. eigenvalues --  -11.26796 -11.26795 -11.26782 -11.26247 -11.25681
 Alpha  occ. eigenvalues --  -11.25524 -11.25490 -11.25484 -11.25481 -11.25393
 Alpha  occ. eigenvalues --  -11.25368 -11.25297 -11.25255 -11.25197 -11.25172
 Alpha  occ. eigenvalues --  -11.25163 -11.25150 -11.25111 -11.25066 -11.25058
 Alpha  occ. eigenvalues --  -11.24968 -11.24922 -11.24881 -11.24827 -11.24781
 Alpha  occ. eigenvalues --  -11.24746 -11.24516 -11.21670 -11.21647 -11.21632
 Alpha  occ. eigenvalues --  -11.21439 -11.21411 -11.21407 -11.21350 -11.21308
 Alpha  occ. eigenvalues --  -11.21301 -11.21109  -1.26656  -1.26450  -1.26423
 Alpha  occ. eigenvalues --   -1.26315  -1.25486  -1.23777  -1.23714  -1.23192
 Alpha  occ. eigenvalues --   -1.22868  -1.19338  -1.17662  -1.17100  -1.16703
 Alpha  occ. eigenvalues --   -1.09381  -1.09033  -1.08919  -1.07195  -1.06122
 Alpha  occ. eigenvalues --   -1.05766  -1.04986  -1.03603  -1.03078  -1.02410
 Alpha  occ. eigenvalues --   -1.02258  -0.95587  -0.94952  -0.94836  -0.94563
 Alpha  occ. eigenvalues --   -0.94528  -0.93994  -0.93953  -0.93929  -0.93628
 Alpha  occ. eigenvalues --   -0.93555  -0.90173  -0.89762  -0.89475  -0.88035
 Alpha  occ. eigenvalues --   -0.86826  -0.86259  -0.85590  -0.84435  -0.83740
 Alpha  occ. eigenvalues --   -0.80308  -0.79468  -0.77723  -0.76689  -0.75934
 Alpha  occ. eigenvalues --   -0.75863  -0.75007  -0.74355  -0.72915  -0.72850
 Alpha  occ. eigenvalues --   -0.72345  -0.71161  -0.70435  -0.69937  -0.69056
 Alpha  occ. eigenvalues --   -0.68241  -0.67585  -0.67191  -0.66658  -0.66252
 Alpha  occ. eigenvalues --   -0.66124  -0.65914  -0.65521  -0.65028  -0.64542
 Alpha  occ. eigenvalues --   -0.64309  -0.63970  -0.63208  -0.63079  -0.62687
 Alpha  occ. eigenvalues --   -0.62538  -0.62394  -0.62192  -0.61804  -0.61726
 Alpha  occ. eigenvalues --   -0.61121  -0.60441  -0.60331  -0.59972  -0.59826
 Alpha  occ. eigenvalues --   -0.59668  -0.59132  -0.57751  -0.56708  -0.56322
 Alpha  occ. eigenvalues --   -0.56092  -0.55908  -0.55355  -0.55121  -0.55073
 Alpha  occ. eigenvalues --   -0.55013  -0.54590  -0.54385  -0.53945  -0.53613
 Alpha  occ. eigenvalues --   -0.53512  -0.53470  -0.53428  -0.53280  -0.53217
 Alpha  occ. eigenvalues --   -0.53026  -0.52856  -0.52730  -0.52428  -0.52000
 Alpha  occ. eigenvalues --   -0.51774  -0.51498  -0.51113  -0.51050  -0.50907
 Alpha  occ. eigenvalues --   -0.50384  -0.50080  -0.49677  -0.49519  -0.49472
 Alpha  occ. eigenvalues --   -0.48939  -0.48662  -0.48289  -0.48235  -0.47783
 Alpha  occ. eigenvalues --   -0.46864  -0.46226  -0.45599  -0.45047  -0.44799
 Alpha  occ. eigenvalues --   -0.44365  -0.44004  -0.41925  -0.41017  -0.40871
 Alpha  occ. eigenvalues --   -0.40594  -0.40321  -0.40116  -0.39699  -0.39566
 Alpha  occ. eigenvalues --   -0.39519  -0.39225  -0.39114  -0.38675  -0.37730
 Alpha  occ. eigenvalues --   -0.33131  -0.32545  -0.32492  -0.32372  -0.31814
 Alpha  occ. eigenvalues --   -0.31502
 Alpha virt. eigenvalues --    0.03194   0.03461   0.03520   0.03601   0.04002
 Alpha virt. eigenvalues --    0.04123   0.04329   0.04358   0.04464   0.04610
 Alpha virt. eigenvalues --    0.04900   0.05163   0.05241   0.05337   0.05428

 Mulliken charges:
               1
     1  C    1.567930
     2  C    0.505409
     3  C   -0.533299
     4  C    1.393576
     5  H   -1.089164
     6  C    0.609321
     7  C    0.485488
     8  H   -0.798948
     9  C    0.620981
    10  C    0.386923
    11  H   -1.077831
    12  C    0.848014
    13  H   -0.971606
    14  H   -0.652809
    15  H   -0.720299
    16  C    1.032605
    17  C    0.658333
    18  C   -0.138087
    19  C    0.813310
    20  H   -0.925349
    21  C    0.110704
    22  C    0.943653
    23  H   -0.787748
    24  C    0.220513
    25  C    0.625473
    26  H   -0.967324
    27  C    0.677232
    28  H   -0.905623
    29  H   -0.683446
    30  H   -0.659225
    31  C    0.825741
    32  C    0.091809
    33  C    0.323292
    34  C    1.563379
    35  H   -1.059645
    36  C    0.120732
    37  C    0.710814
    38  H   -1.097283
    39  C    1.067196
    40  C    0.504066
    41  H   -0.725648
    42  C    0.481350
    43  H   -1.036068
    44  H   -0.617269
    45  C   -3.285880
    46  C    1.207632
    47  N   -0.026032
    48  N   -0.643227
    49  C   -3.637785
    50  C    1.666133
    51  N   -0.078068
    52  N   -0.496690
    53  C    1.421196
    54  C   -3.635455
    55  N   -0.535865
    56  N   -0.218243
    57  C   -3.271051
    58  C    1.271277
    59  N    0.032360
    60  N   -0.605487
    61  C    1.894077
    62  C   -3.822458
    63  N   -0.494545
    64  N    0.155941
    65  H    0.001467
    66  H    0.023187
    67  H   -0.976596
    68  C    1.447424
    69  C    1.453857
    70  C    1.491985
    71  C    1.547258
    72  H   -0.145129
    73  H   -0.288646
    74  H   -0.214290
    75  H   -0.147500
    76  C    1.365822
    77  C    1.545025
    78  H   -0.152925
    79  H   -0.250321
    80  H   -0.142625
    81  H   -0.275474
    82  C    1.519130
    83  C    1.533041
    84  C    1.698936
    85  C    1.556043
    86  H    0.042418
    87  H   -0.174322
    88  H    0.045632
    89  H   -0.069265
    90  H   -0.054640
    91  H    0.010877
    92  H    0.054503
    93  H    0.054200
    94  H   -0.176464
    95  H    0.013049
    96  H   -0.070953
    97  H   -0.056293
    98  H    0.033132
    99  H   -0.153077
   100  H    0.097013
   101  H   -0.069535
   102  H   -0.030812
   103  H   -0.012687
   104  H   -0.012094
   105  H   -0.002546
   106  H   -0.090222
   107  H   -0.051403
   108  H   -0.014263
   109  H   -0.079743
   110  H   -0.004311
   111  H   -0.012101
   112  H   -0.039518
   113  H   -0.047156
   114  H    0.008009
   115  H    0.038019
   116  H   -0.144745
   117  H   -0.259374
 Sum of Mulliken charges =   0.00000

 Dipole moment (field-independent basis, Debye):
    X=              1.4441    Y=              0.7413    Z=              0.7199  Tot=              1.7757
 Quadrupole moment (field-independent basis, Debye-Ang):
   XX=           -358.8626   YY=           -348.0248   ZZ=           -331.9054
   XY=             -1.2904   XZ=             17.2049   YZ=             -9.8235

 Normal termination of Gaussian 16 at Sat Nov  6 06:48:31 2021.
