 Gaussian 16, Revision C.01,
 Gaussian 16:  ES64L-G16RevC.01  3-Jul-2019

 ---------------------------------------------------------------------
 #P MP2/aug-cc-pVDZ SP SCF=(YQC,MaxCycle=900) int=(Grid=Superfinegrid)
 ---------------------------------------------------------------------

 -----------------------------
 _3_alde1_5_ami4_1_opt_gas_mp2
 -----------------------------
 Symbolic Z-matrix:
 Charge =  0 Multiplicity = 1

                         Standard orientation:
 ---------------------------------------------------------------------
 Center     Atomic      Atomic             Coordinates (Angstroms)
 Number     Number       Type             X           Y           Z
 ---------------------------------------------------------------------
      1          6           0       -3.628169    0.731694    0.920461
      2          6           0       -4.725921   -0.205862    0.741725
      3          6           0       -3.464524    1.828222    0.074437
      4          6           0       -2.372433    2.674959    0.223261
      5          1           0       -4.206531    2.003528   -0.689418
      6          6           0       -1.406112    2.386315    1.185809
      7          6           0       -1.537809    1.276481    2.011883
      8          1           0       -0.545865    3.032935    1.258690
      9          6           0       -2.671719    0.474360    1.896263
     10          6           0       -0.455950    0.895617    2.907566
     11          1           0       -2.767891   -0.372786    2.557233
     12          6           0       -2.179996    3.812769   -0.668722
     13          1           0        0.502416    1.407481    2.730081
     14          1           0       -4.812195   -0.980260    1.518384
     15          1           0       -2.681365    3.746678   -1.646756
     16          6           0        2.946338    0.853174    0.426078
     17          6           0        3.490341    0.158061    1.646917
     18          6           0        2.951591    0.198253   -0.794403
     19          6           0        2.443572    0.814754   -1.937577
     20          1           0        3.327773   -0.809291   -0.862952
     21          6           0        1.940648    2.106951   -1.849319
     22          6           0        1.964971    2.790687   -0.636838
     23          1           0        1.535068    2.610435   -2.713416
     24          6           0        2.464189    2.151316    0.497601
     25          6           0        1.438646    4.141915   -0.531796
     26          1           0        2.480031    2.676669    1.443123
     27          6           0        2.396802    0.093304   -3.201474
     28          1           0        1.467732    4.584977    0.476384
     29          1           0        1.695591    0.491651   -3.951958
     30          6           0       -2.083128   -2.667242   -1.001532
     31          6           0       -3.424032   -2.499710   -1.546166
     32          6           0       -1.880275   -2.636960    0.377096
     33          6           0       -0.595545   -2.662179    0.911087
     34          1           0       -2.745761   -2.561011    1.016347
     35          6           0        0.496969   -2.781436    0.052571
     36          6           0        0.304935   -2.868178   -1.322896
     37          1           0        1.492635   -2.798663    0.467169
     38          6           0       -0.985180   -2.784477   -1.846204
     39          6           0        1.457540   -3.018387   -2.198099
     40          1           0       -1.106742   -2.822451   -2.918094
     41          6           0       -0.438404   -2.516385    2.349137
     42          1           0        2.428015   -3.086756   -1.687373
     43          1           0       -1.367535   -2.607625    2.928929
     44          6           0       -5.741986   -2.300139   -1.370336
     45          6           0       -6.406136   -1.266191   -0.433102
     46          7           0       -4.457852   -2.620411   -0.834835
     47          1           0       -5.682913   -1.895273   -2.392893
     48          7           0       -5.495215   -0.176891   -0.258912
     49          1           0       -6.644072   -1.764225    0.518892
     50          6           0        5.326380   -0.833366    2.580294
     51          6           0        4.336393   -1.966783    2.235696
     52          7           0        4.938429    0.280334    1.728406
     53          1           0        6.368761   -1.104756    2.424646
     54          7           0        3.209942   -1.280668    1.610588
     55          1           0        4.047104   -2.540185    3.120491
     56          6           0       -1.178644    5.835259   -1.270369
     57          6           0        0.350776    6.039163   -1.289522
     58          7           0       -1.464912    4.794320   -0.336245
     59          1           0       -1.543398    5.604503   -2.283499
     60          7           0        0.966961    4.769735   -1.520127
     61          1           0        0.656487    6.480629   -0.327940
     62          6           0        0.542045   -0.458994    4.522715
     63          6           0        0.648540   -1.986839    4.320516
     64          7           0       -0.589938    0.001633    3.786496
     65          1           0        1.478683    0.029418    4.207709
     66          7           0        0.664269   -2.263769    2.914145
     67          1           0       -0.207150   -2.460981    4.822062
     68          6           0        2.940669   -1.672171   -4.622153
     69          6           0        2.553846   -3.114878   -4.233122
     70          7           0        3.106440   -0.925688   -3.417965
     71          1           0        2.169925   -1.245858   -5.284512
     72          7           0        1.353603   -3.070358   -3.455824
     73          1           0        3.393681   -3.555914   -3.676137
     74          1           0       -3.471376   -2.227814   -2.612024
     75          1           0        2.319209   -1.511821    2.044885
     76          1           0        3.079219    0.638182    2.556806
     77          1           0        5.324579    0.149182    0.796788
     78          1           0       -6.355936   -3.205433   -1.374608
     79          1           0       -7.320269   -0.893687   -0.899449
     80          1           0        5.194396   -0.519022    3.620712
     81          1           0        4.778804   -2.658683    1.507832
     82          1           0       -1.647377    6.759940   -0.920596
     83          1           0        0.613237    6.712491   -2.108464
     84          1           0        0.374660   -0.263745    5.585676
     85          1           0        1.581847   -2.344336    4.761344
     86          1           0        3.898434   -1.702348   -5.149195
     87          1           0        2.360628   -3.691912   -5.139864
 ---------------------------------------------------------------------

 SCF Done:  E(RHF) =  -1969.01087852     a.u. after    6 cycles
 SCF Done:  E(RHF) =  -1969.01105373     A.U. after   20 cycles
 E2 =    -0.6823484948D+01 EUMP2 =    -0.19758345386753D+04

 The electronic state is 1-A.
 Alpha  occ. eigenvalues --  -15.56596 -15.56498 -15.56262 -15.56223 -15.55803
 Alpha  occ. eigenvalues --  -15.55734 -15.55552 -15.55441 -15.55064 -15.52883
 Alpha  occ. eigenvalues --  -11.29408 -11.29164 -11.28800 -11.28674 -11.28630
 Alpha  occ. eigenvalues --  -11.28464 -11.28218 -11.28190 -11.28040 -11.26691
 Alpha  occ. eigenvalues --  -11.26523 -11.26080 -11.25922 -11.25761 -11.25625
 Alpha  occ. eigenvalues --  -11.25564 -11.25388 -11.25344 -11.25294 -11.25265
 Alpha  occ. eigenvalues --  -11.25217 -11.25211 -11.25142 -11.25111 -11.24991
 Alpha  occ. eigenvalues --  -11.24986 -11.24959 -11.24915 -11.24903 -11.24687
 Alpha  occ. eigenvalues --  -11.24645 -11.24640 -11.24349 -11.24254 -11.24068
 Alpha  occ. eigenvalues --  -11.23948 -11.23539  -1.27295  -1.26868  -1.26278
 Alpha  occ. eigenvalues --   -1.26059  -1.25809  -1.23928  -1.23217  -1.23120
 Alpha  occ. eigenvalues --   -1.22734  -1.17455  -1.16701  -1.16334  -1.13448
 Alpha  occ. eigenvalues --   -1.07725  -1.07170  -1.06935  -1.05696  -1.05466
 Alpha  occ. eigenvalues --   -1.04966  -1.01773  -1.00123  -0.99647  -0.99466
 Alpha  occ. eigenvalues --   -0.97648  -0.91814  -0.91386  -0.91199  -0.91050
 Alpha  occ. eigenvalues --   -0.87872  -0.87383  -0.86676  -0.85597  -0.83690
 Alpha  occ. eigenvalues --   -0.83187  -0.82562  -0.82023  -0.80557  -0.80097
 Alpha  occ. eigenvalues --   -0.77318  -0.75601  -0.75419  -0.74647  -0.74446
 Alpha  occ. eigenvalues --   -0.74139  -0.71286  -0.70960  -0.70481  -0.69411
 Alpha  occ. eigenvalues --   -0.69134  -0.68210  -0.67649  -0.67165  -0.67079
 Alpha  occ. eigenvalues --   -0.66669  -0.66560  -0.65813  -0.65271  -0.64991
 Alpha  occ. eigenvalues --   -0.64800  -0.63645  -0.62422  -0.62106  -0.61976
 Alpha  occ. eigenvalues --   -0.61647  -0.61438  -0.61427  -0.60615  -0.60142
 Alpha  occ. eigenvalues --   -0.59932  -0.59396  -0.58657  -0.58565  -0.58243
 Alpha  occ. eigenvalues --   -0.57872  -0.55425  -0.55149  -0.54934  -0.54857
 Alpha  occ. eigenvalues --   -0.54604  -0.54009  -0.53847  -0.53620  -0.53385
 Alpha  occ. eigenvalues --   -0.53012  -0.52866  -0.52703  -0.52354  -0.51496
 Alpha  occ. eigenvalues --   -0.50626  -0.50340  -0.49943  -0.49799  -0.49583
 Alpha  occ. eigenvalues --   -0.48984  -0.48078  -0.46022  -0.45578  -0.45285
 Alpha  occ. eigenvalues --   -0.45122  -0.44885  -0.41635  -0.41521  -0.41340
 Alpha  occ. eigenvalues --   -0.40804  -0.40630  -0.40534  -0.40423  -0.40256
 Alpha  occ. eigenvalues --   -0.39815  -0.39732  -0.39649  -0.38583  -0.35989
 Alpha  occ. eigenvalues --   -0.32879  -0.32625  -0.32472  -0.32343  -0.31899
 Alpha  occ. eigenvalues --   -0.31315
 Alpha virt. eigenvalues --    0.02982   0.03351   0.03695   0.03766   0.04163
 Alpha virt. eigenvalues --    0.04184   0.04307   0.04797   0.04899   0.05218
 Alpha virt. eigenvalues --    0.05418   0.05533   0.05606   0.05808   0.05898

 Mulliken charges:
               1
     1  C    0.687172
     2  C    0.792972
     3  C    0.594054
     4  C    0.770917
     5  H   -0.883538
     6  C    0.633465
     7  C    1.242919
     8  H   -0.829166
     9  C    0.255797
    10  C    0.967131
    11  H   -1.066628
    12  C    0.567187
    13  H   -0.815981
    14  H   -0.649012
    15  H   -0.639032
    16  C    1.594248
    17  C    1.030047
    18  C    0.355376
    19  C    0.868303
    20  H   -1.290706
    21  C    0.342823
    22  C    0.729638
    23  H   -0.946556
    24  C   -0.010628
    25  C    1.039313
    26  H   -0.981392
    27  C    0.731535
    28  H   -0.650769
    29  H   -0.683015
    30  C    1.017086
    31  C    0.674334
    32  C   -0.002879
    33  C    1.396386
    34  H   -1.018111
    35  C    0.667538
    36  C    0.889153
    37  H   -0.802454
    38  C    0.191577
    39  C    1.006273
    40  H   -0.883593
    41  C    0.117293
    42  H   -0.760738
    43  H   -0.704953
    44  C    0.721644
    45  C    0.582705
    46  N   -0.658666
    47  H   -0.126563
    48  N   -0.809348
    49  H   -0.098869
    50  C    0.832154
    51  C    0.873967
    52  N   -0.698651
    53  H   -0.244960
    54  N   -0.075379
    55  H   -0.241191
    56  C    0.742573
    57  C    0.579213
    58  N   -0.683019
    59  H   -0.129981
    60  N   -0.816978
    61  H   -0.100694
    62  C    0.991357
    63  C    0.716940
    64  N   -0.769443
    65  H   -0.197252
    66  N   -0.508873
    67  H   -0.184286
    68  C    0.682676
    69  C    0.586734
    70  N   -0.737830
    71  H   -0.123425
    72  N   -0.829618
    73  H   -0.108507
    74  H   -0.703474
    75  H   -0.546785
    76  H   -0.518742
    77  H    0.068505
    78  H   -0.250739
    79  H   -0.324733
    80  H   -0.281669
    81  H   -0.351101
    82  H   -0.247570
    83  H   -0.320993
    84  H   -0.310315
    85  H   -0.317306
    86  H   -0.263630
    87  H   -0.341265
 Sum of Mulliken charges =   0.00000

 Dipole moment (field-independent basis, Debye):
    X=             -0.7738    Y=             -0.6543    Z=              0.7193  Tot=              1.2427
 Quadrupole moment (field-independent basis, Debye-Ang):
   XX=           -278.2071   YY=           -279.2512   ZZ=           -263.7477
   XY=             -4.0639   XZ=              8.6844   YZ=             -6.3120

 Normal termination of Gaussian 16 at Sat Nov  6 05:20:03 2021.
