 Gaussian 16, Revision C.01,
 Gaussian 16:  ES64L-G16RevC.01  3-Jul-2019

 ----------------------------------------------------------------------
 #P PBE1PBE/Def2TZVP SP SCF=(YQC,MaxCycle=900) int=(Grid=Superfinegrid)
  EmpiricalDispersion=GD3 SCRF=(PCM,Solvent=Chloroform)
 ----------------------------------------------------------------------

 -------------------------
 _3_alde1_4_ami4_1_opt_cfm
 -------------------------
 Symbolic Z-matrix:
 Charge =  0 Multiplicity = 1

                         Standard orientation:
 ---------------------------------------------------------------------
 Center     Atomic      Atomic             Coordinates (Angstroms)
 Number     Number       Type             X           Y           Z
 ---------------------------------------------------------------------
      1          6           0       -2.656466    1.849698   -0.908834
      2          6           0       -3.567600    1.260516   -1.881684
      3          6           0       -1.642601    2.709427   -1.314370
      4          6           0       -0.730839    3.215564   -0.387433
      5          1           0       -1.545850    3.012400   -2.345795
      6          6           0       -0.808995    2.810519    0.941141
      7          6           0       -1.816586    1.944205    1.360674
      8          1           0       -0.095249    3.158292    1.672402
      9          6           0       -2.752135    1.494494    0.436053
     10          6           0       -1.883075    1.463964    2.732820
     11          1           0       -3.553781    0.837169    0.733341
     12          6           0        0.318765    4.134331   -0.798676
     13          1           0       -2.809024    0.933399    2.997891
     14          1           0       -3.245926    1.322550   -2.932970
     15          1           0        0.960483    4.509070    0.012927
     16          6           0        2.901516    0.637050    1.457922
     17          6           0        2.653931    1.013652    2.855898
     18          6           0        3.184970   -0.691988    1.143016
     19          6           0        3.380004   -1.082575   -0.176846
     20          1           0        3.252146   -1.410861    1.947741
     21          6           0        3.279929   -0.127138   -1.187805
     22          6           0        3.026251    1.206762   -0.885711
     23          1           0        3.418905   -0.449660   -2.208549
     24          6           0        2.840997    1.585134    0.443052
     25          6           0        2.908027    2.193201   -1.953102
     26          1           0        2.640651    2.621631    0.663610
     27          6           0        3.641971   -2.480521   -0.485669
     28          1           0        2.712988    1.788042   -2.957800
     29          1           0        2.443758    2.088314    3.005186
     30          1           0        3.686865   -3.154913    0.382168
     31          6           0       -2.583468   -2.300801   -0.117145
     32          6           0       -3.941021   -1.938156   -0.493826
     33          6           0       -2.108622   -1.945885    1.140364
     34          6           0       -0.778194   -2.170516    1.491689
     35          1           0       -2.748382   -1.456477    1.857903
     36          6           0        0.058113   -2.819450    0.590875
     37          6           0       -0.408465   -3.199489   -0.667336
     38          1           0        1.088335   -3.021537    0.838604
     39          6           0       -1.721127   -2.914298   -1.025100
     40          6           0        0.501063   -3.808820   -1.629083
     41          1           0       -2.099127   -3.163681   -2.004732
     42          6           0       -0.245978   -1.630583    2.735892
     43          1           0        0.201425   -3.725473   -2.685590
     44          1           0        0.848785   -1.648566    2.832877
     45          6           0       -5.644595   -1.451205   -1.975822
     46          6           0       -5.426462   -0.012303   -2.494909
     47          7           0       -4.363352   -2.015448   -1.681256
     48          7           0       -4.633959    0.685321   -1.534411
     49          8           0        2.659252    0.245494    3.785669
     50          6           0        1.625374    5.295168   -2.313937
     51          6           0        2.773634    4.371129   -2.772602
     52          7           0        0.491490    4.481142   -2.000293
     53          7           0        3.014323    3.428261   -1.729463
     54          6           0       -1.055815    0.959908    4.827498
     55          6           0       -0.417589   -0.444650    4.737758
     56          7           0       -0.935488    1.606805    3.555228
     57          7           0       -0.990055   -1.118038    3.615439
     58          6           0        3.897790   -4.310907   -1.870879
     59          6           0        2.499091   -4.844353   -2.249428
     60          7           0        3.792979   -2.899457   -1.666669
     61          7           0        1.570268   -4.372045   -1.272932
     62          1           0       -4.566371   -1.545508    0.321509
     63          1           0       -0.678102   -0.995731    5.646136
     64          1           0        0.675777   -0.358821    4.665298
     65          1           0       -2.107911    0.843522    5.127852
     66          1           0       -0.516545    1.548439    5.571843
     67          1           0        1.974306    5.874970   -1.446261
     68          1           0        1.358398    5.968019   -3.131338
     69          1           0        3.673055    4.977874   -2.907983
     70          1           0        2.506805    3.889074   -3.726314
     71          1           0        2.524807   -5.937401   -2.210813
     72          1           0        2.235082   -4.525625   -3.269999
     73          1           0        4.236752   -4.835365   -0.964935
     74          1           0        4.590789   -4.498655   -2.693409
     75          1           0       -6.401175    0.478749   -2.568596
     76          1           0       -4.956197   -0.039129   -3.490558
     77          1           0       -6.123034   -2.046119   -2.756310
     78          1           0       -6.291651   -1.404238   -1.086922
 ---------------------------------------------------------------------

 SCF Done:  E(RPBE1PBE) =  -1865.87544344     a.u. after    8 cycles
 SCF Done:  E(RPBE1PBE) =  -1865.87544558     A.U. after    8 cycles

 The electronic state is 1-A.
 Alpha  occ. eigenvalues --  -19.21355 -14.38555 -14.38236 -14.38196 -14.38170
 Alpha  occ. eigenvalues --  -14.37902 -14.37838 -14.37775 -14.37640 -10.31764
 Alpha  occ. eigenvalues --  -10.27338 -10.27012 -10.26985 -10.26963 -10.26743
 Alpha  occ. eigenvalues --  -10.26613 -10.26609 -10.26441 -10.25377 -10.25345
 Alpha  occ. eigenvalues --  -10.25303 -10.25291 -10.25289 -10.25185 -10.25180
 Alpha  occ. eigenvalues --  -10.25110 -10.25061 -10.25005 -10.24998 -10.24852
 Alpha  occ. eigenvalues --  -10.24543 -10.24529 -10.24509 -10.24498 -10.24443
 Alpha  occ. eigenvalues --  -10.24429 -10.24426 -10.24369 -10.24071 -10.24056
 Alpha  occ. eigenvalues --  -10.24028 -10.24016 -10.24007 -10.23966  -1.09083
 Alpha  occ. eigenvalues --   -0.98064  -0.97931  -0.97748  -0.97391  -0.95477
 Alpha  occ. eigenvalues --   -0.95419  -0.95057  -0.94735  -0.91154  -0.90316
 Alpha  occ. eigenvalues --   -0.89787  -0.82768  -0.82486  -0.82415  -0.81501
 Alpha  occ. eigenvalues --   -0.80804  -0.80538  -0.77933  -0.76554  -0.76453
 Alpha  occ. eigenvalues --   -0.75784  -0.70258  -0.70190  -0.69835  -0.69622
 Alpha  occ. eigenvalues --   -0.68812  -0.66724  -0.66670  -0.66191  -0.64023
 Alpha  occ. eigenvalues --   -0.63178  -0.62894  -0.61765  -0.60634  -0.57622
 Alpha  occ. eigenvalues --   -0.57027  -0.56777  -0.56700  -0.56067  -0.55654
 Alpha  occ. eigenvalues --   -0.54783  -0.54108  -0.54037  -0.52878  -0.52587
 Alpha  occ. eigenvalues --   -0.52015  -0.50981  -0.50821  -0.50597  -0.50462
 Alpha  occ. eigenvalues --   -0.49806  -0.49592  -0.49513  -0.48787  -0.47818
 Alpha  occ. eigenvalues --   -0.47549  -0.47223  -0.46936  -0.46749  -0.46599
 Alpha  occ. eigenvalues --   -0.46495  -0.46153  -0.45603  -0.45350  -0.44888
 Alpha  occ. eigenvalues --   -0.44482  -0.44310  -0.44089  -0.43978  -0.42147
 Alpha  occ. eigenvalues --   -0.41850  -0.41345  -0.41035  -0.40842  -0.40573
 Alpha  occ. eigenvalues --   -0.40253  -0.39830  -0.39672  -0.39448  -0.38707
 Alpha  occ. eigenvalues --   -0.38209  -0.37583  -0.37139  -0.36886  -0.36703
 Alpha  occ. eigenvalues --   -0.36431  -0.35541  -0.35482  -0.35343  -0.35132
 Alpha  occ. eigenvalues --   -0.34799  -0.32919  -0.31111  -0.30625  -0.28793
 Alpha  occ. eigenvalues --   -0.28197  -0.27860  -0.27761  -0.27670  -0.27546
 Alpha  occ. eigenvalues --   -0.27262  -0.27238  -0.27105  -0.27032  -0.26562
 Alpha  occ. eigenvalues --   -0.26287  -0.25962  -0.25781  -0.25684
 Alpha virt. eigenvalues --   -0.07948  -0.06880  -0.06635  -0.05971  -0.05871
 Alpha virt. eigenvalues --   -0.05484  -0.03203  -0.02661  -0.01397   0.04287
 Alpha virt. eigenvalues --    0.04745   0.04899   0.05239   0.05361   0.05496

 Mulliken charges:
               1
     1  C    0.328242
     2  C   -0.150301
     3  C   -0.377888
     4  C    0.396140
     5  H    0.124295
     6  C   -0.359021
     7  C    0.367102
     8  H    0.128631
     9  C   -0.294462
    10  C   -0.181565
    11  H    0.130724
    12  C   -0.183668
    13  H    0.095955
    14  H    0.085847
    15  H    0.093962
    16  C    0.292017
    17  C    0.087851
    18  C   -0.382185
    19  C    0.395005
    20  H    0.158325
    21  C   -0.373945
    22  C    0.356959
    23  H    0.128272
    24  C   -0.307584
    25  C   -0.148773
    26  H    0.134086
    27  C   -0.161745
    28  H    0.089937
    29  H    0.095633
    30  H    0.092670
    31  C    0.384670
    32  C   -0.172707
    33  C   -0.309412
    34  C    0.320873
    35  H    0.134608
    36  C   -0.315155
    37  C    0.347173
    38  H    0.124250
    39  C   -0.390137
    40  C   -0.144278
    41  H    0.123269
    42  C   -0.141974
    43  H    0.087557
    44  H    0.078430
    45  C   -0.071480
    46  C   -0.091526
    47  N   -0.199067
    48  N   -0.200413
    49  O   -0.337320
    50  C   -0.075533
    51  C   -0.085272
    52  N   -0.193420
    53  N   -0.198559
    54  C   -0.054363
    55  C   -0.118496
    56  N   -0.215587
    57  N   -0.203955
    58  C   -0.068939
    59  C   -0.092525
    60  N   -0.190306
    61  N   -0.203261
    62  H    0.094054
    63  H    0.120814
    64  H    0.109288
    65  H    0.089479
    66  H    0.119660
    67  H    0.089982
    68  H    0.125804
    69  H    0.127575
    70  H    0.084167
    71  H    0.127292
    72  H    0.086021
    73  H    0.089898
    74  H    0.125609
    75  H    0.126151
    76  H    0.083630
    77  H    0.123585
    78  H    0.089332
 Sum of Mulliken charges =   0.00000

 Dipole moment (field-independent basis, Debye):
    X=              0.4087    Y=              0.2102    Z=             -3.6283  Tot=              3.6573
 Quadrupole moment (field-independent basis, Debye-Ang):
   XX=           -246.7632   YY=           -246.7940   ZZ=           -247.5786
   XY=             -0.3471   XZ=             -5.5683   YZ=              2.2854

 Normal termination of Gaussian 16 at Mon Oct 18 13:39:11 2021.
