 Gaussian 16, Revision C.01,
 Gaussian 16:  ES64L-G16RevC.01  3-Jul-2019

 ----------------------------------------------------------------------
 #P PBE1PBE/Def2TZVP SP SCF=(YQC,MaxCycle=900) int=(Grid=Superfinegrid)
  EmpiricalDispersion=GD3
 ----------------------------------------------------------------------

 -------------------------
 _3_alde1_5_ami1_2_opt_gas
 -------------------------
 Symbolic Z-matrix:
 Charge =  0 Multiplicity = 1

                         Standard orientation:
 ---------------------------------------------------------------------
 Center     Atomic      Atomic             Coordinates (Angstroms)
 Number     Number       Type             X           Y           Z
 ---------------------------------------------------------------------
      1          6           0        1.439018   -3.011577    0.131277
      2          6           0        0.799034   -3.634888   -1.016272
      3          6           0        0.728471   -2.721118    1.294628
      4          6           0        1.340480   -2.053065    2.349526
      5          1           0       -0.304833   -3.026747    1.357305
      6          6           0        2.659904   -1.619325    2.213426
      7          6           0        3.378927   -1.897050    1.057319
      8          1           0        3.106087   -1.070641    3.028824
      9          6           0        2.769995   -2.623871    0.035712
     10          6           0        4.722662   -1.368538    0.863962
     11          1           0        3.350571   -2.846583   -0.845535
     12          6           0        0.603051   -1.813625    3.581369
     13          1           0        5.021187   -0.561918    1.551980
     14          1           0        1.472826   -3.890391   -1.848134
     15          1           0       -0.448461   -2.139033    3.576951
     16          6           0       -3.333893    0.821095    1.192592
     17          6           0       -4.476643   -0.054816    0.969680
     18          6           0       -3.076775    1.869536    0.308943
     19          6           0       -2.006669    2.730201    0.518242
     20          1           0       -3.741258    2.007664   -0.530956
     21          6           0       -1.163866    2.516955    1.608615
     22          6           0       -1.408596    1.478533    2.499628
     23          1           0       -0.331265    3.188429    1.752093
     24          6           0       -2.500812    0.636697    2.289559
     25          6           0       -0.544062    1.293204    3.657461
     26          1           0       -2.682190   -0.156853    2.998510
     27          6           0       -1.796209    3.853514   -0.383640
     28          1           0        0.421088    1.822140    3.624256
     29          1           0       -4.625361   -0.859462    1.707892
     30          1           0       -2.410517    3.851722   -1.297470
     31          6           0        0.716911   -0.047311   -2.522033
     32          6           0       -0.458236   -0.906588   -2.611543
     33          6           0        1.989815   -0.605777   -2.632102
     34          6           0        3.127245    0.155025   -2.388452
     35          1           0        2.065391   -1.653816   -2.875060
     36          6           0        2.986399    1.507030   -2.081519
     37          6           0        1.727864    2.095497   -2.042655
     38          1           0        3.876419    2.085976   -1.886748
     39          6           0        0.593508    1.308837   -2.241662
     40          6           0        1.608335    3.522524   -1.772994
     41          1           0       -0.377120    1.775233   -2.165711
     42          6           0        4.432927   -0.486708   -2.378106
     43          1           0        2.479989    3.989674   -1.286615
     44          1           0        4.449350   -1.529177   -2.729656
     45          6           0       -1.519714   -2.952064   -3.030810
     46          6           0       -1.002011   -4.245983   -2.339931
     47          7           0       -0.391545   -2.070989   -3.087226
     48          1           0       -2.320293   -2.522762   -2.407676
     49          6           0       -2.085808   -3.185668   -4.446045
     50          7           0       -0.447038   -3.813625   -1.089913
     51          1           0       -0.215589   -4.665445   -2.990643
     52          6           0       -2.071573   -5.321223   -2.090060
     53          1           0       -2.848780   -3.967017   -4.375535
     54          6           0       -1.007422   -3.625256   -5.432421
     55          6           0       -2.765920   -1.906559   -4.933452
     56          1           0       -2.486187   -5.626668   -3.055990
     57          6           0       -3.198470   -4.809702   -1.198728
     58          6           0       -1.403498   -6.539081   -1.450695
     59          1           0       -2.039787   -1.100133   -5.014995
     60          1           0       -3.551902   -1.603654   -4.243808
     61          1           0       -3.208888   -2.069629   -5.913404
     62          1           0       -0.611128   -4.603507   -5.172836
     63          1           0       -0.191696   -2.907175   -5.431547
     64          1           0       -1.424042   -3.683987   -6.435592
     65          1           0       -2.128456   -7.336548   -1.303605
     66          1           0       -0.982187   -6.267209   -0.485496
     67          1           0       -0.601694   -6.915926   -2.082595
     68          1           0       -3.847945   -5.632791   -0.907855
     69          1           0       -3.798577   -4.071879   -1.722745
     70          1           0       -2.778092   -4.358547   -0.303908
     71          6           0       -6.245386   -1.360811   -1.662803
     72          6           0       -6.372503   -0.730425   -0.237193
     73          7           0       -4.899207   -1.236749   -2.208457
     74          1           0       -6.905182   -0.823712   -2.352295
     75          6           0       -6.639976   -2.848577   -1.673022
     76          7           0       -5.242896    0.116792   -0.015268
     77          1           0       -6.400084   -1.547136    0.509149
     78          6           0       -7.652010    0.123532   -0.080507
     79          1           0       -5.963525   -3.378750   -0.991649
     80          6           0       -6.461436   -3.420459   -3.079238
     81          6           0       -8.076009   -3.082973   -1.211530
     82          1           0       -8.484594   -0.442815   -0.507564
     83          6           0       -7.532310    1.454152   -0.819787
     84          6           0       -7.939451    0.370979    1.399102
     85          1           0       -8.771487   -2.532395   -1.841533
     86          1           0       -8.224358   -2.778363   -0.179028
     87          1           0       -8.315488   -4.141656   -1.287348
     88          1           0       -7.178301   -2.967310   -3.759999
     89          1           0       -6.622002   -4.496110   -3.072236
     90          1           0       -5.462486   -3.212648   -3.449292
     91          1           0       -8.837910    0.973107    1.513544
     92          1           0       -7.109572    0.901891    1.862407
     93          1           0       -8.087619   -0.568468    1.928579
     94          1           0       -8.472858    1.997417   -0.761467
     95          1           0       -7.288916    1.299080   -1.867483
     96          1           0       -6.749104    2.060642   -0.372592
     97          6           0        0.370122   -1.071490    5.779525
     98          6           0       -0.025752    0.429264    5.764136
     99          7           0        1.144205   -1.295928    4.595320
    100          1           0       -0.568445   -1.651824    5.754497
    101          6           0        1.200462   -1.504146    7.001215
    102          7           0       -0.900004    0.595034    4.643808
    103          1           0        0.899300    1.019739    5.638828
    104          6           0       -0.752545    0.904924    7.037657
    105          1           0        0.608073   -1.323870    7.903434
    106          6           0        2.515159   -0.735886    7.095356
    107          6           0        1.475657   -3.005073    6.905076
    108          1           0       -0.086130    0.742908    7.890172
    109          6           0       -2.058758    0.150038    7.265145
    110          6           0       -1.025192    2.405450    6.928996
    111          1           0        0.544726   -3.564743    6.838606
    112          1           0        2.020552   -3.347130    7.782022
    113          1           0        2.069945   -3.218351    6.019455
    114          1           0        3.049303   -0.814665    6.152924
    115          1           0        3.134607   -1.151475    7.887220
    116          1           0        2.342881    0.314742    7.314179
    117          1           0       -1.704385    2.605868    6.103318
    118          1           0       -0.101561    2.954766    6.757208
    119          1           0       -1.477368    2.773445    7.847211
    120          1           0       -2.675591    0.211288    6.372974
    121          1           0       -2.601776    0.589014    8.099312
    122          1           0       -1.873982   -0.896468    7.492913
    123          6           0        6.724128   -1.135810   -0.321200
    124          6           0        6.673316   -0.676567   -1.806647
    125          7           0        5.468418   -1.774892   -0.066447
    126          1           0        6.843726   -0.240545    0.312587
    127          6           0        7.880622   -2.109321   -0.014955
    128          7           0        5.468128    0.089244   -1.945015
    129          1           0        6.624460   -1.589726   -2.423435
    130          6           0        7.877366    0.168933   -2.253509
    131          1           0        8.815637   -1.623542   -0.311242
    132          6           0        7.739247   -3.430355   -0.766078
    133          6           0        7.936127   -2.367611    1.490921
    134          1           0        8.786613   -0.425372   -2.116601
    135          6           0        7.996273    1.465040   -1.456679
    136          6           0        7.729901    0.481441   -3.742983
    137          1           0        7.025597   -2.862055    1.823013
    138          1           0        8.043384   -1.434328    2.040397
    139          1           0        8.783037   -3.005836    1.732380
    140          1           0        8.495094   -4.134134   -0.424325
    141          1           0        7.867487   -3.291351   -1.836225
    142          1           0        6.755438   -3.853746   -0.582522
    143          1           0        8.589348    1.043615   -4.100810
    144          1           0        6.831768    1.071602   -3.909935
    145          1           0        7.652714   -0.435405   -4.324128
    146          1           0        8.295260    1.270952   -0.429813
    147          1           0        7.038656    1.977608   -1.453266
    148          1           0        8.743007    2.114064   -1.908919
    149          6           0       -0.808129    5.847125   -1.057092
    150          6           0        0.515504    5.580461   -1.822228
    151          7           0       -0.988116    4.782273   -0.116890
    152          1           0       -1.622867    5.850220   -1.801581
    153          6           0       -0.808935    7.194597   -0.310406
    154          7           0        0.584156    4.177902   -2.097511
    155          1           0        1.357565    5.898197   -1.183219
    156          6           0        0.592800    6.364497   -3.151720
    157          1           0       -0.444358    7.966928   -0.996336
    158          6           0        0.086299    7.165020    0.925492
    159          6           0       -2.240684    7.542659    0.095227
    160          1           0        0.275465    7.393715   -2.952807
    161          6           0       -0.311267    5.766096   -4.226426
    162          6           0        2.038276    6.391823   -3.645663
    163          1           0       -2.885124    7.613319   -0.778838
    164          1           0       -2.266725    8.495870    0.618148
    165          1           0       -2.636376    6.773969    0.755836
    166          1           0       -0.239579    6.373967    1.594336
    167          1           0        0.030528    8.117689    1.447428
    168          1           0        1.123826    6.984320    0.657899
    169          1           0        2.690477    6.863387   -2.913078
    170          1           0        2.108260    6.950959   -4.575932
    171          1           0        2.393492    5.379004   -3.826461
    172          1           0       -1.353646    5.784525   -3.920727
    173          1           0       -0.028886    4.734118   -4.416837
    174          1           0       -0.217180    6.335458   -5.148535
    175          1           0       -4.240972   -1.690289   -1.579460
    176          1           0       -4.646496   -0.253842   -2.234969
    177          1           0       -1.386352   -0.488402   -2.189999
 ---------------------------------------------------------------------

 SCF Done:  E(RPBE1PBE) =  -3158.28637639     a.u. after    7 cycles
 SCF Done:  E(RPBE1PBE) =  -3158.28639026     A.U. after    9 cycles

 The electronic state is 1-A.
 Alpha  occ. eigenvalues --  -14.38064 -14.37699 -14.37565 -14.37526 -14.37409
 Alpha  occ. eigenvalues --  -14.37360 -14.37263 -14.37128 -14.37104 -14.35585
 Alpha  occ. eigenvalues --  -10.27122 -10.26779 -10.26622 -10.26533 -10.26484
 Alpha  occ. eigenvalues --  -10.26438 -10.26393 -10.26201 -10.26130 -10.25199
 Alpha  occ. eigenvalues --  -10.25185 -10.25145 -10.24993 -10.24990 -10.24966
 Alpha  occ. eigenvalues --  -10.24834 -10.24766 -10.24757 -10.24634 -10.24570
 Alpha  occ. eigenvalues --  -10.24484 -10.24415 -10.24116 -10.24109 -10.24086
 Alpha  occ. eigenvalues --  -10.24070 -10.24012 -10.24010 -10.23976 -10.23957
 Alpha  occ. eigenvalues --  -10.23942 -10.23665 -10.23658 -10.23633 -10.23604
 Alpha  occ. eigenvalues --  -10.23542 -10.23511 -10.22842 -10.22774 -10.22758
 Alpha  occ. eigenvalues --  -10.22700 -10.22507 -10.22439 -10.22417 -10.22361
 Alpha  occ. eigenvalues --  -10.22265 -10.22059 -10.20737 -10.20599 -10.20556
 Alpha  occ. eigenvalues --  -10.20444 -10.20357 -10.20307 -10.20255 -10.20126
 Alpha  occ. eigenvalues --  -10.20083 -10.20046 -10.20044 -10.20041 -10.20000
 Alpha  occ. eigenvalues --  -10.19912 -10.19904 -10.19851 -10.19809 -10.19537
 Alpha  occ. eigenvalues --  -10.19501 -10.18952  -0.97957  -0.97848  -0.97815
 Alpha  occ. eigenvalues --   -0.97594  -0.97389  -0.95177  -0.95109  -0.94767
 Alpha  occ. eigenvalues --   -0.94501  -0.91451  -0.90284  -0.89855  -0.89489
 Alpha  occ. eigenvalues --   -0.84789  -0.84745  -0.84602  -0.83770  -0.83339
 Alpha  occ. eigenvalues --   -0.82388  -0.82174  -0.81955  -0.81496  -0.81359
 Alpha  occ. eigenvalues --   -0.80020  -0.79976  -0.79853  -0.79701  -0.79376
 Alpha  occ. eigenvalues --   -0.79232  -0.74926  -0.74294  -0.74268  -0.73803
 Alpha  occ. eigenvalues --   -0.73362  -0.70555  -0.70472  -0.70461  -0.70456
 Alpha  occ. eigenvalues --   -0.70286  -0.70121  -0.70112  -0.70072  -0.70032
 Alpha  occ. eigenvalues --   -0.69513  -0.69238  -0.69235  -0.69031  -0.68752
 Alpha  occ. eigenvalues --   -0.67679  -0.66578  -0.66401  -0.66143  -0.64676
 Alpha  occ. eigenvalues --   -0.63861  -0.63733  -0.63687  -0.62617  -0.62176
 Alpha  occ. eigenvalues --   -0.59924  -0.59825  -0.59783  -0.59072  -0.58552
 Alpha  occ. eigenvalues --   -0.58371  -0.57777  -0.57695  -0.57142  -0.56533
 Alpha  occ. eigenvalues --   -0.55869  -0.55727  -0.55510  -0.55353  -0.54848
 Alpha  occ. eigenvalues --   -0.54508  -0.53723  -0.53525  -0.53288  -0.52156
 Alpha  occ. eigenvalues --   -0.51843  -0.51765  -0.50952  -0.50825  -0.50600
 Alpha  occ. eigenvalues --   -0.50335  -0.50261  -0.49973  -0.49898  -0.49543
 Alpha  occ. eigenvalues --   -0.49441  -0.49363  -0.48876  -0.48709  -0.48466
 Alpha  occ. eigenvalues --   -0.48312  -0.48212  -0.47204  -0.46986  -0.46759
 Alpha  occ. eigenvalues --   -0.46732  -0.46592  -0.46287  -0.46064  -0.45434
 Alpha  occ. eigenvalues --   -0.45340  -0.45025  -0.44974  -0.44848  -0.44698
 Alpha  occ. eigenvalues --   -0.44551  -0.44259  -0.44128  -0.43918  -0.43725
 Alpha  occ. eigenvalues --   -0.43577  -0.43363  -0.43244  -0.43167  -0.43125
 Alpha  occ. eigenvalues --   -0.43029  -0.42759  -0.42560  -0.42326  -0.42210
 Alpha  occ. eigenvalues --   -0.42160  -0.42067  -0.41951  -0.41477  -0.40575
 Alpha  occ. eigenvalues --   -0.40408  -0.40249  -0.40101  -0.40086  -0.39967
 Alpha  occ. eigenvalues --   -0.39877  -0.39801  -0.39661  -0.39480  -0.39301
 Alpha  occ. eigenvalues --   -0.39227  -0.39128  -0.39088  -0.39031  -0.38846
 Alpha  occ. eigenvalues --   -0.38821  -0.38724  -0.38556  -0.38434  -0.38170
 Alpha  occ. eigenvalues --   -0.38081  -0.38025  -0.37971  -0.37695  -0.37602
 Alpha  occ. eigenvalues --   -0.37423  -0.36808  -0.36727  -0.36515  -0.36455
 Alpha  occ. eigenvalues --   -0.36364  -0.35717  -0.35532  -0.35378  -0.35099
 Alpha  occ. eigenvalues --   -0.35039  -0.34880  -0.34839  -0.34797  -0.34762
 Alpha  occ. eigenvalues --   -0.34749  -0.34698  -0.34584  -0.34410  -0.34306
 Alpha  occ. eigenvalues --   -0.34258  -0.34156  -0.34031  -0.33847  -0.33738
 Alpha  occ. eigenvalues --   -0.33524  -0.33491  -0.33258  -0.33204  -0.32929
 Alpha  occ. eigenvalues --   -0.32873  -0.32693  -0.32544  -0.32494  -0.32360
 Alpha  occ. eigenvalues --   -0.32197  -0.31748  -0.30051  -0.30007  -0.29263
 Alpha  occ. eigenvalues --   -0.27447  -0.27169  -0.27097  -0.26897  -0.26816
 Alpha  occ. eigenvalues --   -0.26788  -0.26517  -0.26401  -0.26279  -0.25960
 Alpha  occ. eigenvalues --   -0.25753  -0.25725  -0.25414  -0.25169  -0.25004
 Alpha  occ. eigenvalues --   -0.24837
 Alpha virt. eigenvalues --   -0.06259  -0.06194  -0.06126  -0.05708  -0.05330
 Alpha virt. eigenvalues --   -0.04937  -0.02239  -0.02136  -0.01147   0.02674
 Alpha virt. eigenvalues --    0.03618   0.03823   0.04032   0.04115   0.04219

 Mulliken charges:
               1
     1  C    0.375924
     2  C   -0.189760
     3  C   -0.357763
     4  C    0.386583
     5  H    0.129390
     6  C   -0.366115
     7  C    0.343093
     8  H    0.133745
     9  C   -0.281162
    10  C   -0.172481
    11  H    0.131633
    12  C   -0.182371
    13  H    0.071448
    14  H    0.081473
    15  H    0.069825
    16  C    0.410503
    17  C   -0.239920
    18  C   -0.354857
    19  C    0.354407
    20  H    0.138903
    21  C   -0.346981
    22  C    0.389751
    23  H    0.130231
    24  C   -0.349314
    25  C   -0.182897
    26  H    0.126457
    27  C   -0.161841
    28  H    0.074908
    29  H    0.074586
    30  H    0.069075
    31  C    0.359038
    32  C   -0.176225
    33  C   -0.286460
    34  C    0.377808
    35  H    0.127154
    36  C   -0.362520
    37  C    0.376141
    38  H    0.135919
    39  C   -0.366388
    40  C   -0.166602
    41  H    0.125778
    42  C   -0.185198
    43  H    0.080814
    44  H    0.083074
    45  C    0.133145
    46  C    0.138549
    47  N   -0.265102
    48  H    0.024142
    49  C   -0.029121
    50  N   -0.260442
    51  H    0.075800
    52  C    0.012164
    53  H    0.081303
    54  C   -0.390638
    55  C   -0.403062
    56  H    0.081964
    57  C   -0.434125
    58  C   -0.387581
    59  H    0.118058
    60  H    0.159074
    61  H    0.110842
    62  H    0.114331
    63  H    0.135286
    64  H    0.117858
    65  H    0.120448
    66  H    0.129666
    67  H    0.113967
    68  H    0.117227
    69  H    0.099773
    70  H    0.136132
    71  C   -0.030212
    72  C    0.155979
    73  N   -0.486998
    74  H    0.077348
    75  C   -0.085877
    76  N   -0.251756
    77  H    0.059449
    78  C   -0.049576
    79  H    0.092805
    80  C   -0.350992
    81  C   -0.386109
    82  H    0.090985
    83  C   -0.376244
    84  C   -0.382966
    85  H    0.120233
    86  H    0.128528
    87  H    0.127588
    88  H    0.105125
    89  H    0.113023
    90  H    0.153026
    91  H    0.122866
    92  H    0.126420
    93  H    0.115884
    94  H    0.119899
    95  H    0.114184
    96  H    0.129137
    97  C    0.084837
    98  C    0.106321
    99  N   -0.241026
   100  H    0.083519
   101  C   -0.012042
   102  N   -0.244790
   103  H    0.081037
   104  C   -0.027587
   105  H    0.084276
   106  C   -0.406079
   107  C   -0.386590
   108  H    0.086128
   109  C   -0.405950
   110  C   -0.381567
   111  H    0.111976
   112  H    0.121653
   113  H    0.134175
   114  H    0.137004
   115  H    0.118063
   116  H    0.119180
   117  H    0.130960
   118  H    0.112665
   119  H    0.123070
   120  H    0.137215
   121  H    0.118977
   122  H    0.120767
   123  C    0.097722
   124  C    0.100346
   125  N   -0.255526
   126  H    0.080096
   127  C   -0.026604
   128  N   -0.256536
   129  H    0.076269
   130  C   -0.000163
   131  H    0.079528
   132  C   -0.404545
   133  C   -0.382238
   134  H    0.077270
   135  C   -0.409504
   136  C   -0.388014
   137  H    0.128531
   138  H    0.113004
   139  H    0.123877
   140  H    0.118080
   141  H    0.118544
   142  H    0.138421
   143  H    0.121225
   144  H    0.131016
   145  H    0.112495
   146  H    0.117398
   147  H    0.137082
   148  H    0.117191
   149  C    0.143380
   150  C    0.111573
   151  N   -0.242087
   152  H    0.043658
   153  C   -0.002377
   154  N   -0.251907
   155  H    0.044811
   156  C   -0.020757
   157  H    0.063459
   158  C   -0.387414
   159  C   -0.381945
   160  H    0.067314
   161  C   -0.385896
   162  C   -0.384725
   163  H    0.114796
   164  H    0.121062
   165  H    0.127374
   166  H    0.135381
   167  H    0.115885
   168  H    0.109617
   169  H    0.117016
   170  H    0.123074
   171  H    0.128065
   172  H    0.109846
   173  H    0.138157
   174  H    0.117085
   175  H    0.209045
   176  H    0.227717
   177  H    0.087419
 Sum of Mulliken charges =   0.00000

 Dipole moment (field-independent basis, Debye):
    X=             -0.2731    Y=              0.7181    Z=              1.2347  Tot=              1.4542
 Quadrupole moment (field-independent basis, Debye-Ang):
   XX=           -458.1791   YY=           -469.0325   ZZ=           -479.1673
   XY=              5.4214   XZ=             -0.8659   YZ=             -2.2995

 Normal termination of Gaussian 16 at Mon Oct 18 22:35:45 2021.
