 Gaussian 16, Revision C.01,
 Gaussian 16:  ES64L-G16RevC.01  3-Jul-2019

 ----------------------------------------------------------------------
 #P PBE1PBE/Def2TZVP SP SCF=(YQC,MaxCycle=900) int=(Grid=Superfinegrid)
  EmpiricalDispersion=GD3 SCRF=(PCM,Solvent=Dichloromethane)
 ----------------------------------------------------------------------

 -------------------------
 _3_alde1_5_ami4_2_opt_dcm
 -------------------------
 Symbolic Z-matrix:
 Charge =  0 Multiplicity = 1

                         Standard orientation:
 ---------------------------------------------------------------------
 Center     Atomic      Atomic             Coordinates (Angstroms)
 Number     Number       Type             X           Y           Z
 ---------------------------------------------------------------------
      1          6           0       -4.025328    1.412035    0.289217
      2          6           0       -5.104719    0.717570   -0.396229
      3          6           0       -3.399625    2.523488   -0.274341
      4          6           0       -2.307079    3.110466    0.354291
      5          1           0       -3.779043    2.908103   -1.209083
      6          6           0       -1.807732    2.550443    1.531429
      7          6           0       -2.433271    1.455142    2.113206
      8          1           0       -0.934064    2.999744    1.978091
      9          6           0       -3.560833    0.910799    1.499890
     10          6           0       -1.880021    0.832106    3.308853
     11          1           0       -4.040882    0.068124    1.971656
     12          6           0       -1.670934    4.288848   -0.218934
     13          1           0       -0.837243    1.096551    3.542377
     14          1           0       -5.640553   -0.030232    0.206523
     15          1           0       -2.175092    4.720045   -1.098314
     16          6           0        4.279166    1.244300   -0.442744
     17          6           0        5.418297    1.410637    0.449828
     18          6           0        4.044564    0.025625   -1.077014
     19          6           0        2.953240   -0.133691   -1.925547
     20          1           0        4.717368   -0.800784   -0.917187
     21          6           0        2.087137    0.938437   -2.130719
     22          6           0        2.317580    2.166219   -1.517290
     23          1           0        1.233312    0.819147   -2.784253
     24          6           0        3.416570    2.311999   -0.673157
     25          6           0        1.423618    3.283912   -1.776289
     26          1           0        3.577430    3.272139   -0.207279
     27          6           0        2.721093   -1.391384   -2.620466
     28          1           0        0.529800    3.047069   -2.377591
     29          1           0        5.532019    2.408841    0.901364
     30          1           0        1.838977   -1.416101   -3.279592
     31          6           0       -2.596201   -2.423703   -1.112307
     32          6           0       -3.497521   -1.936435   -2.148335
     33          6           0       -2.989132   -2.376153    0.224592
     34          6           0       -2.098078   -2.698697    1.241131
     35          1           0       -3.992993   -2.051075    0.447739
     36          6           0       -0.810841   -3.120451    0.911303
     37          6           0       -0.425992   -3.238352   -0.419859
     38          1           0       -0.128074   -3.362764    1.711344
     39          6           0       -1.317110   -2.867531   -1.427690
     40          6           0        0.899893   -3.743892   -0.749253
     41          1           0       -0.990338   -2.940459   -2.453890
     42          6           0       -2.507858   -2.526363    2.626384
     43          1           0        1.600758   -3.834732    0.094311
     44          1           0       -3.580185   -2.334192    2.779000
     45          6           0       -5.551419   -1.119806   -2.910327
     46          6           0       -6.321427    0.038060   -2.238179
     47          7           0       -4.721085   -1.732507   -1.924338
     48          7           0       -5.372535    0.909716   -1.615169
     49          6           0        7.147178   -0.343754    2.766748
     50          6           0        7.310151    0.643458    1.587010
     51          7           0        7.083372   -1.734737    2.381581
     52          7           0        6.223602    0.468882    0.682337
     53          6           0        0.029408    5.899763   -0.314629
     54          6           0        0.735734    5.497463   -1.625654
     55          7           0       -0.617191    4.768631    0.282247
     56          7           0        1.666161    4.450320   -1.363750
     57          6           0       -1.928091   -0.676495    5.089933
     58          6           0       -2.170897   -2.188113    4.885812
     59          7           0       -2.544654    0.019821    4.006978
     60          7           0       -1.689479   -2.547544    3.587287
     61          6           0        3.200718   -3.594875   -3.185390
     62          6           0        2.518077   -4.571213   -2.209455
     63          7           0        3.495685   -2.379165   -2.496787
     64          7           0        1.206722   -4.088447   -1.923051
     65          1           0        6.310946   -1.865461    1.736110
     66          1           0        7.932170   -2.000696    1.892105
     67          1           0       -3.032554   -1.723607   -3.123852
     68          1           0        6.223437   -0.102255    3.300106
     69          1           0        7.988071   -0.210493    3.452978
     70          1           0        8.230370    0.393277    1.047590
     71          1           0        7.388820    1.673762    1.974435
     72          1           0       -4.977196   -0.742552   -3.771065
     73          1           0       -6.280112   -1.857168   -3.261079
     74          1           0       -7.026296   -0.393379   -1.511705
     75          1           0       -6.866518    0.597361   -3.001254
     76          1           0        4.146027   -4.029989   -3.517855
     77          1           0        2.531302   -3.444059   -4.046242
     78          1           0        3.141799   -4.680453   -1.308223
     79          1           0        2.415033   -5.539837   -2.706781
     80          1           0        0.774473    6.257228    0.398913
     81          1           0       -0.679358    6.706632   -0.546324
     82          1           0       -3.248206   -2.382112    4.997297
     83          1           0       -1.609594   -2.746863    5.637276
     84          1           0       -2.414137   -0.373043    6.021772
     85          1           0       -0.847428   -0.475943    5.160283
     86          1           0        1.292101    6.361625   -1.998555
     87          1           0       -0.028413    5.204635   -2.367399
 ---------------------------------------------------------------------

 SCF Done:  E(RPBE1PBE) =  -1979.86969202     a.u. after    6 cycles
 SCF Done:  E(RPBE1PBE) =  -1979.86972122     A.U. after    9 cycles

 The electronic state is 1-A.
 Alpha  occ. eigenvalues --  -14.38308 -14.38235 -14.38179 -14.38130 -14.38011
 Alpha  occ. eigenvalues --  -14.37994 -14.37957 -14.37938 -14.37857 -14.35693
 Alpha  occ. eigenvalues --  -10.27106 -10.27055 -10.27002 -10.26958 -10.26864
 Alpha  occ. eigenvalues --  -10.26796 -10.26754 -10.26744 -10.26675 -10.25288
 Alpha  occ. eigenvalues --  -10.25257 -10.25153 -10.25049 -10.25035 -10.24880
 Alpha  occ. eigenvalues --  -10.24871 -10.24824 -10.24665 -10.24654 -10.24638
 Alpha  occ. eigenvalues --  -10.24617 -10.24612 -10.24572 -10.24555 -10.24522
 Alpha  occ. eigenvalues --  -10.24517 -10.24421 -10.24251 -10.24213 -10.24196
 Alpha  occ. eigenvalues --  -10.24188 -10.24160 -10.24155 -10.24125 -10.24049
 Alpha  occ. eigenvalues --  -10.24033 -10.23670  -0.97901  -0.97720  -0.97673
 Alpha  occ. eigenvalues --   -0.97624  -0.96550  -0.95548  -0.95443  -0.95166
 Alpha  occ. eigenvalues --   -0.95029  -0.90901  -0.90520  -0.89923  -0.89841
 Alpha  occ. eigenvalues --   -0.82628  -0.82377  -0.82315  -0.81353  -0.80695
 Alpha  occ. eigenvalues --   -0.80592  -0.78082  -0.76596  -0.76065  -0.76010
 Alpha  occ. eigenvalues --   -0.74733  -0.70202  -0.70002  -0.69970  -0.69863
 Alpha  occ. eigenvalues --   -0.67465  -0.66862  -0.66798  -0.66064  -0.63777
 Alpha  occ. eigenvalues --   -0.63453  -0.63074  -0.62382  -0.60769  -0.60498
 Alpha  occ. eigenvalues --   -0.57828  -0.56887  -0.56626  -0.56331  -0.55934
 Alpha  occ. eigenvalues --   -0.55492  -0.54373  -0.54125  -0.53390  -0.52989
 Alpha  occ. eigenvalues --   -0.52597  -0.52167  -0.51337  -0.50984  -0.50857
 Alpha  occ. eigenvalues --   -0.50629  -0.50002  -0.49832  -0.49432  -0.49162
 Alpha  occ. eigenvalues --   -0.48933  -0.48366  -0.47511  -0.46902  -0.46830
 Alpha  occ. eigenvalues --   -0.46714  -0.46537  -0.46434  -0.46399  -0.45728
 Alpha  occ. eigenvalues --   -0.45403  -0.45362  -0.45066  -0.44415  -0.44203
 Alpha  occ. eigenvalues --   -0.44029  -0.42447  -0.42342  -0.42058  -0.41714
 Alpha  occ. eigenvalues --   -0.41579  -0.40936  -0.40574  -0.40478  -0.39876
 Alpha  occ. eigenvalues --   -0.39797  -0.39749  -0.39114  -0.38798  -0.37527
 Alpha  occ. eigenvalues --   -0.37341  -0.37166  -0.36931  -0.36709  -0.36624
 Alpha  occ. eigenvalues --   -0.36474  -0.35791  -0.35729  -0.35460  -0.35255
 Alpha  occ. eigenvalues --   -0.35159  -0.34891  -0.31503  -0.31322  -0.30533
 Alpha  occ. eigenvalues --   -0.27977  -0.27845  -0.27776  -0.27648  -0.27385
 Alpha  occ. eigenvalues --   -0.27274  -0.27210  -0.27143  -0.27021  -0.26671
 Alpha  occ. eigenvalues --   -0.26328  -0.26176  -0.26071  -0.25912  -0.25429
 Alpha  occ. eigenvalues --   -0.24859
 Alpha virt. eigenvalues --   -0.06869  -0.06744  -0.06338  -0.06132  -0.05651
 Alpha virt. eigenvalues --   -0.05530  -0.02988  -0.02081  -0.01688   0.04356
 Alpha virt. eigenvalues --    0.04770   0.04838   0.05021   0.05389   0.05465

 Mulliken charges:
               1
     1  C    0.371654
     2  C   -0.174908
     3  C   -0.380040
     4  C    0.395540
     5  H    0.122809
     6  C   -0.361967
     7  C    0.323925
     8  H    0.127796
     9  C   -0.303744
    10  C   -0.152983
    11  H    0.137655
    12  C   -0.181167
    13  H    0.091723
    14  H    0.099646
    15  H    0.099037
    16  C    0.391316
    17  C   -0.174966
    18  C   -0.378758
    19  C    0.373311
    20  H    0.121600
    21  C   -0.333144
    22  C    0.325970
    23  H    0.131079
    24  C   -0.359237
    25  C   -0.147405
    26  H    0.124641
    27  C   -0.173035
    28  H    0.086279
    29  H    0.088567
    30  H    0.087648
    31  C    0.316014
    32  C   -0.151268
    33  C   -0.292771
    34  C    0.378020
    35  H    0.135675
    36  C   -0.377099
    37  C    0.370912
    38  H    0.124455
    39  C   -0.368964
    40  C   -0.164765
    41  H    0.130105
    42  C   -0.180879
    43  H    0.093558
    44  H    0.099908
    45  C   -0.098049
    46  C   -0.069210
    47  N   -0.201255
    48  N   -0.208704
    49  C   -0.086019
    50  C   -0.117174
    51  N   -0.550503
    52  N   -0.188332
    53  C   -0.090760
    54  C   -0.132373
    55  N   -0.188679
    56  N   -0.186243
    57  C   -0.094859
    58  C   -0.071503
    59  N   -0.203420
    60  N   -0.203584
    61  C   -0.075217
    62  C   -0.078081
    63  N   -0.189753
    64  N   -0.198329
    65  H    0.236395
    66  H    0.228310
    67  H    0.088490
    68  H    0.111682
    69  H    0.116395
    70  H    0.122359
    71  H    0.080211
    72  H    0.086537
    73  H    0.129334
    74  H    0.092494
    75  H    0.124899
    76  H    0.127837
    77  H    0.086639
    78  H    0.083536
    79  H    0.128787
    80  H    0.115171
    81  H    0.115552
    82  H    0.092160
    83  H    0.125578
    84  H    0.128524
    85  H    0.087219
    86  H    0.130341
    87  H    0.101856
 Sum of Mulliken charges =   0.00000

 Dipole moment (field-independent basis, Debye):
    X=             -2.0967    Y=              2.3067    Z=             -2.5263  Tot=              4.0124
 Quadrupole moment (field-independent basis, Debye-Ang):
   XX=           -266.5638   YY=           -267.7818   ZZ=           -257.9947
   XY=              6.3264   XZ=              4.9340   YZ=              1.2648

 Normal termination of Gaussian 16 at Mon Oct 18 09:21:21 2021.
