 Gaussian 16, Revision C.01,
 Gaussian 16:  ES64L-G16RevC.01  3-Jul-2019

 ----------------------------------------------------------------------
 #P MP2/aug-cc-pVDZ SP SCF=(YQC,MaxCycle=900) int=(Grid=Superfinegrid)
 SCRF=(PCM,Solvent=Chloroform)
 ----------------------------------------------------------------------

 -----------------------------
 _3_alde1_4_ami2_1_opt_cfm_mp2
 -----------------------------
 Symbolic Z-matrix:
 Charge =  0 Multiplicity = 1

                         Standard orientation:
 ---------------------------------------------------------------------
 Center     Atomic      Atomic             Coordinates (Angstroms)
 Number     Number       Type             X           Y           Z
 ---------------------------------------------------------------------
      1          6           0        1.283584    1.946405    1.736278
      2          6           0        0.790153    1.367774    2.984207
      3          6           0        0.498902    2.830213    1.007513
      4          6           0        0.948321    3.345344   -0.210153
      5          1           0       -0.467680    3.143945    1.370133
      6          6           0        2.167523    2.919847   -0.724529
      7          6           0        2.956995    2.016823   -0.013588
      8          1           0        2.519352    3.267056   -1.684230
      9          6           0        2.525370    1.567189    1.228957
     10          6           0        4.180531    1.470972   -0.581011
     11          1           0        3.125555    0.886885    1.811494
     12          6           0        0.117187    4.277256   -0.959713
     13          1           0        4.811442    0.899995    0.116164
     14          1           0       -0.288594    1.480265    3.147512
     15          1           0        0.565400    4.706168   -1.868766
     16          6           0       -3.396101   -0.083847    1.791214
     17          6           0       -3.464707   -0.352947    3.233300
     18          6           0       -3.383565   -1.127769    0.871689
     19          6           0       -3.295785   -0.859096   -0.493138
     20          1           0       -3.434875   -2.156049    1.195369
     21          6           0       -3.227493    0.462145   -0.921614
     22          6           0       -3.259724    1.519723   -0.013119
     23          1           0       -3.152532    0.702481   -1.971442
     24          6           0       -3.337126    1.237662    1.344464
     25          6           0       -3.154227    2.898305   -0.480308
     26          1           0       -3.352704    2.031457    2.077800
     27          6           0       -3.255057   -1.936154   -1.478428
     28          1           0       -3.127992    3.658907    0.305325
     29          1           0       -3.514757   -1.430276    3.485985
     30          1           0       -2.957525   -1.616025   -2.483272
     31          6           0        2.044168   -2.244435    1.408862
     32          6           0        2.411136   -1.798010    2.743668
     33          6           0        2.817770   -1.869641    0.317735
     34          6           0        2.408958   -2.160495   -0.983205
     35          1           0        3.734777   -1.317366    0.448272
     36          6           0        1.239209   -2.884822   -1.182491
     37          6           0        0.475217   -3.309495   -0.094101
     38          1           0        0.900042   -3.134351   -2.176529
     39          6           0        0.872167   -2.966965    1.193590
     40          6           0       -0.744218   -4.080328   -0.276857
     41          1           0        0.280394   -3.249049    2.051062
     42          6           0        3.164196   -1.632230   -2.115836
     43          1           0       -1.287223   -4.320958    0.650250
     44          1           0        2.653980   -1.710340   -3.083816
     45          6           0        1.957192   -1.247951    4.943593
     46          6           0        1.169066    0.095634    4.973995
     47          7           0        1.628190   -1.914370    3.726869
     48          7           0        1.573079    0.772561    3.770132
     49          8           0       -3.466524    0.488296    4.096073
     50          6           0       -1.936608    5.359124   -1.335391
     51          6           0       -2.844435    4.462329   -2.241392
     52          7           0       -1.051055    4.548233   -0.569852
     53          7           0       -3.066907    3.142885   -1.713946
     54          6           0        5.587425    0.851973   -2.306917
     55          6           0        5.062039   -0.453961   -2.973452
     56          7           0        4.472043    1.587592   -1.803779
     57          7           0        4.292273   -1.099731   -1.944615
     58          6           0       -3.485559   -4.230086   -2.078077
     59          6           0       -2.395552   -5.165043   -1.485318
     60          7           0       -3.552921   -3.119106   -1.167347
     61          7           0       -1.155380   -4.462656   -1.406974
     62          1           0        3.389709   -1.303160    2.830277
     63          1           0       -1.414392    6.073875   -1.988026
     64          1           0       -2.560460    5.912266   -0.627324
     65          1           0       -2.264658   -6.016992   -2.156543
     66          1           0       -2.738398   -5.516482   -0.499601
     67          1           0        1.644443   -1.868690    5.785216
     68          1           0        3.031255   -1.020422    5.020514
     69          6           0       -3.136246   -3.904341   -3.532772
     70          1           0       -3.845836   -3.191374   -3.948728
     71          1           0       -3.178902   -4.815563   -4.123344
     72          1           0       -2.129459   -3.499305   -3.596768
     73          6           0       -4.842699   -4.938705   -2.004287
     74          1           0       -4.801903   -5.892226   -2.524332
     75          1           0       -5.607330   -4.317187   -2.464742
     76          1           0       -5.116736   -5.108698   -0.966679
     77          6           0       -2.158132    4.245892   -3.595535
     78          1           0       -1.182250    3.789170   -3.447525
     79          1           0       -2.038394    5.187810   -4.124943
     80          1           0       -2.760030    3.571820   -4.198823
     81          6           0       -4.197228    5.152781   -2.449682
     82          1           0       -4.051559    6.139828   -2.881752
     83          1           0       -4.720219    5.254019   -1.500960
     84          1           0       -4.812453    4.558867   -3.121241
     85          6           0       -0.325794   -0.202511    5.105979
     86          1           0       -0.913568    0.711130    5.154408
     87          1           0       -0.504662   -0.767202    6.016926
     88          1           0       -0.657899   -0.796261    4.257056
     89          6           0        1.654887    0.936529    6.159522
     90          1           0        2.704173    1.191026    6.033518
     91          1           0        1.529925    0.384629    7.087446
     92          1           0        1.079644    1.857967    6.215756
     93          6           0        6.254033   -1.362743   -3.295917
     94          1           0        6.759601   -1.655897   -2.379464
     95          1           0        6.957998   -0.844415   -3.941727
     96          1           0        5.906379   -2.261961   -3.800105
     97          1           0        6.291742    0.569053   -1.509829
     98          1           0        6.098927    1.457478   -3.057698
     99          6           0        4.302092   -0.101086   -4.255163
    100          1           0        3.449693    0.530553   -4.015787
    101          1           0        3.958190   -0.998903   -4.764808
    102          1           0        4.960119    0.440731   -4.929101
 ---------------------------------------------------------------------

 SCF Done:  E(RHF) =  -2168.06315836     a.u. after    6 cycles
 SCF Done:  E(RHF) =  -2168.06332170     A.U. after   15 cycles
 E2 =    -0.7576158151D+01 EUMP2 =    -0.21756394798493D+04

 The electronic state is 1-A.
 Alpha  occ. eigenvalues --  -20.57165 -15.56080 -15.56035 -15.55955 -15.55865
 Alpha  occ. eigenvalues --  -15.55764 -15.55762 -15.55676 -15.55257 -11.34683
 Alpha  occ. eigenvalues --  -11.28772 -11.28677 -11.28574 -11.28540 -11.28456
 Alpha  occ. eigenvalues --  -11.28441 -11.28415 -11.28361 -11.26890 -11.26858
 Alpha  occ. eigenvalues --  -11.26822 -11.26589 -11.26560 -11.26281 -11.26008
 Alpha  occ. eigenvalues --  -11.25624 -11.25586 -11.25527 -11.25403 -11.25314
 Alpha  occ. eigenvalues --  -11.25287 -11.25206 -11.25205 -11.25156 -11.25108
 Alpha  occ. eigenvalues --  -11.25104 -11.25082 -11.25003 -11.24981 -11.24974
 Alpha  occ. eigenvalues --  -11.24963 -11.24922 -11.24911 -11.24857 -11.21944
 Alpha  occ. eigenvalues --  -11.21833 -11.21646 -11.21637 -11.21477 -11.21473
 Alpha  occ. eigenvalues --  -11.21356 -11.20943  -1.40857  -1.26640  -1.26483
 Alpha  occ. eigenvalues --   -1.26439  -1.26288  -1.23644  -1.23522  -1.23092
 Alpha  occ. eigenvalues --   -1.22977  -1.18177  -1.17397  -1.16693  -1.09438
 Alpha  occ. eigenvalues --   -1.09221  -1.08818  -1.07628  -1.05684  -1.05648
 Alpha  occ. eigenvalues --   -1.04856  -1.03694  -1.03275  -1.02805  -0.95526
 Alpha  occ. eigenvalues --   -0.94781  -0.94480  -0.94330  -0.94112  -0.94002
 Alpha  occ. eigenvalues --   -0.93810  -0.93705  -0.90476  -0.90099  -0.89672
 Alpha  occ. eigenvalues --   -0.89201  -0.88275  -0.86767  -0.86433  -0.84893
 Alpha  occ. eigenvalues --   -0.83135  -0.80460  -0.79882  -0.79050  -0.77990
 Alpha  occ. eigenvalues --   -0.75346  -0.74497  -0.74339  -0.73150  -0.72652
 Alpha  occ. eigenvalues --   -0.72277  -0.71733  -0.71087  -0.70803  -0.69291
 Alpha  occ. eigenvalues --   -0.68548  -0.68132  -0.67036  -0.66672  -0.66210
 Alpha  occ. eigenvalues --   -0.65959  -0.65401  -0.65127  -0.64415  -0.64344
 Alpha  occ. eigenvalues --   -0.63698  -0.63291  -0.63169  -0.62686  -0.62520
 Alpha  occ. eigenvalues --   -0.62406  -0.61681  -0.61446  -0.60763  -0.60597
 Alpha  occ. eigenvalues --   -0.60391  -0.59980  -0.59808  -0.59365  -0.58168
 Alpha  occ. eigenvalues --   -0.56879  -0.56094  -0.55912  -0.55739  -0.55626
 Alpha  occ. eigenvalues --   -0.55423  -0.55100  -0.55060  -0.54436  -0.54246
 Alpha  occ. eigenvalues --   -0.54088  -0.53775  -0.53699  -0.53531  -0.53448
 Alpha  occ. eigenvalues --   -0.53375  -0.53131  -0.52822  -0.52386  -0.52237
 Alpha  occ. eigenvalues --   -0.51927  -0.51766  -0.51586  -0.51187  -0.50858
 Alpha  occ. eigenvalues --   -0.50222  -0.49600  -0.49566  -0.49286  -0.48759
 Alpha  occ. eigenvalues --   -0.48308  -0.48093  -0.47841  -0.45622  -0.45270
 Alpha  occ. eigenvalues --   -0.44927  -0.44490  -0.44024  -0.43433  -0.42286
 Alpha  occ. eigenvalues --   -0.40999  -0.40557  -0.40494  -0.40186  -0.39869
 Alpha  occ. eigenvalues --   -0.39760  -0.39573  -0.39211  -0.39055  -0.38132
 Alpha  occ. eigenvalues --   -0.34262  -0.32961  -0.32636  -0.32393  -0.32172
 Alpha  occ. eigenvalues --   -0.31686
 Alpha virt. eigenvalues --    0.03271   0.03512   0.03634   0.03663   0.04216
 Alpha virt. eigenvalues --    0.04289   0.04475   0.04498   0.04620   0.05064
 Alpha virt. eigenvalues --    0.05354   0.05377   0.05469   0.05517   0.05702

 Mulliken charges:
               1
     1  C    0.700997
     2  C    0.207359
     3  C    0.193446
     4  C    0.807852
     5  H   -0.832718
     6  C    0.253624
     7  C    1.130538
     8  H   -0.864479
     9  C    0.745212
    10  C    0.586318
    11  H   -1.055443
    12  C    0.703793
    13  H   -0.623400
    14  H   -1.069743
    15  H   -0.713370
    16  C    0.967873
    17  C    1.055989
    18  C    0.458938
    19  C    1.330296
    20  H   -0.978215
    21  C   -0.321667
    22  C    1.387352
    23  H   -0.931233
    24  C    0.193908
    25  C    0.583753
    26  H   -0.974552
    27  C    0.406469
    28  H   -0.766162
    29  H   -0.429749
    30  H   -0.925203
    31  C    1.387055
    32  C    0.643697
    33  C    0.463723
    34  C    0.760912
    35  H   -1.081759
    36  C    0.207587
    37  C    1.251737
    38  H   -0.923365
    39  C   -0.010755
    40  C    0.887076
    41  H   -1.022529
    42  C    0.182971
    43  H   -0.718006
    44  H   -0.861797
    45  C    1.269014
    46  C   -3.537617
    47  N   -0.588370
    48  N    0.086992
    49  O   -0.922106
    50  C    1.678757
    51  C   -2.694207
    52  N   -0.407220
    53  N   -0.399799
    54  C    1.249087
    55  C   -3.345673
    56  N   -0.678463
    57  N    0.147056
    58  C   -3.624010
    59  C    1.306885
    60  N   -0.081606
    61  N   -0.635353
    62  H   -0.617984
    63  H   -0.153861
    64  H   -0.332490
    65  H   -0.260755
    66  H   -0.152726
    67  H   -0.271889
    68  H   -0.134552
    69  C    1.560039
    70  H    0.074061
    71  H   -0.155938
    72  H    0.087990
    73  C    1.630442
    74  H   -0.006808
    75  H   -0.048098
    76  H   -0.057074
    77  C    1.098793
    78  H   -0.119695
    79  H   -0.024325
    80  H   -0.056172
    81  C    1.270642
    82  H    0.020940
    83  H   -0.054121
    84  H   -0.020849
    85  C    1.745255
    86  H    0.047194
    87  H   -0.241172
    88  H   -0.052820
    89  C    1.619708
    90  H   -0.061126
    91  H   -0.000242
    92  H   -0.040666
    93  C    1.502630
    94  H   -0.063815
    95  H    0.008732
    96  H   -0.060470
    97  H   -0.125183
    98  H   -0.287103
    99  C    1.572848
   100  H    0.067282
   101  H    0.042376
   102  H   -0.166692
 Sum of Mulliken charges =   0.00000

 Dipole moment (field-independent basis, Debye):
    X=              0.3450    Y=              0.3643    Z=             -3.8304  Tot=              3.8632
 Quadrupole moment (field-independent basis, Debye-Ang):
   XX=           -311.4970   YY=           -301.6148   ZZ=           -311.2527
   XY=              2.1614   XZ=              7.1448   YZ=             -7.6150

 Normal termination of Gaussian 16 at Tue Nov  2 15:00:09 2021.
