 Gaussian 16, Revision C.01,
 Gaussian 16:  ES64L-G16RevC.01  3-Jul-2019

 ----------------------------------------------------------------------
 #P PBE1PBE/Def2TZVP SP SCF=(YQC,MaxCycle=900) int=(Grid=Superfinegrid)
  EmpiricalDispersion=GD3
 ----------------------------------------------------------------------

 -------------------------
 _3_alde1_6_ami1_1_opt_gas
 -------------------------
 Symbolic Z-matrix:
 Charge =  0 Multiplicity = 1

                         Standard orientation:
 ---------------------------------------------------------------------
 Center     Atomic      Atomic             Coordinates (Angstroms)
 Number     Number       Type             X           Y           Z
 ---------------------------------------------------------------------
      1          6           0        2.897658   -2.108604    1.257138
      2          6           0        3.230402   -3.327385    0.439091
      3          6           0        3.708670   -0.993606    1.127720
      4          6           0        3.469087    0.163962    1.863117
      5          1           0        4.532248   -1.003680    0.433799
      6          6           0        2.391152    0.198837    2.737763
      7          6           0        1.574205   -0.919023    2.891460
      8          1           0        2.178105    1.075997    3.329066
      9          6           0        1.829617   -2.067008    2.140125
     10          6           0        0.495711   -0.912830    3.870597
     11          1           0        1.199158   -2.936423    2.266749
     12          6           0        4.347901    1.312250    1.686862
     13          1           0       -0.186445   -1.777730    3.846445
     14          1           0        3.927477    2.294221    1.953576
     15          6           0        1.057217    0.247634   -2.466119
     16          6           0        0.393550   -1.041865   -2.882421
     17          6           0        0.333578    1.426944   -2.402848
     18          6           0        0.946592    2.618962   -2.017035
     19          1           0       -0.719364    1.440130   -2.630953
     20          6           0        2.293422    2.619261   -1.685241
     21          6           0        3.034552    1.442113   -1.758937
     22          1           0        2.795337    3.525650   -1.383078
     23          6           0        2.408960    0.258290   -2.145066
     24          6           0        4.445870    1.436207   -1.412446
     25          1           0        2.975956   -0.660353   -2.180475
     26          6           0        0.171594    3.852309   -1.966842
     27          1           0        4.941166    0.455350   -1.460622
     28          1           0        0.534648    4.620497   -1.265169
     29          6           0       -4.398836   -0.135543    0.783495
     30          6           0       -5.311285   -1.330115    0.713853
     31          6           0       -3.686109    0.146281    1.935158
     32          6           0       -2.858593    1.268538    2.005404
     33          1           0       -3.752833   -0.493996    2.800843
     34          6           0       -2.773061    2.121253    0.911742
     35          6           0       -3.490760    1.851067   -0.250301
     36          1           0       -2.153167    3.004307    0.940606
     37          6           0       -4.287756    0.711158   -0.311797
     38          6           0       -3.437625    2.759535   -1.387271
     39          1           0       -4.833610    0.475679   -1.214118
     40          6           0       -2.113308    1.552975    3.223378
     41          1           0       -3.751512    2.334259   -2.354149
     42          1           0       -1.420730    2.407780    3.177267
     43          6           0        4.194682   -4.026684   -1.570381
     44          6           0        5.090527   -4.493086   -0.389085
     45          7           0        3.408100   -2.964150   -0.961549
     46          1           0        4.799293   -3.589988   -2.373446
     47          6           0        3.338868   -5.154734   -2.193169
     48          7           0        4.498776   -3.921382    0.824522
     49          1           0        5.017713   -5.582837   -0.285661
     50          6           0        6.584818   -4.139336   -0.507197
     51          1           0        2.664204   -5.536305   -1.417911
     52          6           0        4.182713   -6.311314   -2.724995
     53          6           0        2.505558   -4.598751   -3.349514
     54          1           0        7.034649   -4.420112    0.453585
     55          6           0        6.845931   -2.650335   -0.733660
     56          6           0        7.265769   -4.959875   -1.600392
     57          1           0        3.161065   -4.251391   -4.146743
     58          1           0        1.883139   -3.767198   -3.032414
     59          1           0        1.859156   -5.375576   -3.754084
     60          1           0        4.891023   -5.951755   -3.468170
     61          1           0        3.537937   -7.048716   -3.199409
     62          1           0        4.736379   -6.811019   -1.935877
     63          1           0        7.121600   -6.024206   -1.432335
     64          1           0        8.334696   -4.757777   -1.607506
     65          1           0        6.865817   -4.707728   -2.579081
     66          1           0        6.405173   -2.312440   -1.668055
     67          1           0        7.918202   -2.469746   -0.777120
     68          1           0        6.441380   -2.044838    0.073767
     69          6           0       -1.634348   -2.186956   -3.069194
     70          6           0       -0.709111   -2.933665   -2.066018
     71          7           0       -1.026678   -0.871310   -3.139643
     72          1           0       -2.648077   -2.069938   -2.664156
     73          6           0       -1.738094   -2.931268   -4.420957
     74          7           0        0.447545   -2.059730   -1.838685
     75          1           0       -0.328672   -3.840719   -2.553895
     76          6           0       -1.424320   -3.365233   -0.776120
     77          1           0       -0.722518   -3.143495   -4.776143
     78          6           0       -2.458720   -2.085566   -5.471825
     79          6           0       -2.488760   -4.250252   -4.249328
     80          1           0       -2.373209   -3.819138   -1.088226
     81          6           0       -1.727968   -2.188771    0.152221
     82          6           0       -0.611770   -4.429514   -0.042851
     83          1           0       -2.492404   -4.805518   -5.184672
     84          1           0       -3.520922   -4.055147   -3.966334
     85          1           0       -2.033290   -4.876122   -3.486339
     86          1           0       -1.873754   -1.216435   -5.766065
     87          1           0       -3.418376   -1.744692   -5.087702
     88          1           0       -2.636911   -2.678568   -6.366214
     89          1           0        0.374887   -4.041490    0.193772
     90          1           0       -0.493473   -5.318848   -0.658750
     91          1           0       -1.106923   -4.716395    0.882638
     92          1           0       -2.141515   -1.348820   -0.401432
     93          1           0       -0.832129   -1.852227    0.672216
     94          1           0       -2.446981   -2.485628    0.912715
     95          6           0       -6.504821   -2.694875   -0.788778
     96          6           0       -7.452307   -2.053438    0.267543
     97          7           0       -5.250474   -1.980287   -0.598571
     98          1           0       -6.868231   -2.467288   -1.801210
     99          6           0       -6.430118   -4.232776   -0.674753
    100          7           0       -6.704036   -0.952615    0.863531
    101          1           0       -7.623088   -2.784986    1.068356
    102          6           0       -8.824649   -1.643305   -0.281720
    103          1           0       -7.464663   -4.592639   -0.622736
    104          6           0       -5.687467   -4.715276    0.570473
    105          6           0       -5.778742   -4.826094   -1.923504
    106          1           0       -9.216768   -2.512864   -0.822947
    107          6           0       -8.762948   -0.461674   -1.250582
    108          6           0       -9.769558   -1.318461    0.873804
    109          1           0       -6.324897   -4.536607   -2.818763
    110          1           0       -5.764024   -5.912209   -1.866766
    111          1           0       -4.752196   -4.477521   -2.020393
    112          1           0       -6.130420   -4.313353    1.478460
    113          1           0       -4.639154   -4.422429    0.537995
    114          1           0       -5.728371   -5.801089    0.625792
    115          1           0       -9.923559   -2.192451    1.502319
    116          1           0      -10.735509   -0.991839    0.495513
    117          1           0       -9.344828   -0.527213    1.486302
    118          1           0       -8.594763    0.470706   -0.715360
    119          1           0       -9.708231   -0.372746   -1.781281
    120          1           0       -7.971696   -0.590824   -1.985488
    121          6           0        6.322104    2.318500    0.951521
    122          6           0        6.411326    2.372149   -0.602948
    123          7           0        5.520076    1.171678    1.245554
    124          1           0        5.828413    3.246057    1.290529
    125          6           0        7.686223    2.190265    1.653375
    126          7           0        5.060567    2.482975   -1.066718
    127          1           0        6.862297    1.419856   -0.930794
    128          6           0        7.243042    3.542585   -1.152615
    129          1           0        8.295818    3.055905    1.376078
    130          6           0        8.415903    0.909589    1.258845
    131          6           0        7.469781    2.225234    3.166598
    132          1           0        8.266434    3.446340   -0.776305
    133          6           0        6.673781    4.894645   -0.733511
    134          6           0        7.282506    3.440464   -2.677752
    135          1           0        6.874315    1.370050    3.478791
    136          1           0        6.949248    3.134212    3.461735
    137          1           0        8.424673    2.192564    3.686401
    138          1           0        9.304324    0.782776    1.873683
    139          1           0        8.725352    0.937212    0.217459
    140          1           0        7.760194    0.056473    1.407903
    141          1           0        6.276268    3.531150   -3.080349
    142          1           0        7.693620    2.482261   -2.989710
    143          1           0        7.899724    4.232299   -3.096009
    144          1           0        7.186779    5.695900   -1.261025
    145          1           0        6.795603    5.059294    0.333965
    146          1           0        5.616026    4.933081   -0.977202
    147          6           0       -0.624744   -0.034697    5.730112
    148          6           0       -1.557807    1.173703    5.465974
    149          7           0        0.391506    0.007669    4.724131
    150          1           0       -1.236121   -0.951018    5.645563
    151          6           0        0.066598   -0.022148    7.109494
    152          7           0       -2.276522    0.867469    4.267612
    153          1           0       -0.918877    2.065431    5.336016
    154          6           0       -2.581812    1.452108    6.585520
    155          1           0       -0.709564   -0.018386    7.880356
    156          6           0        0.961438    1.201218    7.284578
    157          6           0        0.887939   -1.300963    7.275920
    158          1           0       -2.032438    1.650292    7.510690
    159          6           0       -3.525693    0.272331    6.798289
    160          6           0       -3.382239    2.706863    6.235599
    161          1           0        1.688375   -1.334288    6.540053
    162          1           0        0.261970   -2.181766    7.145315
    163          1           0        1.328923   -1.338084    8.269378
    164          1           0        1.507259    1.132550    8.223254
    165          1           0        0.377139    2.117377    7.295722
    166          1           0        1.673901    1.251527    6.466099
    167          1           0       -3.962105    2.543513    5.329957
    168          1           0       -2.719757    3.554951    6.073283
    169          1           0       -4.065435    2.955121    7.044818
    170          1           0       -4.293269    0.535299    7.523204
    171          1           0       -2.990664   -0.598037    7.168609
    172          1           0       -4.003944    0.014491    5.857715
    173          6           0       -1.590351    5.241305   -2.609030
    174          6           0       -3.064903    4.816847   -2.413787
    175          7           0       -0.839525    4.023389   -2.696415
    176          1           0       -1.278724    5.830972   -1.729900
    177          6           0       -1.345620    6.091999   -3.873721
    178          7           0       -3.090861    3.963645   -1.262400
    179          1           0       -3.376022    4.261252   -3.316061
    180          6           0       -4.040617    5.990935   -2.197891
    181          1           0       -1.990542    6.974503   -3.813505
    182          6           0       -1.661310    5.323965   -5.154376
    183          6           0        0.106122    6.570120   -3.894705
    184          1           0       -3.979804    6.646899   -3.072358
    185          6           0       -3.707941    6.791034   -0.941656
    186          6           0       -5.467989    5.449937   -2.110912
    187          1           0        0.783475    5.722197   -3.971350
    188          1           0        0.344602    7.123507   -2.988343
    189          1           0        0.274181    7.223445   -4.747913
    190          1           0       -1.130611    4.375672   -5.152861
    191          1           0       -1.349113    5.902243   -6.021491
    192          1           0       -2.726635    5.129183   -5.243974
    193          1           0       -6.178081    6.269757   -2.028539
    194          1           0       -5.573810    4.810308   -1.237529
    195          1           0       -5.716087    4.869299   -2.997550
    196          1           0       -4.498392    7.510098   -0.737760
    197          1           0       -2.775915    7.337608   -1.058489
    198          1           0       -3.616661    6.117136   -0.094317
    199          1           0       -1.214888   -0.389976   -4.008254
    200          1           0        0.935034   -1.449846   -3.764507
    201          1           0        0.354463   -1.594975   -0.940858
    202          1           0       -6.862644   -0.104270    0.328452
    203          1           0       -4.436327   -2.571360   -0.698997
    204          1           0       -5.069383   -2.023638    1.540829
    205          1           0        5.105210   -3.203729    1.205719
    206          1           0        2.518612   -2.790558   -1.419574
    207          1           0        2.451224   -4.103206    0.582755
 ---------------------------------------------------------------------

 SCF Done:  E(RPBE1PBE) =  -3584.40239033     a.u. after    7 cycles
 SCF Done:  E(RPBE1PBE) =  -3584.40240995     A.U. after    8 cycles

 The electronic state is 1-A.
 Alpha  occ. eigenvalues --  -14.37916 -14.37027 -14.36914 -14.36908 -14.36906
 Alpha  occ. eigenvalues --  -14.36897 -14.36885 -14.36847 -14.36802 -14.36489
 Alpha  occ. eigenvalues --  -14.35910 -14.35436 -10.28305 -10.27758 -10.27035
 Alpha  occ. eigenvalues --  -10.26090 -10.26002 -10.25896 -10.25875 -10.25860
 Alpha  occ. eigenvalues --  -10.25580 -10.25390 -10.25096 -10.24806 -10.24701
 Alpha  occ. eigenvalues --  -10.24590 -10.24515 -10.24502 -10.24447 -10.24411
 Alpha  occ. eigenvalues --  -10.24408 -10.24123 -10.24098 -10.23621 -10.23537
 Alpha  occ. eigenvalues --  -10.23377 -10.23374 -10.23339 -10.23311 -10.23295
 Alpha  occ. eigenvalues --  -10.23270 -10.23254 -10.23230 -10.23200 -10.23166
 Alpha  occ. eigenvalues --  -10.23162 -10.23160 -10.22862 -10.22793 -10.22769
 Alpha  occ. eigenvalues --  -10.22737 -10.22541 -10.22488 -10.22463 -10.22423
 Alpha  occ. eigenvalues --  -10.22327 -10.22280 -10.22244 -10.22218 -10.22179
 Alpha  occ. eigenvalues --  -10.22129 -10.22084 -10.21959 -10.21535 -10.21504
 Alpha  occ. eigenvalues --  -10.21458 -10.21417 -10.21294 -10.21218 -10.21028
 Alpha  occ. eigenvalues --  -10.20495 -10.20470 -10.20465 -10.20395 -10.20257
 Alpha  occ. eigenvalues --  -10.20122 -10.20023 -10.19884 -10.19861 -10.19786
 Alpha  occ. eigenvalues --  -10.19762 -10.19714 -10.19582 -10.19573 -10.19502
 Alpha  occ. eigenvalues --  -10.19476 -10.19472  -1.00004  -0.99560  -0.98519
 Alpha  occ. eigenvalues --   -0.97374  -0.97138  -0.97073  -0.94660  -0.94490
 Alpha  occ. eigenvalues --   -0.94093  -0.89574  -0.89260  -0.89164  -0.89065
 Alpha  occ. eigenvalues --   -0.88736  -0.87554  -0.84773  -0.84551  -0.84246
 Alpha  occ. eigenvalues --   -0.84054  -0.83740  -0.83197  -0.81920  -0.81809
 Alpha  occ. eigenvalues --   -0.81528  -0.81462  -0.81362  -0.80837  -0.79422
 Alpha  occ. eigenvalues --   -0.79360  -0.79233  -0.79013  -0.78859  -0.78588
 Alpha  occ. eigenvalues --   -0.74594  -0.74075  -0.73868  -0.73451  -0.73313
 Alpha  occ. eigenvalues --   -0.72696  -0.71616  -0.71417  -0.71280  -0.71024
 Alpha  occ. eigenvalues --   -0.70742  -0.70166  -0.70114  -0.69988  -0.69941
 Alpha  occ. eigenvalues --   -0.69833  -0.69670  -0.69661  -0.68576  -0.68459
 Alpha  occ. eigenvalues --   -0.68428  -0.66684  -0.66449  -0.65956  -0.65632
 Alpha  occ. eigenvalues --   -0.65040  -0.64738  -0.64677  -0.64440  -0.63916
 Alpha  occ. eigenvalues --   -0.63147  -0.62620  -0.62237  -0.60239  -0.59937
 Alpha  occ. eigenvalues --   -0.59659  -0.59264  -0.59113  -0.59097  -0.59065
 Alpha  occ. eigenvalues --   -0.58559  -0.58356  -0.57748  -0.57319  -0.57102
 Alpha  occ. eigenvalues --   -0.56341  -0.55824  -0.55710  -0.55049  -0.54826
 Alpha  occ. eigenvalues --   -0.54628  -0.53841  -0.53378  -0.53275  -0.52802
 Alpha  occ. eigenvalues --   -0.52347  -0.51881  -0.51128  -0.51063  -0.50985
 Alpha  occ. eigenvalues --   -0.50502  -0.50426  -0.49978  -0.49956  -0.49589
 Alpha  occ. eigenvalues --   -0.49550  -0.49147  -0.49001  -0.48862  -0.48711
 Alpha  occ. eigenvalues --   -0.48369  -0.47924  -0.47883  -0.47413  -0.47314
 Alpha  occ. eigenvalues --   -0.47109  -0.46965  -0.46794  -0.46745  -0.46538
 Alpha  occ. eigenvalues --   -0.46206  -0.46057  -0.45851  -0.45787  -0.45268
 Alpha  occ. eigenvalues --   -0.45133  -0.44919  -0.44768  -0.44679  -0.44506
 Alpha  occ. eigenvalues --   -0.44427  -0.44337  -0.44249  -0.43913  -0.43884
 Alpha  occ. eigenvalues --   -0.43622  -0.43475  -0.43305  -0.43081  -0.43080
 Alpha  occ. eigenvalues --   -0.42772  -0.42689  -0.42460  -0.42406  -0.42335
 Alpha  occ. eigenvalues --   -0.42192  -0.41894  -0.41851  -0.41803  -0.41720
 Alpha  occ. eigenvalues --   -0.41696  -0.41240  -0.41079  -0.40897  -0.40783
 Alpha  occ. eigenvalues --   -0.40519  -0.40434  -0.40377  -0.40195  -0.40088
 Alpha  occ. eigenvalues --   -0.40005  -0.39973  -0.39878  -0.39859  -0.39642
 Alpha  occ. eigenvalues --   -0.39577  -0.39320  -0.39232  -0.39090  -0.39020
 Alpha  occ. eigenvalues --   -0.38876  -0.38831  -0.38749  -0.38615  -0.38590
 Alpha  occ. eigenvalues --   -0.38397  -0.38181  -0.38077  -0.37963  -0.37726
 Alpha  occ. eigenvalues --   -0.37615  -0.37470  -0.37342  -0.37173  -0.36932
 Alpha  occ. eigenvalues --   -0.36778  -0.36598  -0.36356  -0.36320  -0.36122
 Alpha  occ. eigenvalues --   -0.35953  -0.35898  -0.35834  -0.35620  -0.35407
 Alpha  occ. eigenvalues --   -0.35222  -0.35124  -0.34918  -0.34780  -0.34736
 Alpha  occ. eigenvalues --   -0.34522  -0.34517  -0.34484  -0.34404  -0.34362
 Alpha  occ. eigenvalues --   -0.34332  -0.34318  -0.34301  -0.34035  -0.33864
 Alpha  occ. eigenvalues --   -0.33825  -0.33779  -0.33711  -0.33672  -0.33577
 Alpha  occ. eigenvalues --   -0.33446  -0.33236  -0.32820  -0.32597  -0.32451
 Alpha  occ. eigenvalues --   -0.32426  -0.32303  -0.31981  -0.31851  -0.31846
 Alpha  occ. eigenvalues --   -0.31270  -0.30640  -0.30476  -0.29971  -0.26692
 Alpha  occ. eigenvalues --   -0.26591  -0.26491  -0.26408  -0.26342  -0.26145
 Alpha  occ. eigenvalues --   -0.25883  -0.25783  -0.25643  -0.25455  -0.25384
 Alpha  occ. eigenvalues --   -0.25230  -0.24710  -0.24630  -0.24068  -0.23877
 Alpha  occ. eigenvalues --   -0.23698  -0.22866
 Alpha virt. eigenvalues --   -0.05360  -0.05022  -0.04709  -0.03798  -0.03518
 Alpha virt. eigenvalues --   -0.03396   0.01593   0.01982   0.02126   0.02247
 Alpha virt. eigenvalues --    0.02906   0.03094   0.03733   0.03851   0.04136

 Mulliken charges:
               1
     1  C    0.367358
     2  C   -0.102830
     3  C   -0.334968
     4  C    0.316870
     5  H    0.205043
     6  C   -0.350415
     7  C    0.404912
     8  H    0.123443
     9  C   -0.455697
    10  C   -0.204806
    11  H    0.130238
    12  C   -0.201227
    13  H    0.065582
    14  H    0.074671
    15  C    0.233652
    16  C    0.007917
    17  C   -0.300660
    18  C    0.394591
    19  H    0.148528
    20  C   -0.381899
    21  C    0.312425
    22  H    0.133523
    23  C   -0.312269
    24  C   -0.189314
    25  H    0.132929
    26  C   -0.206320
    27  H    0.101288
    28  H    0.076264
    29  C    0.303900
    30  C   -0.149389
    31  C   -0.338941
    32  C    0.413766
    33  H    0.122711
    34  C   -0.353579
    35  C    0.359665
    36  H    0.117092
    37  C   -0.311217
    38  C   -0.187633
    39  H    0.124540
    40  C   -0.217827
    41  H    0.065392
    42  H    0.070261
    43  C    0.023660
    44  C    0.081162
    45  N   -0.277354
    46  H    0.066143
    47  C   -0.077987
    48  N   -0.238125
    49  H    0.064221
    50  C   -0.103182
    51  H    0.074571
    52  C   -0.346462
    53  C   -0.371487
    54  H    0.089329
    55  C   -0.390143
    56  C   -0.354132
    57  H    0.113135
    58  H    0.103066
    59  H    0.113596
    60  H    0.107605
    61  H    0.123398
    62  H    0.117379
    63  H    0.119016
    64  H    0.125638
    65  H    0.107781
    66  H    0.109628
    67  H    0.129284
    68  H    0.117795
    69  C    0.046589
    70  C    0.065411
    71  N   -0.298954
    72  H    0.090484
    73  C   -0.081942
    74  N   -0.391135
    75  H    0.083376
    76  C   -0.022599
    77  H    0.092171
    78  C   -0.391648
    79  C   -0.392403
    80  H    0.082048
    81  C   -0.566909
    82  C   -0.317188
    83  H    0.129556
    84  H    0.122764
    85  H    0.122728
    86  H    0.114392
    87  H    0.128094
    88  H    0.126839
    89  H    0.064791
    90  H    0.121711
    91  H    0.120831
    92  H    0.192734
    93  H    0.156156
    94  H    0.124104
    95  C    0.139711
    96  C   -0.030415
    97  N   -0.269935
    98  H    0.046809
    99  C   -0.104528
   100  N   -0.237402
   101  H    0.051869
   102  C   -0.035468
   103  H    0.073445
   104  C   -0.382321
   105  C   -0.344045
   106  H    0.074251
   107  C   -0.433417
   108  C   -0.363690
   109  H    0.121549
   110  H    0.124585
   111  H    0.091535
   112  H    0.130613
   113  H    0.107427
   114  H    0.130326
   115  H    0.115918
   116  H    0.120587
   117  H    0.134117
   118  H    0.127924
   119  H    0.128571
   120  H    0.134820
   121  C    0.106180
   122  C    0.086011
   123  N   -0.260798
   124  H    0.080790
   125  C   -0.017682
   126  N   -0.262697
   127  H    0.086108
   128  C   -0.002690
   129  H    0.082730
   130  C   -0.411284
   131  C   -0.382855
   132  H    0.080790
   133  C   -0.410032
   134  C   -0.388092
   135  H    0.130331
   136  H    0.112014
   137  H    0.120630
   138  H    0.117500
   139  H    0.119254
   140  H    0.139511
   141  H    0.132692
   142  H    0.110770
   143  H    0.119765
   144  H    0.116203
   145  H    0.118838
   146  H    0.138069
   147  C    0.097147
   148  C    0.087312
   149  N   -0.232165
   150  H    0.076339
   151  C   -0.023189
   152  N   -0.231360
   153  H    0.079033
   154  C   -0.025303
   155  H    0.084236
   156  C   -0.403480
   157  C   -0.381942
   158  H    0.083841
   159  C   -0.403418
   160  C   -0.381585
   161  H    0.133935
   162  H    0.110466
   163  H    0.122000
   164  H    0.117091
   165  H    0.118984
   166  H    0.138917
   167  H    0.134384
   168  H    0.111493
   169  H    0.121301
   170  H    0.116795
   171  H    0.117894
   172  H    0.140758
   173  C    0.095165
   174  C    0.131075
   175  N   -0.252001
   176  H    0.077658
   177  C   -0.013907
   178  N   -0.247781
   179  H    0.067484
   180  C   -0.009261
   181  H    0.079283
   182  C   -0.408415
   183  C   -0.388281
   184  H    0.078028
   185  C   -0.409828
   186  C   -0.385699
   187  H    0.131367
   188  H    0.112780
   189  H    0.123365
   190  H    0.137880
   191  H    0.116629
   192  H    0.117387
   193  H    0.122414
   194  H    0.131132
   195  H    0.109353
   196  H    0.116185
   197  H    0.117654
   198  H    0.141302
   199  H    0.192885
   200  H    0.081430
   201  H    0.212333
   202  H    0.184945
   203  H    0.150745
   204  H    0.079278
   205  H    0.187651
   206  H    0.172621
   207  H    0.065666
 Sum of Mulliken charges =   0.00000

 Dipole moment (field-independent basis, Debye):
    X=             -2.4589    Y=             -2.4874    Z=             -2.9040  Tot=              4.5460
 Quadrupole moment (field-independent basis, Debye-Ang):
   XX=           -530.0275   YY=           -528.9518   ZZ=           -539.3693
   XY=             15.3098   XZ=              9.4560   YZ=              9.2621

 Normal termination of Gaussian 16 at Mon Oct 18 14:25:03 2021.
