 Gaussian 16, Revision C.01,
 Gaussian 16:  ES64L-G16RevC.01  3-Jul-2019

 ----------------------------------------------------------------------
 #P MP2/aug-cc-pVDZ SP SCF=(YQC,MaxCycle=900) int=(Grid=Superfinegrid)
 SCRF=(PCM,Solvent=Dichloromethane)
 ----------------------------------------------------------------------

 -----------------------------
 _3_alde1_5_ami3_2_opt_dcm_mp2
 -----------------------------
 Symbolic Z-matrix:
 Charge =  0 Multiplicity = 1

                         Standard orientation:
 ---------------------------------------------------------------------
 Center     Atomic      Atomic             Coordinates (Angstroms)
 Number     Number       Type             X           Y           Z
 ---------------------------------------------------------------------
      1          6           0        0.727597   -2.972786   -0.649754
      2          6           0       -0.118204   -3.095539   -1.825646
      3          6           0        0.197633   -2.957553    0.639250
      4          6           0        1.023971   -2.757391    1.740375
      5          1           0       -0.865508   -3.099684    0.759807
      6          6           0        2.384113   -2.516131    1.543852
      7          6           0        2.926141   -2.528564    0.264287
      8          1           0        2.999671   -2.327873    2.410215
      9          6           0        2.094858   -2.789117   -0.823574
     10          6           0        4.321674   -2.176631    0.038197
     11          1           0        2.536366   -2.807412   -1.807471
     12          6           0        0.460092   -2.772277    3.081381
     13          1           0        4.813524   -1.639378    0.864563
     14          1           0        0.424526   -3.186654   -2.778871
     15          1           0       -0.622369   -2.961729    3.136298
     16          6           0       -2.734780    0.659471    1.291395
     17          6           0       -3.786133   -0.176463    0.724408
     18          6           0       -2.458365    1.921515    0.766909
     19          6           0       -1.462329    2.719706    1.318150
     20          1           0       -3.040730    2.268610   -0.073796
     21          6           0       -0.714228    2.235661    2.390896
     22          6           0       -0.979855    0.981232    2.926640
     23          1           0        0.063982    2.863412    2.796960
     24          6           0       -1.997788    0.202766    2.377667
     25          6           0       -0.180574    0.464816    4.029152
     26          1           0       -2.191805   -0.765726    2.812167
     27          6           0       -1.191814    4.030464    0.748764
     28          1           0        0.785691    0.966387    4.194869
     29          1           0       -3.933314   -1.135478    1.233570
     30          1           0       -1.748889    4.267963   -0.171205
     31          6           0        0.441693    0.773621   -2.482727
     32          6           0       -0.881529    0.174873   -2.602780
     33          6           0        1.568209    0.055490   -2.879039
     34          6           0        2.847452    0.522951   -2.598047
     35          1           0        1.420553   -0.894288   -3.368455
     36          6           0        2.999373    1.747594   -1.949830
     37          6           0        1.885832    2.508620   -1.614479
     38          1           0        3.997642    2.088024   -1.720808
     39          6           0        0.609205    2.009913   -1.869766
     40          6           0        2.037558    3.775548   -0.908804
     41          1           0       -0.243333    2.594472   -1.560797
     42          6           0        3.991098   -0.327241   -2.886773
     43          1           0        2.946989    3.871297   -0.293966
     44          1           0        3.764124   -1.236775   -3.463578
     45          6           0       -2.369833   -1.474155   -3.313205
     46          6           0       -2.081142   -2.969937   -3.032422
     47          7           0       -1.106245   -0.807386   -3.360620
     48          7           0       -1.379058   -3.039487   -1.786445
     49          6           0       -6.785661    0.383377   -0.833480
     50          6           0       -5.527622   -0.531100   -0.862943
     51          7           0       -6.555781    1.706893   -1.375172
     52          7           0       -4.452526    0.206716   -0.276130
     53          6           0        0.515542   -2.535040    5.389968
     54          6           0        0.285727   -1.045827    5.743471
     55          7           0        1.160861   -2.584986    4.114100
     56          7           0       -0.568878   -0.503347    4.736514
     57          6           0        6.216774   -1.897398   -1.291629
     58          6           0        6.152567   -1.098473   -2.617603
     59          7           0        4.907821   -2.417787   -1.051470
     60          7           0        5.152586   -0.088190   -2.453868
     61          6           0       -0.080415    6.047813    0.542838
     62          6           0        1.285004    5.848425   -0.153806
     63          7           0       -0.370956    4.843110    1.256623
     64          7           0        1.167334    4.683315   -0.974167
     65          1           0       -5.788902    2.143501   -0.874777
     66          1           0       -6.280689    1.638261   -2.350501
     67          1           0       -1.654381    0.598850   -1.942667
     68          6           0       -5.862508   -1.899835   -0.265577
     69          6           0       -3.100209   -1.349532   -4.651571
     70          6           0        1.604112    7.092858   -0.983218
     71          6           0        7.244116   -3.020485   -1.439060
     72          6           0       -0.382769   -0.949274    7.115750
     73          1           0        1.266568   -0.536768    5.768800
     74          6           0        0.481796   -1.614071    8.181165
     75          1           0       -0.543012    0.103629    7.357801
     76          1           0       -1.358957   -1.434244    7.062783
     77          6           0        0.741541   -3.075708    7.828871
     78          1           0       -0.015771   -1.546501    9.150757
     79          1           0        1.434713   -1.084787    8.255487
     80          6           0        1.392556   -3.188520    6.454714
     81          1           0       -0.205283   -3.620873    7.826262
     82          1           0        1.388259   -3.531044    8.581375
     83          1           0        2.365721   -2.694908    6.454518
     84          1           0        1.548130   -4.236639    6.191793
     85          1           0       -0.476978   -3.018240    5.361698
     86          1           0       -3.003258   -1.078917   -2.499712
     87          6           0       -4.400974   -2.145789   -4.632021
     88          1           0       -2.444092   -1.717046   -5.442613
     89          1           0       -3.303517   -0.294238   -4.847545
     90          6           0       -4.138924   -3.612852   -4.303349
     91          1           0       -4.894777   -2.064012   -5.602701
     92          1           0       -5.072215   -1.722542   -3.880655
     93          6           0       -3.392708   -3.746013   -2.979840
     94          1           0       -3.540885   -4.059583   -5.101048
     95          1           0       -5.084517   -4.156728   -4.250352
     96          1           0       -3.179235   -4.795728   -2.768515
     97          1           0       -3.999222   -3.355343   -2.162312
     98          1           0       -1.457028   -3.339429   -3.865716
     99          1           0        2.063234    5.719649    0.619860
    100          6           0       -0.001324    7.252619    1.475416
    101          1           0       -0.827669    6.233526   -0.249708
    102          6           0        0.349400    8.505212    0.678034
    103          1           0        0.756007    7.060537    2.237149
    104          1           0       -0.961065    7.380030    1.980054
    105          6           0        1.662426    8.320356   -0.078949
    106          1           0        0.427926    9.360967    1.351338
    107          1           0       -0.451752    8.712935   -0.035261
    108          1           0        2.478322    8.200251    0.637833
    109          1           0        1.872325    9.207892   -0.679340
    110          1           0        0.833473    7.217253   -1.745896
    111          1           0        2.560605    6.948572   -1.490749
    112          1           0        6.535183   -1.213061   -0.484445
    113          6           0        7.520905   -0.492245   -2.911487
    114          1           0        5.875496   -1.812948   -3.413226
    115          6           0        8.568689   -1.594607   -3.030639
    116          1           0        7.781490    0.195450   -2.105363
    117          1           0        7.466356    0.081671   -3.838543
    118          6           0        8.617096   -2.437781   -1.759063
    119          1           0        9.548979   -1.152988   -3.219866
    120          1           0        8.321043   -2.236129   -3.879825
    121          1           0        9.339789   -3.247602   -1.877607
    122          1           0        8.946538   -1.814227   -0.924617
    123          1           0        6.920443   -3.692390   -2.235702
    124          1           0        7.281485   -3.593205   -0.509691
    125          1           0       -5.250454   -0.655554   -1.920779
    126          6           0       -7.923181   -0.292748   -1.597894
    127          1           0       -7.079053    0.515538    0.215524
    128          6           0       -8.239513   -1.668649   -1.022815
    129          1           0       -7.635150   -0.391131   -2.648064
    130          1           0       -8.801143    0.352707   -1.552792
    131          6           0       -6.997916   -2.554584   -1.045221
    132          1           0       -9.040379   -2.134774   -1.600153
    133          1           0       -8.588318   -1.559564    0.006547
    134          1           0       -6.685299   -2.718037   -2.079784
    135          1           0       -7.227122   -3.529935   -0.610137
    136          1           0       -6.166053   -1.773125    0.777081
    137          1           0       -4.975864   -2.539626   -0.288298
 ---------------------------------------------------------------------

 SCF Done:  E(RHF) =  -2744.02978376     a.u. after    7 cycles
 SCF Done:  E(RHF) =  -2744.02983472     A.U. after   28 cycles
 E2 =    -0.9738517456D+01 EUMP2 =    -0.27537683521725D+04

 The electronic state is 1-A.
 Alpha  occ. eigenvalues --  -15.56161 -15.56112 -15.56105 -15.56074 -15.56001
 Alpha  occ. eigenvalues --  -15.55945 -15.55866 -15.55845 -15.55833 -15.54083
 Alpha  occ. eigenvalues --  -11.28692 -11.28687 -11.28646 -11.28599 -11.28547
 Alpha  occ. eigenvalues --  -11.28502 -11.28498 -11.28491 -11.28490 -11.25637
 Alpha  occ. eigenvalues --  -11.25619 -11.25584 -11.25534 -11.25460 -11.25432
 Alpha  occ. eigenvalues --  -11.25429 -11.25428 -11.25413 -11.25385 -11.25374
 Alpha  occ. eigenvalues --  -11.25365 -11.25356 -11.25347 -11.25324 -11.25311
 Alpha  occ. eigenvalues --  -11.25300 -11.25279 -11.25246 -11.25142 -11.25133
 Alpha  occ. eigenvalues --  -11.25127 -11.25124 -11.25105 -11.25078 -11.25073
 Alpha  occ. eigenvalues --  -11.25070 -11.25032 -11.22103 -11.22094 -11.22083
 Alpha  occ. eigenvalues --  -11.22059 -11.22043 -11.22029 -11.22005 -11.21970
 Alpha  occ. eigenvalues --  -11.21953 -11.21952 -11.21906 -11.21903 -11.21887
 Alpha  occ. eigenvalues --  -11.21856 -11.21845 -11.21826 -11.21825 -11.21804
 Alpha  occ. eigenvalues --  -11.21774 -11.21693  -1.26807  -1.26638  -1.26609
 Alpha  occ. eigenvalues --   -1.26543  -1.25243  -1.23800  -1.23641  -1.23291
 Alpha  occ. eigenvalues --   -1.23200  -1.18810  -1.17854  -1.16989  -1.16966
 Alpha  occ. eigenvalues --   -1.11787  -1.11606  -1.11546  -1.10819  -1.09951
 Alpha  occ. eigenvalues --   -1.06089  -1.06054  -1.06028  -1.05952  -1.05871
 Alpha  occ. eigenvalues --   -1.05867  -1.00771  -1.00677  -1.00382  -1.00194
 Alpha  occ. eigenvalues --   -1.00136  -0.99784  -0.99191  -0.99110  -0.98941
 Alpha  occ. eigenvalues --   -0.97564  -0.90349  -0.90249  -0.90097  -0.89548
 Alpha  occ. eigenvalues --   -0.89405  -0.88609  -0.87908  -0.87739  -0.86476
 Alpha  occ. eigenvalues --   -0.83610  -0.83164  -0.83017  -0.82861  -0.82393
 Alpha  occ. eigenvalues --   -0.82356  -0.81713  -0.80959  -0.80152  -0.79989
 Alpha  occ. eigenvalues --   -0.77658  -0.76947  -0.76913  -0.76823  -0.76698
 Alpha  occ. eigenvalues --   -0.75127  -0.75085  -0.74721  -0.74630  -0.74313
 Alpha  occ. eigenvalues --   -0.73520  -0.70934  -0.70569  -0.70367  -0.69526
 Alpha  occ. eigenvalues --   -0.69251  -0.68992  -0.67315  -0.67093  -0.66975
 Alpha  occ. eigenvalues --   -0.66575  -0.65900  -0.65767  -0.65691  -0.65456
 Alpha  occ. eigenvalues --   -0.65248  -0.65054  -0.63633  -0.63164  -0.62860
 Alpha  occ. eigenvalues --   -0.62829  -0.62660  -0.62643  -0.62480  -0.62148
 Alpha  occ. eigenvalues --   -0.61250  -0.61164  -0.60672  -0.60539  -0.60192
 Alpha  occ. eigenvalues --   -0.60045  -0.59775  -0.59394  -0.59270  -0.59105
 Alpha  occ. eigenvalues --   -0.59084  -0.57829  -0.57764  -0.57661  -0.57564
 Alpha  occ. eigenvalues --   -0.57193  -0.56530  -0.56322  -0.56144  -0.56082
 Alpha  occ. eigenvalues --   -0.56014  -0.55492  -0.54293  -0.54100  -0.53994
 Alpha  occ. eigenvalues --   -0.53850  -0.53678  -0.53633  -0.53326  -0.52885
 Alpha  occ. eigenvalues --   -0.52668  -0.52465  -0.52385  -0.51778  -0.51747
 Alpha  occ. eigenvalues --   -0.51497  -0.50212  -0.49770  -0.49239  -0.49059
 Alpha  occ. eigenvalues --   -0.48889  -0.48874  -0.48813  -0.48645  -0.48529
 Alpha  occ. eigenvalues --   -0.48373  -0.47461  -0.47322  -0.47198  -0.47176
 Alpha  occ. eigenvalues --   -0.46998  -0.46893  -0.46741  -0.46453  -0.46414
 Alpha  occ. eigenvalues --   -0.46314  -0.46233  -0.45723  -0.45560  -0.45259
 Alpha  occ. eigenvalues --   -0.44764  -0.44356  -0.43653  -0.43497  -0.43014
 Alpha  occ. eigenvalues --   -0.42852  -0.42486  -0.41183  -0.40980  -0.40867
 Alpha  occ. eigenvalues --   -0.40783  -0.40777  -0.40535  -0.40148  -0.40049
 Alpha  occ. eigenvalues --   -0.39671  -0.39125  -0.39004  -0.38796  -0.37623
 Alpha  occ. eigenvalues --   -0.32972  -0.32634  -0.32494  -0.32355  -0.32201
 Alpha  occ. eigenvalues --   -0.31908
 Alpha virt. eigenvalues --    0.03231   0.03396   0.03538   0.03602   0.03882
 Alpha virt. eigenvalues --    0.03900   0.03978   0.04157   0.04182   0.04465
 Alpha virt. eigenvalues --    0.04646   0.04801   0.04925   0.05060   0.05143

 Mulliken charges:
               1
     1  C    1.768148
     2  C    0.452683
     3  C    0.151060
     4  C    1.549120
     5  H   -1.077615
     6  C   -0.126274
     7  C    1.435297
     8  H   -0.871845
     9  C    0.105002
    10  C    0.496649
    11  H   -1.068940
    12  C    0.595665
    13  H   -0.811441
    14  H   -0.791973
    15  H   -0.741826
    16  C    1.507661
    17  C   -0.025656
    18  C    0.371533
    19  C    1.803204
    20  H   -0.965218
    21  C   -0.198047
    22  C    1.354262
    23  H   -0.930689
    24  C    0.228397
    25  C    0.392714
    26  H   -1.086462
    27  C    0.315536
    28  H   -0.805264
    29  H   -0.939475
    30  H   -0.804445
    31  C    0.711790
    32  C    1.012469
    33  C    0.531191
    34  C    1.508183
    35  H   -1.077956
    36  C   -0.044792
    37  C    1.059807
    38  H   -0.860315
    39  C    0.630009
    40  C    0.218647
    41  H   -0.632445
    42  C    0.464575
    43  H   -0.696365
    44  H   -0.713017
    45  C   -0.115912
    46  C   -0.111108
    47  N   -0.489088
    48  N   -0.451645
    49  C    0.488466
    50  C    0.062917
    51  N   -0.354566
    52  N   -0.060184
    53  C   -0.413705
    54  C   -0.377624
    55  N   -0.537274
    56  N   -0.250910
    57  C   -0.380659
    58  C   -0.108107
    59  N   -0.405835
    60  N   -0.627230
    61  C   -0.092424
    62  C   -0.202425
    63  N   -0.610940
    64  N   -0.558836
    65  H    0.005210
    66  H    0.051550
    67  H   -1.409164
    68  C    0.748259
    69  C    0.717336
    70  C    0.780298
    71  C    0.810918
    72  C    0.915265
    73  H   -0.313753
    74  C    0.545997
    75  H   -0.239467
    76  H   -0.146966
    77  C    0.559659
    78  H   -0.142007
    79  H   -0.084182
    80  C    0.959471
    81  H   -0.080200
    82  H   -0.146879
    83  H   -0.143537
    84  H   -0.211632
    85  H   -0.405784
    86  H   -0.527472
    87  C    0.769226
    88  H   -0.128560
    89  H   -0.248383
    90  C    0.505192
    91  H   -0.207683
    92  H   -0.267986
    93  C    0.939951
    94  H   -0.132742
    95  H   -0.198879
    96  H   -0.304838
    97  H   -0.237832
    98  H   -0.358593
    99  H   -0.267950
   100  C    0.904236
   101  H   -0.334552
   102  C    0.532128
   103  H   -0.135834
   104  H   -0.220232
   105  C    0.559405
   106  H   -0.142167
   107  H   -0.085580
   108  H   -0.092421
   109  H   -0.143095
   110  H   -0.109171
   111  H   -0.216577
   112  H   -0.299093
   113  C    0.816006
   114  H   -0.387458
   115  C    0.527392
   116  H   -0.120421
   117  H   -0.205635
   118  C    0.531183
   119  H   -0.144791
   120  H   -0.080634
   121  H   -0.139464
   122  H   -0.079521
   123  H   -0.127632
   124  H   -0.228268
   125  H   -0.554887
   126  C    0.691082
   127  H   -0.363294
   128  C    0.606058
   129  H   -0.093876
   130  H   -0.150924
   131  C    0.559699
   132  H   -0.169233
   133  H   -0.106310
   134  H   -0.135491
   135  H   -0.168420
   136  H   -0.221659
   137  H   -0.370846
 Sum of Mulliken charges =   0.00000

 Dipole moment (field-independent basis, Debye):
    X=              1.4124    Y=             -1.5102    Z=              0.9568  Tot=              2.2784
 Quadrupole moment (field-independent basis, Debye-Ang):
   XX=           -397.4079   YY=           -401.4046   ZZ=           -396.4795
   XY=             21.1342   XZ=              6.9721   YZ=              7.0274

 Normal termination of Gaussian 16 at Thu Nov 18 01:46:31 2021.
