 Gaussian 16, Revision C.01,
 Gaussian 16:  ES64L-G16RevC.01  3-Jul-2019

 ----------------------------------------------------------------------
 #P MP2/aug-cc-pVDZ SP SCF=(YQC,MaxCycle=900) int=(Grid=Superfinegrid)
 SCRF=(PCM,Solvent=Dichloromethane)
 ----------------------------------------------------------------------

 -----------------------------
 _3_alde1_6_ami4_2_opt_dcm_mp2
 -----------------------------
 Symbolic Z-matrix:
 Charge =  0 Multiplicity = 1

                         Standard orientation:
 ---------------------------------------------------------------------
 Center     Atomic      Atomic             Coordinates (Angstroms)
 Number     Number       Type             X           Y           Z
 ---------------------------------------------------------------------
      1          6           0        2.564023    1.871743    0.587156
      2          6           0        3.514128    1.918011   -0.513960
      3          6           0        2.516682    0.790789    1.469992
      4          6           0        1.630516    0.789866    2.541628
      5          1           0        3.197263   -0.033763    1.322123
      6          6           0        0.756492    1.863924    2.705097
      7          6           0        0.789621    2.947242    1.835635
      8          1           0        0.070889    1.839983    3.538065
      9          6           0        1.705940    2.949558    0.785720
     10          6           0       -0.140470    4.051570    2.024347
     11          1           0        1.733131    3.805526    0.129072
     12          6           0        1.627852   -0.300220    3.509774
     13          1           0       -0.997644    3.836654    2.681431
     14          1           0        3.527433    2.858534   -1.083815
     15          1           0        2.244302   -1.175681    3.258041
     16          6           0       -0.472386   -3.633459    0.155161
     17          6           0        0.769157   -4.051663   -0.483381
     18          6           0       -1.654050   -3.541675   -0.576482
     19          6           0       -2.817382   -3.052216    0.013475
     20          1           0       -1.664785   -3.843639   -1.615469
     21          6           0       -2.790285   -2.637950    1.344678
     22          6           0       -1.618899   -2.733223    2.087783
     23          1           0       -3.698107   -2.244931    1.776189
     24          6           0       -0.469055   -3.239441    1.488729
     25          6           0       -1.546421   -2.249401    3.460773
     26          1           0        0.441833   -3.307235    2.060073
     27          6           0       -4.032449   -2.932126   -0.777363
     28          1           0       -2.370184   -1.600695    3.796443
     29          1           0        0.700765   -4.370141   -1.533294
     30          1           0       -3.929676   -3.181566   -1.845380
     31          6           0       -1.283164    1.018425   -2.492037
     32          6           0       -0.322354    0.209657   -3.235877
     33          6           0       -0.935220    2.293459   -2.049900
     34          6           0       -1.838046    3.068598   -1.331612
     35          1           0        0.052898    2.660636   -2.281200
     36          6           0       -3.093345    2.545360   -1.021491
     37          6           0       -3.456459    1.278309   -1.462701
     38          1           0       -3.776514    3.153418   -0.448193
     39          6           0       -2.551202    0.525129   -2.210450
     40          6           0       -4.755479    0.718175   -1.112955
     41          1           0       -2.855594   -0.455031   -2.545035
     42          6           0       -1.445975    4.401970   -0.905771
     43          1           0       -5.263945    1.190330   -0.257766
     44          1           0       -0.733244   -0.717258   -3.656203
     45          1           0       -0.446755    4.720544   -1.237660
     46          6           0        6.660532    0.877049   -1.287221
     47          6           0        5.240497    1.099480   -1.856716
     48          7           0        6.877110   -0.424742   -0.699231
     49          7           0        4.285544    0.960047   -0.802453
     50          6           0        3.950627   -2.968568   -0.444968
     51          6           0        3.098048   -4.243346   -0.533111
     52          7           0        3.270482   -1.878075   -1.128228
     53          7           0        1.865483   -3.986451    0.137715
     54          6           0        1.601897   -1.563183   -4.538823
     55          6           0        1.893838   -0.132622   -4.049216
     56          7           0        1.443737   -2.547446   -3.483287
     57          7           0        0.873893    0.588731   -3.354597
     58          6           0        0.977506   -1.297098    5.516119
     59          6           0       -0.404464   -1.977265    5.487642
     60          7           0        0.979165   -0.212178    4.588191
     61          7           0       -0.566555   -2.548231    4.193386
     62          6           0       -0.990050    6.175003    1.623777
     63          6           0       -1.644849    6.395526    0.241598
     64          7           0        0.020626    5.178172    1.480790
     65          7           0       -2.187033    5.150352   -0.208324
     66          6           0       -6.247399   -2.359677   -1.151413
     67          6           0       -6.476940   -0.843252   -1.304406
     68          7           0       -5.131324   -2.559846   -0.282293
     69          7           0       -5.253286   -0.252518   -1.743149
     70          1           0        0.651596   -2.299092   -2.897429
     71          1           0        2.263023   -2.519679   -2.875282
     72          1           0        6.708589   -1.152971   -1.385923
     73          1           0        6.224341   -0.566239    0.064091
     74          1           0        3.782610   -1.004511   -1.011383
     75          1           0        2.362816   -1.734735   -0.691409
     76          1           0       -6.832367   -0.418170   -0.352437
     77          1           0       -7.236337   -0.685019   -2.076053
     78          1           0       -6.081793   -2.795171   -2.149711
     79          1           0       -7.131942   -2.808490   -0.693026
     80          1           0        3.615859   -5.047953   -0.003201
     81          1           0        2.957179   -4.527907   -1.587674
     82          1           0        4.908892   -3.142791   -0.942580
     83          1           0        4.143515   -2.759101    0.618871
     84          1           0       -1.189302   -1.246798    5.740974
     85          1           0       -0.405440   -2.785233    6.225129
     86          1           0        1.742495   -2.053930    5.284026
     87          1           0        1.149499   -0.885428    6.514103
     88          1           0        6.853949    1.629059   -0.517345
     89          1           0        7.383603    1.015178   -2.095461
     90          1           0        5.040649    0.319038   -2.599790
     91          1           0        5.186479    2.083100   -2.350402
     92          1           0        2.442594   -1.882635   -5.161410
     93          1           0        0.704555   -1.571614   -5.165381
     94          1           0        2.183517    0.495431   -4.899830
     95          1           0        2.748094   -0.160144   -3.361507
     96          1           0       -0.877916    6.787216   -0.442805
     97          1           0       -2.459280    7.115283    0.343655
     98          1           0       -1.766228    5.889013    2.351440
     99          1           0       -0.516279    7.109133    1.935318
 ---------------------------------------------------------------------

 SCF Done:  E(RHF) =  -2158.34766930     a.u. after    6 cycles
 SCF Done:  E(RHF) =  -2158.34783226     A.U. after   20 cycles
 E2 =    -0.7481378580D+01 EUMP2 =    -0.21658292108448D+04

 The electronic state is 1-A.
 Alpha  occ. eigenvalues --  -15.56774 -15.56508 -15.56494 -15.56449 -15.56393
 Alpha  occ. eigenvalues --  -15.56334 -15.56278 -15.56226 -15.56084 -15.54823
 Alpha  occ. eigenvalues --  -15.53510 -15.53446 -11.29431 -11.28985 -11.28815
 Alpha  occ. eigenvalues --  -11.28779 -11.28760 -11.28741 -11.28739 -11.28733
 Alpha  occ. eigenvalues --  -11.28697 -11.25885 -11.25880 -11.25843 -11.25812
 Alpha  occ. eigenvalues --  -11.25780 -11.25773 -11.25682 -11.25673 -11.25653
 Alpha  occ. eigenvalues --  -11.25624 -11.25563 -11.25534 -11.25466 -11.25431
 Alpha  occ. eigenvalues --  -11.25422 -11.25386 -11.25375 -11.25334 -11.25298
 Alpha  occ. eigenvalues --  -11.25260 -11.25220 -11.25190 -11.25156 -11.25119
 Alpha  occ. eigenvalues --  -11.25115 -11.25093 -11.25061 -11.25053 -11.24861
 Alpha  occ. eigenvalues --  -11.24758  -1.26640  -1.26380  -1.26274  -1.25631
 Alpha  occ. eigenvalues --   -1.25383  -1.24877  -1.23797  -1.23662  -1.23356
 Alpha  occ. eigenvalues --   -1.18571  -1.18070  -1.17518  -1.17267  -1.16857
 Alpha  occ. eigenvalues --   -1.16381  -1.07639  -1.07526  -1.06958  -1.06278
 Alpha  occ. eigenvalues --   -1.06031  -1.05588  -1.01371  -1.00146  -1.00040
 Alpha  occ. eigenvalues --   -0.98404  -0.98359  -0.98081  -0.91825  -0.91588
 Alpha  occ. eigenvalues --   -0.91562  -0.89156  -0.88958  -0.88676  -0.87251
 Alpha  occ. eigenvalues --   -0.86694  -0.85340  -0.83338  -0.83093  -0.82679
 Alpha  occ. eigenvalues --   -0.81231  -0.80260  -0.79058  -0.76816  -0.75400
 Alpha  occ. eigenvalues --   -0.75114  -0.74797  -0.74319  -0.73807  -0.71416
 Alpha  occ. eigenvalues --   -0.71286  -0.70745  -0.69421  -0.68999  -0.68838
 Alpha  occ. eigenvalues --   -0.67951  -0.67713  -0.67388  -0.67011  -0.66907
 Alpha  occ. eigenvalues --   -0.66419  -0.66044  -0.65601  -0.65017  -0.64771
 Alpha  occ. eigenvalues --   -0.64439  -0.63711  -0.63460  -0.62801  -0.62285
 Alpha  occ. eigenvalues --   -0.62109  -0.61738  -0.61642  -0.61450  -0.61057
 Alpha  occ. eigenvalues --   -0.60485  -0.60336  -0.60073  -0.60021  -0.59061
 Alpha  occ. eigenvalues --   -0.58807  -0.58486  -0.56700  -0.56071  -0.55713
 Alpha  occ. eigenvalues --   -0.55311  -0.55089  -0.54886  -0.54665  -0.54351
 Alpha  occ. eigenvalues --   -0.54137  -0.53852  -0.53732  -0.53354  -0.53245
 Alpha  occ. eigenvalues --   -0.53034  -0.52957  -0.51802  -0.51282  -0.50929
 Alpha  occ. eigenvalues --   -0.50440  -0.50266  -0.50062  -0.49806  -0.49366
 Alpha  occ. eigenvalues --   -0.49199  -0.46431  -0.46127  -0.45851  -0.45634
 Alpha  occ. eigenvalues --   -0.45381  -0.45250  -0.42887  -0.41735  -0.41500
 Alpha  occ. eigenvalues --   -0.41228  -0.41175  -0.40954  -0.40831  -0.40793
 Alpha  occ. eigenvalues --   -0.40594  -0.40337  -0.40186  -0.40041  -0.38666
 Alpha  occ. eigenvalues --   -0.38400  -0.36182  -0.33129  -0.32935  -0.32823
 Alpha  occ. eigenvalues --   -0.32545  -0.32405  -0.32098
 Alpha virt. eigenvalues --    0.03272   0.03581   0.03822   0.03846   0.04287
 Alpha virt. eigenvalues --    0.04330   0.04392   0.04709   0.04762   0.05253
 Alpha virt. eigenvalues --    0.05304   0.05401   0.05554   0.05599   0.05686

 Mulliken charges:
               1
     1  C    0.860739
     2  C    0.190620
     3  C    0.857473
     4  C    0.859405
     5  H   -0.818225
     6  C   -0.612787
     7  C    1.403967
     8  H   -0.929375
     9  C    0.410766
    10  C    0.976016
    11  H   -0.987118
    12  C    1.105258
    13  H   -0.692772
    14  H   -0.863546
    15  H   -0.741695
    16  C    0.874223
    17  C    0.817217
    18  C    0.614061
    19  C    1.101793
    20  H   -0.913811
    21  C    0.594923
    22  C    0.987610
    23  H   -0.945362
    24  C   -0.069702
    25  C    0.716466
    26  H   -1.184818
    27  C    1.072304
    28  H   -0.665403
    29  H   -0.636473
    30  H   -0.716285
    31  C    0.544713
    32  C    0.851667
    33  C    0.605226
    34  C    1.108775
    35  H   -0.932191
    36  C    0.198220
    37  C    0.906989
    38  H   -0.871866
    39  C    0.486340
    40  C    0.695513
    41  H   -0.991051
    42  C    1.023163
    43  H   -0.645894
    44  H   -0.739080
    45  H   -0.757548
    46  C    0.998291
    47  C    0.547331
    48  N   -0.377511
    49  N    0.064569
    50  C    1.255892
    51  C    0.591606
    52  N   -0.945809
    53  N   -0.594402
    54  C    0.713292
    55  C    1.164268
    56  N   -0.113461
    57  N   -0.911740
    58  C    0.658716
    59  C    0.690312
    60  N   -0.728260
    61  N   -0.671885
    62  C    0.665461
    63  C    0.556789
    64  N   -0.850468
    65  N   -0.907068
    66  C    0.614285
    67  C    0.681184
    68  N   -0.817474
    69  N   -0.696702
    70  H   -0.110871
    71  H    0.086018
    72  H    0.041532
    73  H    0.082905
    74  H   -0.140058
    75  H   -0.439291
    76  H   -0.115799
    77  H   -0.245702
    78  H   -0.087338
    79  H   -0.292564
    80  H   -0.343139
    81  H   -0.140877
    82  H   -0.285400
    83  H   -0.144561
    84  H   -0.130030
    85  H   -0.260185
    86  H   -0.134020
    87  H   -0.316392
    88  H   -0.226756
    89  H   -0.148930
    90  H   -0.303830
    91  H   -0.274584
    92  H   -0.292819
    93  H   -0.165220
    94  H   -0.238189
    95  H   -0.296150
    96  H   -0.104175
    97  H   -0.334650
    98  H   -0.100678
    99  H   -0.273908
 Sum of Mulliken charges =   0.00000

 Dipole moment (field-independent basis, Debye):
    X=             -1.6996    Y=              1.8889    Z=             -1.0761  Tot=              2.7594
 Quadrupole moment (field-independent basis, Debye-Ang):
   XX=           -308.4634   YY=           -309.2422   ZZ=           -299.1869
   XY=              5.1676   XZ=            -12.9433   YZ=              4.2671

 Normal termination of Gaussian 16 at Sat Nov  6 11:20:53 2021.
