 Gaussian 16, Revision C.01,
 Gaussian 16:  ES64L-G16RevC.01  3-Jul-2019

 ---------------------------------------------------------------------
 #P MP2/aug-cc-pVDZ SP SCF=(YQC,MaxCycle=900) int=(Grid=Superfinegrid)
 ---------------------------------------------------------------------

 -----------------------------
 _3_alde1_5_ami3_1_opt_gas_mp2
 -----------------------------
 Symbolic Z-matrix:
 Charge =  0 Multiplicity = 1

                         Standard orientation:
 ---------------------------------------------------------------------
 Center     Atomic      Atomic             Coordinates (Angstroms)
 Number     Number       Type             X           Y           Z
 ---------------------------------------------------------------------
      1          6           0       -0.900568    0.020281   -2.792257
      2          6           0       -0.176461   -1.129426   -3.310537
      3          6           0       -0.297659    1.255068   -2.555796
      4          6           0       -1.044037    2.318226   -2.054122
      5          1           0        0.751861    1.371721   -2.778758
      6          6           0       -2.384635    2.121655   -1.722241
      7          6           0       -2.997456    0.895098   -1.946008
      8          1           0       -2.932516    2.953062   -1.305636
      9          6           0       -2.255239   -0.137957   -2.512940
     10          6           0       -4.373948    0.661484   -1.528568
     11          1           0       -2.752421   -1.076286   -2.701496
     12          6           0       -0.436610    3.629194   -1.874711
     13          1           0       -4.753427    1.349679   -0.756476
     14          1           0       -0.826837   -1.963262   -3.617141
     15          1           0        0.624480    3.705295   -2.152671
     16          6           0        2.840820    1.169554    0.453350
     17          6           0        3.740434    0.792637   -0.694216
     18          6           0        2.680609    0.326452    1.542970
     19          6           0        1.853295    0.684513    2.606298
     20          1           0        3.193626   -0.623871    1.552782
     21          6           0        1.153118    1.887510    2.553453
     22          6           0        1.309209    2.739718    1.468068
     23          1           0        0.496060    2.136599    3.372435
     24          6           0        2.171946    2.380277    0.432302
     25          6           0        0.521514    3.957228    1.342126
     26          1           0        2.290212    3.060593   -0.395488
     27          6           0        1.708937   -0.217841    3.736576
     28          1           0       -0.380736    4.016229    1.971163
     29          1           0        2.227863   -1.184711    3.637434
     30          6           0       -0.513862   -2.840130    0.117777
     31          6           0        0.713986   -2.948626   -0.657267
     32          6           0       -1.749939   -2.986425   -0.508435
     33          6           0       -2.930230   -2.696727    0.167364
     34          1           0       -1.763701   -3.287712   -1.544373
     35          6           0       -2.872667   -2.300829    1.502753
     36          6           0       -1.650784   -2.218388    2.160204
     37          1           0       -3.795842   -2.062067    2.008251
     38          6           0       -0.473637   -2.473220    1.458076
     39          6           0       -1.587097   -1.781732    3.549546
     40          1           0        0.467647   -2.356454    1.971972
     41          6           0       -4.181754   -2.689901   -0.571454
     42          1           0       -2.434458   -1.168561    3.895507
     43          1           0       -4.111580   -3.043863   -1.611555
     44          6           0        1.932317   -3.359672   -2.591669
     45          6           0        1.604255   -2.487727   -3.831328
     46          7           0        0.739485   -3.459001   -1.811688
     47          1           0        2.743586   -2.876256   -2.021244
     48          6           0        2.396386   -4.734257   -3.074912
     49          7           0        1.081117   -1.223905   -3.394830
     50          1           0        0.847514   -3.041551   -4.414865
     51          6           0        2.865837   -2.313091   -4.671129
     52          1           0        1.584887   -5.205432   -3.632011
     53          6           0        3.636043   -4.597813   -3.953875
     54          1           0        3.628710   -1.811073   -4.073168
     55          6           0        3.370774   -3.674232   -5.140369
     56          1           0        3.939663   -5.583051   -4.313658
     57          1           0        4.456849   -4.193300   -3.357770
     58          1           0        4.285493   -3.548745   -5.723594
     59          1           0        2.620040   -4.128652   -5.791090
     60          6           0        5.223841   -1.016110   -0.701597
     61          6           0        5.949870    0.287910   -1.074378
     62          7           0        3.816452   -0.676732   -0.864133
     63          1           0        5.386285   -1.205754    0.371846
     64          6           0        5.797282   -2.177503   -1.488211
     65          7           0        5.100320    1.314449   -0.490779
     66          1           0        5.891837    0.422720   -2.164538
     67          6           0        7.404753    0.219645   -0.659402
     68          1           0        5.673529   -1.998237   -2.559683
     69          6           0        7.286655   -2.277387   -1.141780
     70          1           0        7.477091    0.072331    0.421077
     71          6           0        8.035138   -0.965688   -1.398453
     72          1           0        7.746692   -3.074508   -1.729209
     73          1           0        7.384254   -2.544081   -0.086615
     74          1           0        9.075521   -1.080676   -1.088663
     75          1           0        8.029052   -0.754532   -2.470389
     76          6           0       -0.425398    5.864817   -1.232431
     77          6           0       -0.047072    5.951620    0.267951
     78          7           0       -1.093792    4.618356   -1.445923
     79          1           0        0.516806    5.923046   -1.804932
     80          6           0       -1.342446    7.028194   -1.600815
     81          7           0        0.834036    4.858816    0.518712
     82          1           0       -0.972825    5.884942    0.868496
     83          6           0        0.651286    7.284752    0.536115
     84          1           0       -2.263670    6.941831   -1.022233
     85          6           0       -0.659148    8.360515   -1.313307
     86          1           0        1.575432    7.316303   -0.043409
     87          6           0       -0.254059    8.450767    0.154996
     88          1           0       -1.332823    9.182039   -1.565142
     89          1           0        0.231002    8.452614   -1.940073
     90          1           0        0.264277    9.393470    0.341688
     91          1           0       -1.150545    8.431494    0.779376
     92          6           0       -6.351953   -0.563974   -1.415543
     93          6           0       -6.359273   -2.055010   -0.995421
     94          7           0       -5.067907   -0.288552   -1.981068
     95          1           0       -6.537473    0.053285   -0.517849
     96          6           0       -7.473303   -0.330888   -2.428550
     97          7           0       -5.260857   -2.237365   -0.097493
     98          1           0       -6.229581   -2.653184   -1.915350
     99          6           0       -7.694957   -2.388786   -0.340013
    100          1           0       -7.286880   -0.945991   -3.310568
    101          6           0       -8.820764   -0.684941   -1.806797
    102          1           0       -7.813610   -1.772962    0.552981
    103          6           0       -8.835632   -2.132011   -1.320269
    104          1           0       -9.614345   -0.532359   -2.541063
    105          1           0       -9.012901   -0.018412   -0.962559
    106          1           0       -9.791360   -2.351087   -0.839947
    107          1           0       -8.730464   -2.801683   -2.177173
    108          6           0        0.875335   -0.925401    5.778652
    109          6           0       -0.536839   -1.530793    5.615864
    110          7           0        1.038110    0.071408    4.765736
    111          1           0        1.599973   -1.750207    5.651669
    112          6           0        1.012625   -0.319289    7.172821
    113          7           0       -0.613788   -2.071105    4.294507
    114          1           0       -1.285507   -0.733461    5.772544
    115          6           0       -0.736405   -2.623855    6.667490
    116          1           0        0.281234    0.483406    7.279444
    117          6           0        0.788191   -1.388757    8.236954
    118          1           0       -0.000657   -3.412303    6.499537
    119          6           0       -0.581188   -2.041534    8.068684
    120          1           0        0.866940   -0.942642    9.230461
    121          1           0        1.564949   -2.152160    8.150042
    122          1           0       -0.709836   -2.832504    8.810312
    123          1           0       -1.360562   -1.294526    8.236561
    124          1           0        1.605997   -2.498637   -0.196829
    125          1           0        5.289417    1.391019    0.506135
    126          1           0        3.348194    1.250081   -1.614031
    127          1           0        3.479519   -0.924438   -1.788380
    128          1           0        2.615503   -5.360605   -2.207522
    129          1           0        2.640103   -1.675544   -5.528153
    130          1           0        5.290203   -3.110479   -1.232563
    131          1           0        7.924716    1.144414   -0.913049
    132          1           0       -1.602590    6.954028   -2.658603
    133          1           0        0.916048    7.338530    1.594392
    134          1           0       -7.461713    0.716135   -2.739443
    135          1           0       -7.690221   -3.435142   -0.028732
    136          1           0        2.007784    0.117574    7.276616
    137          1           0       -1.730619   -3.059226    6.544176
 ---------------------------------------------------------------------

 SCF Done:  E(RHF) =  -2744.00711685     a.u. after    7 cycles
 SCF Done:  E(RHF) =  -2744.00717410     A.U. after   38 cycles
 E2 =    -0.9751087743D+01 EUMP2 =    -0.27537582618439D+04

 The electronic state is 1-A.
 Alpha  occ. eigenvalues --  -15.55706 -15.55607 -15.55581 -15.55316 -15.55235
 Alpha  occ. eigenvalues --  -15.55213 -15.55186 -15.55124 -15.55122 -15.54697
 Alpha  occ. eigenvalues --  -11.28871 -11.28313 -11.28277 -11.28140 -11.27964
 Alpha  occ. eigenvalues --  -11.27964 -11.27904 -11.27875 -11.27792 -11.25521
 Alpha  occ. eigenvalues --  -11.25479 -11.25423 -11.25342 -11.25291 -11.25254
 Alpha  occ. eigenvalues --  -11.25230 -11.25124 -11.25078 -11.25071 -11.25033
 Alpha  occ. eigenvalues --  -11.24860 -11.24730 -11.24713 -11.24669 -11.24650
 Alpha  occ. eigenvalues --  -11.24612 -11.24538 -11.24498 -11.24462 -11.24385
 Alpha  occ. eigenvalues --  -11.24331 -11.24129 -11.24039 -11.24006 -11.23812
 Alpha  occ. eigenvalues --  -11.23743 -11.23482 -11.23146 -11.23087 -11.22998
 Alpha  occ. eigenvalues --  -11.22813 -11.22357 -11.22252 -11.22215 -11.22118
 Alpha  occ. eigenvalues --  -11.22052 -11.22045 -11.22022 -11.22001 -11.21956
 Alpha  occ. eigenvalues --  -11.21927 -11.21857 -11.21768 -11.21711 -11.21698
 Alpha  occ. eigenvalues --  -11.21611 -11.21501  -1.27877  -1.26311  -1.26107
 Alpha  occ. eigenvalues --   -1.26010  -1.25965  -1.23208  -1.22946  -1.22671
 Alpha  occ. eigenvalues --   -1.22608  -1.17270  -1.16354  -1.16317  -1.14793
 Alpha  occ. eigenvalues --   -1.11820  -1.11720  -1.11306  -1.11230  -1.10646
 Alpha  occ. eigenvalues --   -1.05651  -1.05608  -1.05429  -1.05342  -1.05025
 Alpha  occ. eigenvalues --   -1.04871  -1.00732  -1.00562  -1.00387  -1.00126
 Alpha  occ. eigenvalues --   -1.00023  -0.99842  -0.98996  -0.98693  -0.98628
 Alpha  occ. eigenvalues --   -0.97928  -0.89917  -0.89571  -0.89475  -0.88973
 Alpha  occ. eigenvalues --   -0.88236  -0.88014  -0.87342  -0.86958  -0.86095
 Alpha  occ. eigenvalues --   -0.83186  -0.82990  -0.82753  -0.82504  -0.82347
 Alpha  occ. eigenvalues --   -0.82168  -0.81961  -0.81154  -0.80411  -0.79797
 Alpha  occ. eigenvalues --   -0.78561  -0.77122  -0.76782  -0.76644  -0.76568
 Alpha  occ. eigenvalues --   -0.75635  -0.74778  -0.74626  -0.74254  -0.74049
 Alpha  occ. eigenvalues --   -0.73893  -0.70283  -0.69852  -0.69757  -0.69109
 Alpha  occ. eigenvalues --   -0.68693  -0.68543  -0.67279  -0.66885  -0.66632
 Alpha  occ. eigenvalues --   -0.66263  -0.66036  -0.65452  -0.65366  -0.65274
 Alpha  occ. eigenvalues --   -0.64901  -0.63994  -0.63321  -0.62870  -0.62761
 Alpha  occ. eigenvalues --   -0.62583  -0.62461  -0.62401  -0.62326  -0.62173
 Alpha  occ. eigenvalues --   -0.61340  -0.61013  -0.60480  -0.60198  -0.59872
 Alpha  occ. eigenvalues --   -0.59454  -0.59402  -0.59105  -0.58976  -0.58867
 Alpha  occ. eigenvalues --   -0.58786  -0.58454  -0.57652  -0.57267  -0.57198
 Alpha  occ. eigenvalues --   -0.56817  -0.56082  -0.56023  -0.55939  -0.55859
 Alpha  occ. eigenvalues --   -0.55744  -0.55342  -0.54044  -0.53911  -0.53745
 Alpha  occ. eigenvalues --   -0.53510  -0.53444  -0.53108  -0.52912  -0.52409
 Alpha  occ. eigenvalues --   -0.52166  -0.51991  -0.51666  -0.51476  -0.51155
 Alpha  occ. eigenvalues --   -0.50839  -0.50305  -0.49749  -0.49570  -0.49280
 Alpha  occ. eigenvalues --   -0.49151  -0.48915  -0.48707  -0.48582  -0.48380
 Alpha  occ. eigenvalues --   -0.48298  -0.47600  -0.47399  -0.47115  -0.46970
 Alpha  occ. eigenvalues --   -0.46875  -0.46765  -0.46704  -0.46633  -0.46464
 Alpha  occ. eigenvalues --   -0.46338  -0.46218  -0.45865  -0.45463  -0.45324
 Alpha  occ. eigenvalues --   -0.45085  -0.44940  -0.43503  -0.43130  -0.42741
 Alpha  occ. eigenvalues --   -0.42457  -0.42276  -0.40700  -0.40483  -0.40350
 Alpha  occ. eigenvalues --   -0.40238  -0.40083  -0.40078  -0.39751  -0.39484
 Alpha  occ. eigenvalues --   -0.39214  -0.38684  -0.38371  -0.37918  -0.37073
 Alpha  occ. eigenvalues --   -0.32314  -0.32165  -0.31957  -0.31657  -0.31348
 Alpha  occ. eigenvalues --   -0.31057
 Alpha virt. eigenvalues --    0.02744   0.03214   0.03276   0.03485   0.03614
 Alpha virt. eigenvalues --    0.03694   0.03743   0.04097   0.04167   0.04321
 Alpha virt. eigenvalues --    0.04401   0.04691   0.04792   0.04866   0.04993

 Mulliken charges:
               1
     1  C    2.056597
     2  C    0.292571
     3  C    0.047869
     4  C    1.688706
     5  H   -1.007384
     6  C   -0.277202
     7  C    1.481068
     8  H   -0.892311
     9  C   -0.018511
    10  C    0.418281
    11  H   -1.125023
    12  C    0.525559
    13  H   -0.798186
    14  H   -0.755122
    15  H   -0.784551
    16  C    1.473600
    17  C    0.991865
    18  C    0.538557
    19  C    1.705835
    20  H   -1.358920
    21  C    0.046136
    22  C    0.912505
    23  H   -0.890395
    24  C   -0.033853
    25  C    0.348587
    26  H   -1.186128
    27  C    0.467647
    28  H   -0.844817
    29  H   -0.713062
    30  C    1.115635
    31  C    0.801375
    32  C    0.436947
    33  C    1.531262
    34  H   -1.055840
    35  C   -0.018108
    36  C    0.892933
    37  H   -0.866036
    38  C    0.762382
    39  C    0.219384
    40  H   -0.802354
    41  C    0.378853
    42  H   -0.737437
    43  H   -0.727809
    44  C   -0.422807
    45  C    0.141588
    46  N   -0.484958
    47  H   -0.594027
    48  C    0.793392
    49  N   -0.515425
    50  H   -0.360496
    51  C    0.810995
    52  H   -0.129523
    53  C    0.742372
    54  H   -0.167117
    55  C    0.518445
    56  H   -0.180420
    57  H   -0.130029
    58  H   -0.199208
    59  H   -0.112554
    60  C   -0.295225
    61  C   -0.157556
    62  N   -0.236696
    63  H   -0.583436
    64  C    1.127240
    65  N   -0.796803
    66  H   -0.460304
    67  C    0.841961
    68  H   -0.151625
    69  C    0.322273
    70  H   -0.011789
    71  C    0.556371
    72  H   -0.155970
    73  H   -0.085337
    74  H   -0.168710
    75  H   -0.103283
    76  C   -0.380731
    77  C   -0.255439
    78  N   -0.441901
    79  H   -0.404191
    80  C    0.958625
    81  N   -0.283136
    82  H   -0.331440
    83  C    0.914597
    84  H   -0.140795
    85  C    0.543767
    86  H   -0.133463
    87  C    0.589324
    88  H   -0.147556
    89  H   -0.085382
    90  H   -0.144660
    91  H   -0.089342
    92  C   -0.462747
    93  C   -0.048746
    94  N   -0.383809
    95  H   -0.291079
    96  C    0.793348
    97  N   -0.615928
    98  H   -0.368907
    99  C    0.802830
   100  H   -0.120766
   101  C    0.528876
   102  H   -0.101583
   103  C    0.538041
   104  H   -0.142317
   105  H   -0.083564
   106  H   -0.147309
   107  H   -0.084735
   108  C   -0.175085
   109  C   -0.204874
   110  N   -0.503985
   111  H   -0.380358
   112  C    0.902706
   113  N   -0.386370
   114  H   -0.290476
   115  C    0.797583
   116  H   -0.137094
   117  C    0.544360
   118  H   -0.113252
   119  C    0.564546
   120  H   -0.145280
   121  H   -0.087836
   122  H   -0.144741
   123  H   -0.092804
   124  H   -0.972631
   125  H    0.132254
   126  H   -0.489345
   127  H    0.049027
   128  H   -0.257608
   129  H   -0.323983
   130  H   -0.424243
   131  H   -0.114938
   132  H   -0.209284
   133  H   -0.229774
   134  H   -0.226436
   135  H   -0.205265
   136  H   -0.220470
   137  H   -0.226670
 Sum of Mulliken charges =   0.00000

 Dipole moment (field-independent basis, Debye):
    X=              1.0973    Y=             -0.9309    Z=             -0.1688  Tot=              1.4489
 Quadrupole moment (field-independent basis, Debye-Ang):
   XX=           -379.1484   YY=           -408.5068   ZZ=           -396.9057
   XY=            -15.7724   XZ=             -6.9213   YZ=              6.3105

 Normal termination of Gaussian 16 at Wed Nov 10 19:29:54 2021.
