 Gaussian 16, Revision C.01,
 Gaussian 16:  ES64L-G16RevC.01  3-Jul-2019

 ---------------------------------------------------------------------
 #P MP2/aug-cc-pVDZ SP SCF=(YQC,MaxCycle=900) int=(Grid=Superfinegrid)
 ---------------------------------------------------------------------

 -----------------------------
 _3_alde1_6_ami2_2_opt_gas_mp2
 -----------------------------
 Symbolic Z-matrix:
 Charge =  0 Multiplicity = 1

                         Standard orientation:
 ---------------------------------------------------------------------
 Center     Atomic      Atomic             Coordinates (Angstroms)
 Number     Number       Type             X           Y           Z
 ---------------------------------------------------------------------
      1          6           0        6.007506   -0.696158   -0.526610
      2          6           0        7.210270   -1.458970   -0.827473
      3          6           0        4.852591   -1.336495   -0.086355
      4          6           0        3.696662   -0.610201    0.189984
      5          1           0        4.852174   -2.405385    0.049349
      6          6           0        3.703755    0.769288    0.020310
      7          6           0        4.857475    1.427884   -0.403788
      8          1           0        2.823513    1.361778    0.221202
      9          6           0        6.004753    0.690011   -0.676098
     10          6           0        4.854261    2.878267   -0.532656
     11          1           0        6.901791    1.196193   -1.007290
     12          6           0        2.493958   -1.274332    0.683699
     13          1           0        5.821784    3.353639   -0.764014
     14          1           0        8.074585   -0.876796   -1.187256
     15          1           0        1.619892   -0.630352    0.822500
     16          6           0       -4.550098   -1.120169   -1.388822
     17          6           0       -5.912933   -1.571234   -1.629007
     18          6           0       -4.009526   -0.094527   -2.154996
     19          6           0       -2.699563    0.337452   -1.945271
     20          1           0       -4.587479    0.384479   -2.930864
     21          6           0       -1.930722   -0.262910   -0.954363
     22          6           0       -2.456570   -1.300594   -0.183024
     23          1           0       -0.916190    0.057243   -0.771102
     24          6           0       -3.764072   -1.719443   -0.404740
     25          6           0       -1.656650   -1.978718    0.824695
     26          1           0       -4.194811   -2.518455    0.179567
     27          6           0       -2.156297    1.428971   -2.740909
     28          1           0       -2.148482   -2.835924    1.311895
     29          1           0       -6.461482   -1.038494   -2.421455
     30          1           0       -1.112699    1.703793   -2.531040
     31          6           0       -1.941813    2.274347    2.158989
     32          6           0       -2.604452    1.533349    3.221080
     33          6           0       -0.636096    2.739221    2.317251
     34          6           0       -0.044778    3.536767    1.343236
     35          1           0       -0.108974    2.485742    3.224765
     36          6           0       -0.760901    3.848891    0.190742
     37          6           0       -2.052502    3.368054    0.003819
     38          1           0       -0.307707    4.467981   -0.565564
     39          6           0       -2.638402    2.582674    0.993523
     40          6           0       -2.779283    3.650254   -1.228180
     41          1           0       -3.645737    2.211337    0.857415
     42          6           0        1.311462    4.051447    1.521464
     43          1           0       -3.800005    3.248452   -1.266912
     44          1           0       -3.664496    1.290425    3.042243
     45          1           0        1.884560    3.587422    2.333792
     46          6           0        8.079515   -4.511892   -2.104420
     47          6           0        8.423061   -3.447302   -1.019929
     48          7           0        6.961954   -5.349460   -1.707876
     49          7           0        7.253801   -2.710989   -0.684279
     50          6           0       -7.698009   -4.456283   -1.735321
     51          6           0       -7.743625   -2.971880   -1.261772
     52          7           0       -6.996199   -5.307838   -0.791695
     53          7           0       -6.427008   -2.517257   -0.970998
     54          6           0       -2.191245   -0.899422    5.494138
     55          6           0       -2.716077    0.559887    5.341497
     56          7           0       -0.739949   -0.963403    5.515504
     57          6           0       -2.684538   -1.734396    4.311916
     58          7           0       -2.020017    1.239264    4.300406
     59          6           0        1.382519   -3.235863    1.443691
     60          6           0        0.251417   -2.378389    2.083008
     61          7           0        2.505908   -2.508249    0.936634
     62          7           0       -0.482102   -1.623051    1.123942
     63          6           0        0.828212   -4.074273    0.284232
     64          6           0        3.759635    4.950619   -0.450195
     65          6           0        3.062319    5.515094    0.816759
     66          7           0        3.789251    3.532694   -0.377415
     67          7           0        1.734586    4.973896    0.777612
     68          6           0        2.920470    7.034341    0.671799
     69          6           0       -2.338078    3.172056   -4.257803
     70          6           0       -2.819251    4.434780   -3.462465
     71          7           0       -2.851489    2.008774   -3.626047
     72          7           0       -2.231742    4.296823   -2.164934
     73          6           0       -2.208632    5.684179   -4.101142
     74          1           0       -0.376277   -0.532063    4.671875
     75          1           0       -0.379818   -0.435627    6.303690
     76          1           0        7.181614   -5.846245   -0.850904
     77          1           0        6.154061   -4.764439   -1.521715
     78          1           0       -7.458211   -5.288684    0.111477
     79          1           0       -6.052755   -4.958846   -0.660743
     80          1           0       -2.363905   -1.283686    3.374696
     81          1           0       -3.769790   -1.802320    4.315516
     82          1           0       -2.266783   -2.735113    4.380361
     83          1           0       -3.806421    0.534834    5.181159
     84          1           0       -2.503963    1.102680    6.268963
     85          1           0       -8.251987   -2.356206   -2.022525
     86          1           0       -8.317076   -2.929666   -0.329022
     87          6           0       -6.970803   -4.541786   -3.078646
     88          1           0       -7.505013   -3.980534   -3.841175
     89          1           0       -6.902475   -5.581585   -3.385185
     90          1           0       -5.963404   -4.140750   -2.989414
     91          1           0        0.718867   -1.676633    2.780585
     92          1           0       -0.396621   -3.064716    2.649953
     93          6           0        1.938090   -4.167001    2.530278
     94          1           0        2.264592   -3.587713    3.390568
     95          1           0        2.791897   -4.708557    2.133233
     96          1           0        1.181976   -4.878495    2.851282
     97          1           0        0.013336   -4.705140    0.631267
     98          1           0        1.618065   -4.702042   -0.119183
     99          1           0        0.461164   -3.424162   -0.507110
    100          6           0        9.299632   -5.406403   -2.327537
    101          6           0        7.699714   -3.806078   -3.407644
    102          1           0        4.759655    5.403725   -0.560447
    103          1           0        3.143384    5.221543   -1.312783
    104          6           0        3.901978    5.181593    2.056133
    105          1           0        3.379540    5.490348    2.959542
    106          1           0        4.850073    5.711673    2.005581
    107          1           0        4.107338    4.114454    2.108872
    108          1           0        2.268561    7.263597   -0.166232
    109          1           0        3.890530    7.497380    0.509299
    110          1           0        2.479264    7.450128    1.574425
    111          1           0       -2.460503    5.740568   -5.156919
    112          1           0       -1.128257    5.662247   -3.990826
    113          1           0       -2.587072    6.571385   -3.599580
    114          6           0       -4.349781    4.507416   -3.504901
    115          1           0       -4.705062    5.251149   -2.793774
    116          1           0       -4.788695    3.542434   -3.267287
    117          1           0       -4.673020    4.793737   -4.502206
    118          1           0       -1.238979    3.194025   -4.286177
    119          1           0       -2.744194    3.228401   -5.269312
    120          1           0        7.421189   -4.547617   -4.150828
    121          1           0        8.534297   -3.220219   -3.785085
    122          1           0        6.851565   -3.144926   -3.243459
    123          1           0        8.745151   -3.976106   -0.115695
    124          1           0        9.250644   -2.807400   -1.371143
    125          6           0       -9.129668   -4.973713   -1.880111
    126          6           0       -2.719862   -1.483663    6.804678
    127          1           0        9.580053   -5.909159   -1.404272
    128          1           0       10.147194   -4.822092   -2.676210
    129          1           0        9.060124   -6.161534   -3.070868
    130          1           0       -3.806766   -1.486815    6.813409
    131          1           0       -2.367145   -0.901966    7.653754
    132          1           0       -2.361049   -2.503293    6.914457
    133          1           0       -9.675201   -4.394926   -2.620902
    134          1           0       -9.658292   -4.910822   -0.931189
    135          1           0       -9.104792   -6.014200   -2.191466
 ---------------------------------------------------------------------

 SCF Done:  E(RHF) =  -2626.79014485     a.u. after    7 cycles
 SCF Done:  E(RHF) =  -2626.79022432     A.U. after   28 cycles
 E2 =    -0.9328804246D+01 EUMP2 =    -0.26361190285698D+04

 The electronic state is 1-A.
 Alpha  occ. eigenvalues --  -15.56824 -15.56492 -15.56250 -15.56107 -15.55999
 Alpha  occ. eigenvalues --  -15.55902 -15.55250 -15.55201 -15.55048 -15.53832
 Alpha  occ. eigenvalues --  -15.53815 -15.53042 -11.29404 -11.29092 -11.29037
 Alpha  occ. eigenvalues --  -11.28888 -11.28887 -11.28640 -11.28449 -11.27996
 Alpha  occ. eigenvalues --  -11.27328 -11.26732 -11.26701 -11.26397 -11.26374
 Alpha  occ. eigenvalues --  -11.26369 -11.25887 -11.25843 -11.25812 -11.25723
 Alpha  occ. eigenvalues --  -11.25622 -11.25617 -11.25597 -11.25594 -11.25593
 Alpha  occ. eigenvalues --  -11.25583 -11.25477 -11.25464 -11.25330 -11.25263
 Alpha  occ. eigenvalues --  -11.25057 -11.24944 -11.24897 -11.24868 -11.24759
 Alpha  occ. eigenvalues --  -11.24670 -11.24629 -11.24594 -11.24378 -11.24168
 Alpha  occ. eigenvalues --  -11.24133 -11.21852 -11.21679 -11.21631 -11.21599
 Alpha  occ. eigenvalues --  -11.21450 -11.21428 -11.21267 -11.21205 -11.21185
 Alpha  occ. eigenvalues --  -11.21108 -11.20933 -11.20652  -1.26879  -1.26221
 Alpha  occ. eigenvalues --   -1.26100  -1.25830  -1.25401  -1.25096  -1.23592
 Alpha  occ. eigenvalues --   -1.23444  -1.22938  -1.19284  -1.19167  -1.18555
 Alpha  occ. eigenvalues --   -1.17490  -1.16784  -1.16525  -1.09177  -1.08751
 Alpha  occ. eigenvalues --   -1.08065  -1.06521  -1.06011  -1.05588  -1.04224
 Alpha  occ. eigenvalues --   -1.03254  -1.02899  -1.02567  -1.02307  -1.01896
 Alpha  occ. eigenvalues --   -0.95757  -0.95470  -0.95139  -0.94892  -0.94777
 Alpha  occ. eigenvalues --   -0.94364  -0.94000  -0.93955  -0.93939  -0.93755
 Alpha  occ. eigenvalues --   -0.93208  -0.93133  -0.89503  -0.89137  -0.88556
 Alpha  occ. eigenvalues --   -0.87332  -0.87124  -0.86967  -0.84890  -0.83245
 Alpha  occ. eigenvalues --   -0.82488  -0.79574  -0.79002  -0.78048  -0.76245
 Alpha  occ. eigenvalues --   -0.75715  -0.75556  -0.75220  -0.74869  -0.74670
 Alpha  occ. eigenvalues --   -0.74353  -0.72577  -0.72301  -0.71380  -0.70031
 Alpha  occ. eigenvalues --   -0.69727  -0.69457  -0.68623  -0.67619  -0.67220
 Alpha  occ. eigenvalues --   -0.66750  -0.66537  -0.66244  -0.65931  -0.65830
 Alpha  occ. eigenvalues --   -0.65564  -0.65358  -0.65233  -0.64977  -0.64685
 Alpha  occ. eigenvalues --   -0.64538  -0.63670  -0.63594  -0.63106  -0.62887
 Alpha  occ. eigenvalues --   -0.62525  -0.62422  -0.62218  -0.61947  -0.61650
 Alpha  occ. eigenvalues --   -0.61111  -0.60851  -0.60513  -0.60239  -0.59877
 Alpha  occ. eigenvalues --   -0.59659  -0.59540  -0.59120  -0.58898  -0.57306
 Alpha  occ. eigenvalues --   -0.56997  -0.56875  -0.56643  -0.56298  -0.56105
 Alpha  occ. eigenvalues --   -0.55205  -0.55027  -0.54748  -0.54711  -0.54206
 Alpha  occ. eigenvalues --   -0.53910  -0.53547  -0.53367  -0.53288  -0.53193
 Alpha  occ. eigenvalues --   -0.53134  -0.52997  -0.52935  -0.52770  -0.52656
 Alpha  occ. eigenvalues --   -0.52487  -0.52399  -0.52329  -0.51873  -0.51597
 Alpha  occ. eigenvalues --   -0.51469  -0.51303  -0.51162  -0.50793  -0.50590
 Alpha  occ. eigenvalues --   -0.50543  -0.50271  -0.50056  -0.49783  -0.49616
 Alpha  occ. eigenvalues --   -0.49398  -0.49163  -0.48869  -0.48374  -0.48008
 Alpha  occ. eigenvalues --   -0.47983  -0.46946  -0.46693  -0.46358  -0.45849
 Alpha  occ. eigenvalues --   -0.45428  -0.45282  -0.45054  -0.44464  -0.43878
 Alpha  occ. eigenvalues --   -0.41967  -0.41281  -0.40965  -0.40785  -0.40583
 Alpha  occ. eigenvalues --   -0.40488  -0.40266  -0.39987  -0.39593  -0.39020
 Alpha  occ. eigenvalues --   -0.38980  -0.38369  -0.37741  -0.37469  -0.37204
 Alpha  occ. eigenvalues --   -0.33108  -0.32643  -0.32228  -0.32017  -0.31580
 Alpha  occ. eigenvalues --   -0.31331
 Alpha virt. eigenvalues --    0.02708   0.02881   0.03253   0.03521   0.03713
 Alpha virt. eigenvalues --    0.03794   0.03889   0.04143   0.04305   0.04430
 Alpha virt. eigenvalues --    0.04562   0.04705   0.04781   0.04955   0.05223

 Mulliken charges:
               1
     1  C    0.525397
     2  C    0.529947
     3  C   -0.292030
     4  C    0.936323
     5  H   -1.008798
     6  C    0.536616
     7  C    0.418647
     8  H   -0.867934
     9  C    0.934812
    10  C    0.313481
    11  H   -0.726825
    12  C    0.548801
    13  H   -0.731072
    14  H   -0.685144
    15  H   -1.032004
    16  C    0.719679
    17  C    0.804214
    18  C   -0.095147
    19  C    1.862003
    20  H   -0.932612
    21  C    0.303486
    22  C    1.932398
    23  H   -1.385456
    24  C   -0.612790
    25  C    0.389259
    26  H   -0.952211
    27  C    0.757560
    28  H   -0.723472
    29  H   -0.685972
    30  H   -0.548351
    31  C    1.938683
    32  C    0.490286
    33  C   -0.167501
    34  C    1.135322
    35  H   -0.940756
    36  C   -0.388087
    37  C    1.623538
    38  H   -1.140607
    39  C    0.285869
    40  C    0.221823
    41  H   -1.121439
    42  C    0.502528
    43  H   -0.770331
    44  H   -0.856817
    45  H   -0.852846
    46  C   -3.690078
    47  C    1.660836
    48  N   -0.006354
    49  N   -0.289829
    50  C   -3.622784
    51  C    1.624214
    52  N   -0.034843
    53  N   -0.403161
    54  C   -3.904756
    55  C    1.692510
    56  N    0.127372
    57  C    1.256340
    58  N   -0.543315
    59  C   -2.152104
    60  C    0.239796
    61  N   -0.229007
    62  N    0.098709
    63  C    1.566168
    64  C    1.658762
    65  C   -4.045952
    66  N    0.074930
    67  N    0.012518
    68  C    1.693613
    69  C    1.384692
    70  C   -3.562707
    71  N   -0.698820
    72  N   -0.022999
    73  C    1.579854
    74  H    0.106881
    75  H   -0.042426
    76  H   -0.014325
    77  H    0.037612
    78  H   -0.011868
    79  H    0.015988
    80  H   -0.112794
    81  H   -0.061219
    82  H    0.005332
    83  H   -0.125845
    84  H   -0.280656
    85  H   -0.168654
    86  H   -0.273101
    87  C    1.449150
    88  H   -0.014693
    89  H   -0.031256
    90  H    0.004097
    91  H   -0.389330
    92  H   -0.375769
    93  C    1.397509
    94  H    0.026822
    95  H   -0.109808
    96  H   -0.060265
    97  H    0.041495
    98  H   -0.183067
    99  H    0.065248
   100  C    1.451604
   101  C    1.460156
   102  H   -0.200201
   103  H   -0.213629
   104  C    1.759125
   105  H    0.011134
   106  H   -0.168194
   107  H    0.076731
   108  H   -0.030325
   109  H   -0.026318
   110  H   -0.047527
   111  H   -0.059539
   112  H   -0.017539
   113  H   -0.018181
   114  C    1.463743
   115  H    0.034753
   116  H   -0.025677
   117  H   -0.099675
   118  H   -0.158301
   119  H   -0.308171
   120  H   -0.029217
   121  H   -0.007860
   122  H   -0.029012
   123  H   -0.263042
   124  H   -0.164109
   125  C    1.451510
   126  C    1.570523
   127  H   -0.056210
   128  H   -0.003651
   129  H    0.049157
   130  H    0.062083
   131  H   -0.069863
   132  H    0.053669
   133  H    0.005216
   134  H   -0.055246
   135  H    0.050954
 Sum of Mulliken charges =   0.00000

 Dipole moment (field-independent basis, Debye):
    X=             -0.8681    Y=              3.8294    Z=              1.0276  Tot=              4.0588
 Quadrupole moment (field-independent basis, Debye-Ang):
   XX=           -340.6352   YY=           -417.7044   ZZ=           -386.1295
   XY=             13.9542   XZ=             -2.5056   YZ=            -10.7964

 Normal termination of Gaussian 16 at Sat Nov 13 22:19:01 2021.
