 Gaussian 16, Revision C.01,
 Gaussian 16:  ES64L-G16RevC.01  3-Jul-2019

 ----------------------------------------------------------------------
 #P PBE1PBE/Def2TZVP SP SCF=(YQC,MaxCycle=900) int=(Grid=Superfinegrid)
  EmpiricalDispersion=GD3 SCRF=(PCM,Solvent=Dichloromethane)
 ----------------------------------------------------------------------

 -------------------------
 _3_alde1_6_ami3_2_opt_dcm
 -------------------------
 Symbolic Z-matrix:
 Charge =  0 Multiplicity = 1

                         Standard orientation:
 ---------------------------------------------------------------------
 Center     Atomic      Atomic             Coordinates (Angstroms)
 Number     Number       Type             X           Y           Z
 ---------------------------------------------------------------------
      1          6           0       -0.240898    0.269198   -3.691591
      2          6           0       -1.643573    0.633155   -3.844219
      3          6           0        0.132169   -1.074523   -3.651178
      4          6           0        1.461320   -1.438605   -3.472986
      5          1           0       -0.639425   -1.821159   -3.761615
      6          6           0        2.426695   -0.443039   -3.323001
      7          6           0        2.071628    0.900050   -3.369277
      8          1           0        3.453170   -0.743663   -3.178672
      9          6           0        0.734075    1.250282   -3.554898
     10          6           0        3.089476    1.928305   -3.205472
     11          1           0        0.478639    2.298473   -3.584511
     12          6           0        1.828047   -2.846256   -3.433991
     13          1           0        4.062647    1.577618   -2.827265
     14          1           0       -1.876823    1.704782   -3.744715
     15          1           0        0.985884   -3.555315   -3.453771
     16          6           0       -0.291212   -3.340303    1.603351
     17          6           0       -1.692760   -3.649752    1.351793
     18          6           0        0.073876   -2.634097    2.749876
     19          6           0        1.402193   -2.302985    2.988512
     20          1           0       -0.703141   -2.352892    3.444404
     21          6           0        2.374894   -2.675697    2.060922
     22          6           0        2.027870   -3.386899    0.918098
     23          1           0        3.400706   -2.404799    2.258727
     24          6           0        0.690899   -3.717167    0.695024
     25          6           0        3.053411   -3.765313   -0.043744
     26          1           0        0.441702   -4.266687   -0.199811
     27          6           0        1.760644   -1.566660    4.191383
     28          1           0        4.027942   -3.267574    0.080208
     29          1           0       -1.918950   -4.095271    0.370423
     30          1           0        0.914110   -1.224571    4.806665
     31          6           0       -0.282091    3.084349    2.080573
     32          6           0       -1.688698    3.040091    2.458501
     33          6           0        0.104474    3.717888    0.899171
     34          6           0        1.437560    3.741452    0.507875
     35          1           0       -0.660148    4.187907    0.299499
     36          6           0        2.393451    3.112487    1.305465
     37          6           0        2.024901    2.483693    2.489122
     38          1           0        3.423206    3.134598    0.983254
     39          6           0        0.683548    2.474003    2.872367
     40          6           0        3.032902    1.826380    3.308847
     41          1           0        0.417710    1.977894    3.793328
     42          6           0        1.817908    4.409190   -0.727901
     43          1           0        4.011890    1.674811    2.827561
     44          1           0       -1.932268    2.423682    3.337942
     45          1           0        0.982284    4.779940   -1.341636
     46          6           0       -4.661147   -0.661496   -3.045246
     47          6           0       -3.910542    0.123693   -4.137776
     48          7           0       -4.192521   -0.217257   -1.739683
     49          7           0       -2.530298   -0.237864   -4.057211
     50          6           0       -4.448029   -0.260009   -5.519663
     51          6           0       -4.717513   -2.312327    2.068659
     52          6           0       -3.964275   -3.647983    1.921265
     53          7           0       -4.240753   -1.388378    1.048312
     54          6           0       -6.218345   -2.531430    1.884376
     55          7           0       -2.585969   -3.399864    2.206085
     56          6           0       -4.687131    2.980642    0.909795
     57          6           0       -3.951361    3.552600    2.136831
     58          7           0       -4.218111    1.622737    0.669327
     59          6           0       -6.193257    2.950721    1.165654
     60          7           0       -2.567129    3.658419    1.798139
     61          6           0        3.317028   -4.629071   -3.308977
     62          6           0        3.868901   -4.919866   -1.896627
     63          7           0        3.027883   -3.231289   -3.388478
     64          7           0        2.840062   -4.609973   -0.954571
     65          6           0        3.892585    4.115022   -3.268285
     66          6           0        3.323595    5.191322   -2.318857
     67          7           0        2.871507    3.138447   -3.481895
     68          7           0        3.021424    4.562051   -1.071328
     69          6           0        3.240694   -0.577116    5.688779
     70          6           0        3.813063    0.785671    5.242773
     71          7           0        2.958531   -1.341435    4.514198
     72          7           0        2.800729    1.459115    4.492028
     73          6           0        4.175756    1.615404    6.476650
     74          1           0       -3.203592    1.622363    0.618431
     75          1           0       -4.549806    1.281417   -0.231836
     76          1           0       -4.540019   -0.830507   -1.003458
     77          1           0       -3.179046   -0.278474   -1.708595
     78          1           0       -3.227949   -1.328254    1.097965
     79          1           0       -4.592514   -0.447788    1.219804
     80          6           0        4.364620   -5.001071   -4.358327
     81          6           0        4.363370    6.291370   -2.104863
     82          1           0       -4.476670    3.656914    0.062350
     83          6           0       -6.722322    4.339930    1.502109
     84          1           0       -6.388427    2.265480    1.992655
     85          1           0       -6.694691    2.555401    0.280053
     86          6           0       -5.994746    4.902132    2.719036
     87          1           0       -7.795395    4.290650    1.697949
     88          1           0       -6.566722    5.004174    0.648912
     89          6           0       -4.492258    4.946446    2.468217
     90          1           0       -6.199385    4.270915    3.586853
     91          1           0       -6.357962    5.907488    2.941869
     92          1           0       -3.970103    5.330985    3.347061
     93          1           0       -4.270465    5.609215    1.629863
     94          1           0       -4.115736    2.872790    2.992706
     95          1           0       -4.064613    1.204016   -3.962347
     96          6           0       -5.947129   -0.001595   -5.611114
     97          1           0       -4.237815   -1.317536   -5.688669
     98          1           0       -3.914912    0.314033   -6.280671
     99          6           0       -6.690138   -0.781466   -4.531169
    100          1           0       -6.308557   -0.292486   -6.599593
    101          1           0       -6.139752    1.066247   -5.483845
    102          6           0       -6.163763   -0.405146   -3.151049
    103          1           0       -6.546713   -1.851956   -4.694878
    104          1           0       -7.760315   -0.573261   -4.589289
    105          1           0       -6.676266   -0.980130   -2.377322
    106          1           0       -6.347219    0.653147   -2.956278
    107          1           0       -4.462926   -1.733374   -3.223095
    108          1           0       -4.527795   -1.944943    3.092714
    109          6           0       -4.507615   -4.667371    2.926882
    110          1           0       -4.111210   -4.022756    0.891959
    111          6           0       -6.005031   -4.875437    2.734597
    112          1           0       -4.305480   -4.298296    3.933990
    113          1           0       -3.972195   -5.611111    2.801488
    114          6           0       -6.751130   -3.553290    2.882129
    115          1           0       -6.371129   -5.596431    3.468367
    116          1           0       -6.189456   -5.286080    1.739178
    117          1           0       -6.733243   -1.576227    2.004951
    118          1           0       -6.393451   -2.877867    0.864143
    119          1           0       -7.819889   -3.707234    2.720277
    120          1           0       -6.616403   -3.173443    3.897561
    121          1           0        4.719230    0.601740    4.637208
    122          6           0        5.191319    0.878914    7.342347
    123          1           0        3.264165    1.809574    7.044558
    124          1           0        4.578787    2.576377    6.149681
    125          6           0        4.645386   -0.480099    7.768969
    126          1           0        5.426694    1.480398    8.222620
    127          1           0        6.114812    0.736751    6.776072
    128          6           0        4.269557   -1.311943    6.548185
    129          1           0        3.761529   -0.335011    8.394599
    130          1           0        5.391736   -1.013218    8.361287
    131          1           0        3.852036   -2.272860    6.855566
    132          1           0        5.152564   -1.509737    5.938236
    133          1           0        2.326144   -0.379731    6.276940
    134          1           0        2.418495    5.611811   -2.793696
    135          6           0        4.758233    6.925644   -3.433496
    136          1           0        5.237126    5.852838   -1.620005
    137          1           0        3.948564    7.044194   -1.431456
    138          6           0        5.300220    5.868563   -4.390566
    139          1           0        5.512099    7.696664   -3.262981
    140          1           0        3.883771    7.404290   -3.880576
    141          6           0        4.273808    4.761649   -4.602114
    142          1           0        6.215451    5.439576   -3.975754
    143          1           0        5.548987    6.325629   -5.350489
    144          1           0        4.673993    3.992083   -5.265887
    145          1           0        3.370760    5.165658   -5.062858
    146          1           0        4.790076    3.674119   -2.797565
    147          1           0        2.407959   -5.242424   -3.445755
    148          6           0        4.746286   -6.472124   -4.241162
    149          1           0        5.242047   -4.369212   -4.211242
    150          1           0        3.961698   -4.789713   -5.350966
    151          6           0        5.271584   -6.778497   -2.842136
    152          1           0        5.505896   -6.715251   -4.986834
    153          1           0        3.868804   -7.091238   -4.441889
    154          6           0        4.237247   -6.401403   -1.787898
    155          1           0        6.189483   -6.212236   -2.667845
    156          1           0        5.511049   -7.840372   -2.756791
    157          1           0        4.625587   -6.595870   -0.785785
    158          1           0        3.330633   -6.994927   -1.917584
    159          1           0        4.769652   -4.298979   -1.739778
 ---------------------------------------------------------------------

 SCF Done:  E(RPBE1PBE) =  -3105.87264616     a.u. after    8 cycles
 SCF Done:  E(RPBE1PBE) =  -3105.87264715     A.U. after    8 cycles

 The electronic state is 1-A.
 Alpha  occ. eigenvalues --  -14.37965 -14.37956 -14.37955 -14.37900 -14.37896
 Alpha  occ. eigenvalues --  -14.37893 -14.37804 -14.37802 -14.37802 -14.35120
 Alpha  occ. eigenvalues --  -14.35035 -14.35030 -10.26801 -10.26791 -10.26791
 Alpha  occ. eigenvalues --  -10.26710 -10.26707 -10.26704 -10.26622 -10.26619
 Alpha  occ. eigenvalues --  -10.26618 -10.25164 -10.25160 -10.25159 -10.25046
 Alpha  occ. eigenvalues --  -10.25042 -10.25041 -10.24658 -10.24646 -10.24644
 Alpha  occ. eigenvalues --  -10.24487 -10.24484 -10.24484 -10.24482 -10.24481
 Alpha  occ. eigenvalues --  -10.24480 -10.24437 -10.24437 -10.24433 -10.24292
 Alpha  occ. eigenvalues --  -10.24271 -10.24270 -10.24008 -10.24005 -10.24003
 Alpha  occ. eigenvalues --  -10.23960 -10.23960 -10.23958 -10.23908 -10.23903
 Alpha  occ. eigenvalues --  -10.23898 -10.21581 -10.21580 -10.21577 -10.21432
 Alpha  occ. eigenvalues --  -10.21431 -10.21430 -10.21374 -10.21372 -10.21370
 Alpha  occ. eigenvalues --  -10.21330 -10.21327 -10.21327 -10.21326 -10.21310
 Alpha  occ. eigenvalues --  -10.21305 -10.21164 -10.21155 -10.21151 -10.21035
 Alpha  occ. eigenvalues --  -10.21022 -10.21018 -10.20862 -10.20842 -10.20837
 Alpha  occ. eigenvalues --   -0.97882  -0.97785  -0.97779  -0.96965  -0.96953
 Alpha  occ. eigenvalues --   -0.96946  -0.95400  -0.95398  -0.95150  -0.91419
 Alpha  occ. eigenvalues --   -0.90830  -0.90806  -0.90218  -0.89637  -0.89622
 Alpha  occ. eigenvalues --   -0.85772  -0.85770  -0.85369  -0.84290  -0.84090
 Alpha  occ. eigenvalues --   -0.84076  -0.81034  -0.81032  -0.80970  -0.80947
 Alpha  occ. eigenvalues --   -0.80932  -0.80929  -0.76837  -0.76833  -0.76737
 Alpha  occ. eigenvalues --   -0.76264  -0.75980  -0.75976  -0.75736  -0.75523
 Alpha  occ. eigenvalues --   -0.75522  -0.74300  -0.73897  -0.73880  -0.68710
 Alpha  occ. eigenvalues --   -0.68537  -0.68536  -0.67705  -0.67503  -0.67499
 Alpha  occ. eigenvalues --   -0.66645  -0.66642  -0.65865  -0.62972  -0.62943
 Alpha  occ. eigenvalues --   -0.62941  -0.62714  -0.62703  -0.62476  -0.62144
 Alpha  occ. eigenvalues --   -0.61482  -0.61474  -0.61035  -0.60546  -0.60543
 Alpha  occ. eigenvalues --   -0.58282  -0.58278  -0.58134  -0.57572  -0.57503
 Alpha  occ. eigenvalues --   -0.57493  -0.56244  -0.56240  -0.56238  -0.56046
 Alpha  occ. eigenvalues --   -0.56042  -0.55949  -0.54087  -0.53475  -0.53471
 Alpha  occ. eigenvalues --   -0.52773  -0.52770  -0.52677  -0.51030  -0.51028
 Alpha  occ. eigenvalues --   -0.50856  -0.50316  -0.50309  -0.49996  -0.49891
 Alpha  occ. eigenvalues --   -0.49452  -0.49372  -0.49358  -0.48937  -0.48917
 Alpha  occ. eigenvalues --   -0.48766  -0.48544  -0.48524  -0.47530  -0.47527
 Alpha  occ. eigenvalues --   -0.47361  -0.47211  -0.46776  -0.46776  -0.46340
 Alpha  occ. eigenvalues --   -0.46044  -0.45982  -0.45971  -0.45757  -0.45747
 Alpha  occ. eigenvalues --   -0.45570  -0.45038  -0.45035  -0.44466  -0.44465
 Alpha  occ. eigenvalues --   -0.44448  -0.44132  -0.44130  -0.43983  -0.43685
 Alpha  occ. eigenvalues --   -0.43682  -0.43545  -0.42481  -0.42478  -0.42375
 Alpha  occ. eigenvalues --   -0.41854  -0.41851  -0.41516  -0.41442  -0.41133
 Alpha  occ. eigenvalues --   -0.41121  -0.40050  -0.39928  -0.39926  -0.39765
 Alpha  occ. eigenvalues --   -0.39751  -0.39735  -0.39482  -0.39185  -0.39170
 Alpha  occ. eigenvalues --   -0.38475  -0.38471  -0.38417  -0.37986  -0.37981
 Alpha  occ. eigenvalues --   -0.37836  -0.37161  -0.36842  -0.36840  -0.36825
 Alpha  occ. eigenvalues --   -0.36351  -0.36345  -0.36170  -0.36121  -0.36117
 Alpha  occ. eigenvalues --   -0.36006  -0.35880  -0.35874  -0.35817  -0.35705
 Alpha  occ. eigenvalues --   -0.35701  -0.35679  -0.35588  -0.35585  -0.34036
 Alpha  occ. eigenvalues --   -0.34032  -0.34008  -0.33677  -0.33674  -0.33541
 Alpha  occ. eigenvalues --   -0.33478  -0.33472  -0.33299  -0.32331  -0.32198
 Alpha  occ. eigenvalues --   -0.32189  -0.32178  -0.31886  -0.31884  -0.31232
 Alpha  occ. eigenvalues --   -0.31219  -0.31214  -0.29767  -0.29759  -0.29260
 Alpha  occ. eigenvalues --   -0.27766  -0.27639  -0.27633  -0.27380  -0.27376
 Alpha  occ. eigenvalues --   -0.27305  -0.27178  -0.27175  -0.27128  -0.26263
 Alpha  occ. eigenvalues --   -0.26247  -0.26079  -0.25832  -0.25756  -0.25750
 Alpha  occ. eigenvalues --   -0.25524  -0.25513  -0.23814
 Alpha virt. eigenvalues --   -0.06395  -0.06225  -0.06222  -0.05889  -0.05772
 Alpha virt. eigenvalues --   -0.05771  -0.02187  -0.02182  -0.01588   0.03062
 Alpha virt. eigenvalues --    0.03830   0.03877   0.04097   0.04494   0.04868

 Mulliken charges:
               1
     1  C    0.370044
     2  C   -0.178557
     3  C   -0.345353
     4  C    0.357412
     5  H    0.122873
     6  C   -0.366032
     7  C    0.361559
     8  H    0.121030
     9  C   -0.365393
    10  C   -0.161131
    11  H    0.123874
    12  C   -0.164238
    13  H    0.090964
    14  H    0.094858
    15  H    0.092791
    16  C    0.369725
    17  C   -0.177750
    18  C   -0.345214
    19  C    0.357129
    20  H    0.123139
    21  C   -0.365681
    22  C    0.361775
    23  H    0.121186
    24  C   -0.365410
    25  C   -0.161427
    26  H    0.123908
    27  C   -0.164218
    28  H    0.091157
    29  H    0.094541
    30  H    0.092625
    31  C    0.369246
    32  C   -0.179716
    33  C   -0.345287
    34  C    0.357589
    35  H    0.123086
    36  C   -0.366179
    37  C    0.361912
    38  H    0.120983
    39  C   -0.365173
    40  C   -0.161762
    41  H    0.123653
    42  C   -0.164359
    43  H    0.091089
    44  H    0.095060
    45  H    0.092713
    46  C    0.080642
    47  C    0.043737
    48  N   -0.582194
    49  N   -0.216705
    50  C   -0.199721
    51  C    0.082416
    52  C    0.042197
    53  N   -0.582493
    54  C   -0.230780
    55  N   -0.217199
    56  C    0.078195
    57  C    0.044450
    58  N   -0.579822
    59  C   -0.230154
    60  N   -0.215758
    61  C    0.050154
    62  C    0.033352
    63  N   -0.198390
    64  N   -0.196515
    65  C    0.033073
    66  C    0.050793
    67  N   -0.196289
    68  N   -0.198268
    69  C    0.050916
    70  C    0.033001
    71  N   -0.198130
    72  N   -0.195836
    73  C   -0.195794
    74  H    0.225245
    75  H    0.241198
    76  H    0.241467
    77  H    0.225905
    78  H    0.226655
    79  H    0.240991
    80  C   -0.184909
    81  C   -0.185134
    82  H    0.069820
    83  C   -0.178072
    84  H    0.097215
    85  H    0.110859
    86  C   -0.180232
    87  H    0.110445
    88  H    0.091712
    89  C   -0.199447
    90  H    0.092344
    91  H    0.112041
    92  H    0.110711
    93  H    0.100384
    94  H    0.046082
    95  H    0.046435
    96  C   -0.180187
    97  H    0.100448
    98  H    0.110732
    99  C   -0.177497
   100  H    0.112057
   101  H    0.092280
   102  C   -0.231581
   103  H    0.091666
   104  H    0.110492
   105  H    0.110839
   106  H    0.097798
   107  H    0.069944
   108  H    0.070542
   109  C   -0.199925
   110  H    0.046527
   111  C   -0.179935
   112  H    0.100632
   113  H    0.110840
   114  C   -0.178672
   115  H    0.112121
   116  H    0.092390
   117  H    0.110642
   118  H    0.097981
   119  H    0.110587
   120  H    0.091887
   121  H    0.054870
   122  C   -0.179047
   123  H    0.103217
   124  H    0.113408
   125  C   -0.185297
   126  H    0.113659
   127  H    0.093719
   128  C   -0.185209
   129  H    0.093995
   130  H    0.113523
   131  H    0.111735
   132  H    0.101152
   133  H    0.055008
   134  H    0.055259
   135  C   -0.185357
   136  H    0.101122
   137  H    0.111752
   138  C   -0.179097
   139  H    0.113533
   140  H    0.093998
   141  C   -0.195751
   142  H    0.093742
   143  H    0.113658
   144  H    0.113332
   145  H    0.103309
   146  H    0.054960
   147  H    0.055477
   148  C   -0.185513
   149  H    0.101130
   150  H    0.111748
   151  C   -0.179234
   152  H    0.113556
   153  H    0.094046
   154  C   -0.195722
   155  H    0.093761
   156  H    0.113708
   157  H    0.113394
   158  H    0.103298
   159  H    0.054913
 Sum of Mulliken charges =   0.00000

 Dipole moment (field-independent basis, Debye):
    X=              0.6885    Y=             -0.0588    Z=              0.0273  Tot=              0.6915
 Quadrupole moment (field-independent basis, Debye-Ang):
   XX=           -415.6441   YY=           -437.1615   ZZ=           -437.2809
   XY=              0.2055   XZ=              0.0990   YZ=             -0.0841

 Normal termination of Gaussian 16 at Mon Oct 18 07:05:55 2021.
