 Gaussian 16, Revision C.01,
 Gaussian 16:  ES64L-G16RevC.01  3-Jul-2019

 ---------------------------------------------------------------------
 #P MP2/aug-cc-pVDZ SP SCF=(YQC,MaxCycle=900) int=(Grid=Superfinegrid)
 ---------------------------------------------------------------------

 -----------------------------
 _3_alde1_5_ami2_1_opt_gas_mp2
 -----------------------------
 Symbolic Z-matrix:
 Charge =  0 Multiplicity = 1

                         Standard orientation:
 ---------------------------------------------------------------------
 Center     Atomic      Atomic             Coordinates (Angstroms)
 Number     Number       Type             X           Y           Z
 ---------------------------------------------------------------------
      1          6           0       -2.530528    2.457952   -0.535201
      2          6           0       -2.797442    3.357366    0.577289
      3          6           0       -3.255749    1.283195   -0.717855
      4          6           0       -2.922710    0.400773   -1.741886
      5          1           0       -4.080437    1.054732   -0.063154
      6          6           0       -1.829613    0.681240   -2.560025
      7          6           0       -1.100926    1.854913   -2.394886
      8          1           0       -1.555404   -0.018461   -3.337566
      9          6           0       -1.476456    2.748955   -1.395986
     10          6           0        0.081089    2.111986   -3.210617
     11          1           0       -0.906995    3.658632   -1.289898
     12          6           0       -3.680319   -0.822158   -1.961169
     13          1           0        0.441697    1.243130   -3.775095
     14          1           0       -2.270409    4.323092    0.537118
     15          1           0       -3.259448   -1.512653   -2.708252
     16          6           0        0.529899   -3.552440   -0.954428
     17          6           0        1.171023   -3.836214   -2.299134
     18          6           0        1.315164   -3.430603    0.179955
     19          6           0        0.738495   -3.121113    1.411340
     20          1           0        2.383635   -3.556074    0.117999
     21          6           0       -0.638478   -2.939462    1.491775
     22          6           0       -1.440949   -3.111373    0.368467
     23          1           0       -1.091946   -2.686337    2.440918
     24          6           0       -0.846210   -3.418229   -0.854126
     25          6           0       -2.887190   -2.960002    0.483813
     26          1           0       -1.469250   -3.531190   -1.726203
     27          6           0        1.564333   -2.965907    2.597443
     28          1           0       -3.222039   -2.436397    1.388039
     29          1           0        1.046729   -2.587242    3.493890
     30          6           0        0.613619    2.115977    2.388900
     31          6           0       -0.596176    2.231322    3.197408
     32          6           0        0.824927    2.979178    1.315549
     33          6           0        1.898985    2.794924    0.452486
     34          1           0        0.113329    3.773713    1.156574
     35          6           0        2.795810    1.754831    0.692914
     36          6           0        2.633334    0.923561    1.795099
     37          1           0        3.623139    1.620141    0.013315
     38          6           0        1.530468    1.099461    2.629790
     39          6           0        3.596863   -0.141960    2.053916
     40          1           0        1.409161    0.425052    3.463790
     41          6           0        2.029709    3.657326   -0.711106
     42          1           0        4.253063   -0.380289    1.209650
     43          1           0        1.369259    4.537393   -0.718167
     44          6           0       -2.615332    3.375293    3.770776
     45          6           0       -3.578723    3.921139    2.675771
     46          7           0       -1.349902    3.235246    3.100758
     47          7           0       -3.534551    3.042173    1.551639
     48          1           0       -3.259019    4.942417    2.416955
     49          6           0        2.468653   -1.948244   -2.839884
     50          6           0        0.978214   -1.791833   -3.277235
     51          7           0        2.538575   -3.322005   -2.324969
     52          7           0        0.428190   -3.135467   -3.344791
     53          6           0       -5.402034   -2.321757   -1.564268
     54          6           0       -5.090275   -3.269013   -0.370731
     55          7           0       -4.755860   -1.069177   -1.349710
     56          1           0       -6.480040   -2.150035   -1.602577
     57          7           0       -3.662078   -3.426730   -0.392369
     58          6           0       -5.687592   -4.649711   -0.663180
     59          6           0        1.859881    3.551903   -3.902596
     60          6           0        2.744645    4.246530   -2.825398
     61          7           0        0.634437    3.242741   -3.217675
     62          6           0        2.623864    2.364628   -4.496041
     63          7           0        2.814171    3.409001   -1.669251
     64          1           0        2.298383    5.226491   -2.598039
     65          6           0        3.566532   -2.996657    3.774862
     66          6           0        4.520882   -1.802818    3.494299
     67          7           0        2.792688   -3.252266    2.605741
     68          1           0        2.942231   -2.749331    4.648666
     69          7           0        3.645485   -0.707297    3.178023
     70          1           0       -0.792350    1.369183    3.846684
     71          1           0        0.638695   -3.551154   -4.248684
     72          1           0        1.155401   -4.918528   -2.471867
     73          1           0        3.134752   -3.896062   -2.909574
     74          1           0       -4.596702    3.938996    3.069485
     75          1           0       -5.066002   -2.814854   -2.489464
     76          6           0       -5.699818   -2.687917    0.908794
     77          6           0        1.523656    4.566149   -5.001977
     78          1           0        3.752747    4.381208   -3.222326
     79          1           0        4.168741   -3.882501    3.990561
     80          6           0        5.530308   -2.206086    2.415901
     81          6           0        5.247581   -1.427193    4.790212
     82          1           0        6.158641   -1.359938    2.143333
     83          1           0        5.010313   -2.576208    1.536050
     84          1           0        6.167512   -2.998467    2.799328
     85          6           0       -2.444015    4.439389    4.861036
     86          6           0       -3.202902    2.093414    4.368033
     87          1           0       -1.974312    5.327357    4.445983
     88          1           0       -1.809436    4.054316    5.656433
     89          1           0       -3.410673    4.709171    5.278530
     90          1           0        0.919762    5.371774   -4.592981
     91          1           0        0.957113    4.079091   -5.792762
     92          1           0        2.435295    4.981406   -5.423834
     93          1           0       -6.783472   -2.704162    0.828943
     94          1           0       -5.380788   -1.657961    1.046240
     95          1           0       -5.408027   -3.281251    1.773696
     96          1           0       -4.181123    2.306462    4.790591
     97          1           0       -2.567565    1.705058    5.161691
     98          1           0       -3.314832    1.342893    3.589125
     99          1           0        2.895562    1.669219   -3.705363
    100          1           0        3.532867    2.721915   -4.973019
    101          1           0        2.024559    1.851203   -5.245970
    102          1           0        5.955759   -0.625050    4.595150
    103          1           0        5.785052   -2.284624    5.187147
    104          1           0        4.531021   -1.080287    5.529784
    105          1           0       -6.755413   -4.571855   -0.851257
    106          1           0       -5.525460   -5.307126    0.187918
    107          1           0       -5.201138   -5.085846   -1.531277
    108          1           0        0.876016   -1.277876   -4.232410
    109          1           0        0.428860   -1.242657   -2.507776
    110          6           0        2.820307   -0.963585   -1.723793
    111          1           0        2.664037    0.061674   -2.052037
    112          1           0        3.862073   -1.089333   -1.439334
    113          1           0        2.198562   -1.147567   -0.851606
    114          6           0        3.416370   -1.761432   -4.025484
    115          1           0        3.144946   -2.423691   -4.848044
    116          1           0        4.439023   -1.983016   -3.726045
    117          1           0        3.379225   -0.735419   -4.383700
 ---------------------------------------------------------------------

 SCF Done:  E(RHF) =  -2359.39582333     a.u. after    7 cycles
 SCF Done:  E(RHF) =  -2359.39589146     A.U. after   20 cycles
 E2 =    -0.8377229758D+01 EUMP2 =    -0.23677731212218D+04

 The electronic state is 1-A.
 Alpha  occ. eigenvalues --  -15.55844 -15.55718 -15.55546 -15.55498 -15.55257
 Alpha  occ. eigenvalues --  -15.55192 -15.55062 -15.55059 -15.54842 -15.54777
 Alpha  occ. eigenvalues --  -11.29378 -11.28570 -11.28252 -11.28239 -11.27885
 Alpha  occ. eigenvalues --  -11.27882 -11.27832 -11.27794 -11.27617 -11.27078
 Alpha  occ. eigenvalues --  -11.26692 -11.26497 -11.26304 -11.26091 -11.25378
 Alpha  occ. eigenvalues --  -11.25271 -11.25207 -11.24883 -11.24880 -11.24717
 Alpha  occ. eigenvalues --  -11.24678 -11.24675 -11.24641 -11.24627 -11.24559
 Alpha  occ. eigenvalues --  -11.24444 -11.24419 -11.24406 -11.24391 -11.24347
 Alpha  occ. eigenvalues --  -11.24294 -11.24144 -11.23734 -11.23719 -11.23395
 Alpha  occ. eigenvalues --  -11.23080 -11.22910 -11.22770 -11.22080 -11.22071
 Alpha  occ. eigenvalues --  -11.21800 -11.21492 -11.21308 -11.21095 -11.21030
 Alpha  occ. eigenvalues --  -11.20921 -11.20885  -1.28554  -1.26388  -1.25995
 Alpha  occ. eigenvalues --   -1.25770  -1.25623  -1.23211  -1.22675  -1.22655
 Alpha  occ. eigenvalues --   -1.22322  -1.17102  -1.16261  -1.15921  -1.15370
 Alpha  occ. eigenvalues --   -1.09151  -1.08653  -1.08216  -1.07203  -1.06310
 Alpha  occ. eigenvalues --   -1.05215  -1.04343  -1.03204  -1.02720  -1.02334
 Alpha  occ. eigenvalues --   -1.01805  -0.94606  -0.94402  -0.94350  -0.94220
 Alpha  occ. eigenvalues --   -0.93985  -0.93946  -0.93863  -0.93698  -0.93474
 Alpha  occ. eigenvalues --   -0.92283  -0.89705  -0.89259  -0.88599  -0.88384
 Alpha  occ. eigenvalues --   -0.87109  -0.86036  -0.85151  -0.84338  -0.83228
 Alpha  occ. eigenvalues --   -0.79861  -0.78761  -0.77812  -0.76682  -0.76451
 Alpha  occ. eigenvalues --   -0.75984  -0.75638  -0.73168  -0.72728  -0.72436
 Alpha  occ. eigenvalues --   -0.71484  -0.70619  -0.70448  -0.69843  -0.68895
 Alpha  occ. eigenvalues --   -0.68536  -0.67567  -0.67066  -0.66525  -0.65953
 Alpha  occ. eigenvalues --   -0.65815  -0.65398  -0.65030  -0.64798  -0.63991
 Alpha  occ. eigenvalues --   -0.63311  -0.63108  -0.62927  -0.62522  -0.62298
 Alpha  occ. eigenvalues --   -0.62144  -0.62033  -0.61711  -0.61308  -0.60419
 Alpha  occ. eigenvalues --   -0.60355  -0.59982  -0.59977  -0.59745  -0.59682
 Alpha  occ. eigenvalues --   -0.59316  -0.58961  -0.57510  -0.56005  -0.55727
 Alpha  occ. eigenvalues --   -0.55666  -0.55459  -0.55273  -0.55161  -0.54728
 Alpha  occ. eigenvalues --   -0.54436  -0.54232  -0.54190  -0.53998  -0.53832
 Alpha  occ. eigenvalues --   -0.53756  -0.53583  -0.53503  -0.53190  -0.53168
 Alpha  occ. eigenvalues --   -0.52997  -0.52739  -0.52564  -0.52175  -0.51880
 Alpha  occ. eigenvalues --   -0.51671  -0.51491  -0.51007  -0.50892  -0.50629
 Alpha  occ. eigenvalues --   -0.50198  -0.50003  -0.49485  -0.49304  -0.49052
 Alpha  occ. eigenvalues --   -0.48618  -0.48432  -0.47908  -0.47717  -0.47507
 Alpha  occ. eigenvalues --   -0.47098  -0.46828  -0.44814  -0.44781  -0.44140
 Alpha  occ. eigenvalues --   -0.43946  -0.43411  -0.40532  -0.40272  -0.40018
 Alpha  occ. eigenvalues --   -0.39790  -0.39589  -0.39501  -0.39418  -0.39265
 Alpha  occ. eigenvalues --   -0.39043  -0.38910  -0.38775  -0.38668  -0.37358
 Alpha  occ. eigenvalues --   -0.32456  -0.32331  -0.31893  -0.31654  -0.31173
 Alpha  occ. eigenvalues --   -0.30701
 Alpha virt. eigenvalues --    0.02510   0.03219   0.03322   0.03544   0.03843
 Alpha virt. eigenvalues --    0.03992   0.04030   0.04295   0.04594   0.04914
 Alpha virt. eigenvalues --    0.04971   0.05176   0.05188   0.05315   0.05605

 Mulliken charges:
               1
     1  C    1.711956
     2  C    0.537341
     3  C   -0.298799
     4  C    1.359344
     5  H   -1.087320
     6  C    0.597845
     7  C    1.059320
     8  H   -0.879789
     9  C    0.292477
    10  C    0.657168
    11  H   -1.094111
    12  C    0.921844
    13  H   -0.994560
    14  H   -0.651644
    15  H   -0.757278
    16  C    0.680464
    17  C    0.730299
    18  C    0.366045
    19  C    1.094137
    20  H   -1.088094
    21  C    0.123056
    22  C    0.957994
    23  H   -0.878494
    24  C    0.434495
    25  C    0.807667
    26  H   -1.129305
    27  C    0.587023
    28  H   -0.950940
    29  H   -0.723485
    30  C    1.346642
    31  C    0.195865
    32  C   -0.143555
    33  C    2.151412
    34  H   -1.081403
    35  C   -0.594517
    36  C    1.495422
    37  H   -0.962472
    38  C    0.253411
    39  C    0.584119
    40  H   -0.994447
    41  C    0.618878
    42  H   -0.890849
    43  H   -0.690870
    44  C   -3.419605
    45  C    1.212854
    46  N    0.118406
    47  N   -0.530775
    48  H   -0.142498
    49  C   -0.339710
    50  C    2.140890
    51  N   -0.691300
    52  N   -0.718687
    53  C    1.315772
    54  C   -3.731244
    55  N   -0.622137
    56  H   -0.286025
    57  N   -0.120691
    58  C    1.642633
    59  C   -3.677800
    60  C    1.204134
    61  N   -0.044508
    62  C    1.888945
    63  N   -0.605550
    64  H   -0.134076
    65  C    1.328420
    66  C   -3.658867
    67  N   -0.492849
    68  H   -0.173730
    69  N   -0.085143
    70  H   -0.946656
    71  H    0.000651
    72  H   -0.194240
    73  H   -0.016093
    74  H   -0.300065
    75  H   -0.137295
    76  C    1.567713
    77  C    1.822662
    78  H   -0.278740
    79  H   -0.285575
    80  C    1.604772
    81  C    1.766487
    82  H    0.025929
    83  H    0.030469
    84  H   -0.157403
    85  C    1.570565
    86  C    1.625826
    87  H   -0.052561
    88  H   -0.053461
    89  H   -0.003058
    90  H   -0.045862
    91  H   -0.040586
    92  H    0.003213
    93  H   -0.152034
    94  H    0.031395
    95  H    0.074009
    96  H   -0.183856
    97  H    0.032989
    98  H    0.041940
    99  H   -0.091440
   100  H   -0.164723
   101  H   -0.054390
   102  H   -0.040739
   103  H   -0.023347
   104  H   -0.044046
   105  H   -0.032727
   106  H   -0.046289
   107  H   -0.049991
   108  H   -0.424375
   109  H   -1.112064
   110  C    0.300970
   111  H   -1.015430
   112  H   -0.209768
   113  H   -0.278943
   114  C    1.258387
   115  H   -0.022696
   116  H   -0.039911
   117  H   -0.308767
 Sum of Mulliken charges =   0.00000

 Dipole moment (field-independent basis, Debye):
    X=              1.7913    Y=             -0.3979    Z=             -2.0389  Tot=              2.7430
 Quadrupole moment (field-independent basis, Debye-Ang):
   XX=           -349.9507   YY=           -346.9838   ZZ=           -320.0510
   XY=             -2.8871   XZ=            -17.0572   YZ=              5.2459

 Normal termination of Gaussian 16 at Thu Nov  4 06:15:57 2021.
