 Gaussian 16, Revision C.01,
 Gaussian 16:  ES64L-G16RevC.01  3-Jul-2019

 ----------------------------------------------------------------------
 #P PBE1PBE/Def2TZVP SP SCF=(YQC,MaxCycle=900) int=(Grid=Superfinegrid)
  EmpiricalDispersion=GD3
 ----------------------------------------------------------------------

 -------------------------
 _3_alde1_6_ami3_2_opt_gas
 -------------------------
 Symbolic Z-matrix:
 Charge =  0 Multiplicity = 1

                         Standard orientation:
 ---------------------------------------------------------------------
 Center     Atomic      Atomic             Coordinates (Angstroms)
 Number     Number       Type             X           Y           Z
 ---------------------------------------------------------------------
      1          6           0       -0.240898    0.269198   -3.691591
      2          6           0       -1.643573    0.633155   -3.844219
      3          6           0        0.132169   -1.074523   -3.651178
      4          6           0        1.461320   -1.438605   -3.472986
      5          1           0       -0.639425   -1.821159   -3.761615
      6          6           0        2.426695   -0.443039   -3.323001
      7          6           0        2.071628    0.900050   -3.369277
      8          1           0        3.453170   -0.743663   -3.178672
      9          6           0        0.734075    1.250282   -3.554898
     10          6           0        3.089476    1.928305   -3.205472
     11          1           0        0.478639    2.298473   -3.584511
     12          6           0        1.828047   -2.846256   -3.433991
     13          1           0        4.062647    1.577618   -2.827265
     14          1           0       -1.876823    1.704782   -3.744715
     15          1           0        0.985884   -3.555315   -3.453771
     16          6           0       -0.291212   -3.340303    1.603351
     17          6           0       -1.692760   -3.649752    1.351793
     18          6           0        0.073876   -2.634097    2.749876
     19          6           0        1.402193   -2.302985    2.988512
     20          1           0       -0.703141   -2.352892    3.444404
     21          6           0        2.374894   -2.675697    2.060922
     22          6           0        2.027870   -3.386899    0.918098
     23          1           0        3.400706   -2.404799    2.258727
     24          6           0        0.690899   -3.717167    0.695024
     25          6           0        3.053411   -3.765313   -0.043744
     26          1           0        0.441702   -4.266687   -0.199811
     27          6           0        1.760644   -1.566660    4.191383
     28          1           0        4.027942   -3.267574    0.080208
     29          1           0       -1.918950   -4.095271    0.370423
     30          1           0        0.914110   -1.224571    4.806665
     31          6           0       -0.282091    3.084349    2.080573
     32          6           0       -1.688698    3.040091    2.458501
     33          6           0        0.104474    3.717888    0.899171
     34          6           0        1.437560    3.741452    0.507875
     35          1           0       -0.660148    4.187907    0.299499
     36          6           0        2.393451    3.112487    1.305465
     37          6           0        2.024901    2.483693    2.489122
     38          1           0        3.423206    3.134598    0.983254
     39          6           0        0.683548    2.474003    2.872367
     40          6           0        3.032902    1.826380    3.308847
     41          1           0        0.417710    1.977894    3.793328
     42          6           0        1.817908    4.409190   -0.727901
     43          1           0        4.011890    1.674811    2.827561
     44          1           0       -1.932268    2.423682    3.337942
     45          1           0        0.982284    4.779940   -1.341636
     46          6           0       -4.661147   -0.661496   -3.045246
     47          6           0       -3.910542    0.123693   -4.137776
     48          7           0       -4.192521   -0.217257   -1.739683
     49          7           0       -2.530298   -0.237864   -4.057211
     50          6           0       -4.448029   -0.260009   -5.519663
     51          6           0       -4.717513   -2.312327    2.068659
     52          6           0       -3.964275   -3.647983    1.921265
     53          7           0       -4.240753   -1.388378    1.048312
     54          6           0       -6.218345   -2.531430    1.884376
     55          7           0       -2.585969   -3.399864    2.206085
     56          6           0       -4.687131    2.980642    0.909795
     57          6           0       -3.951361    3.552600    2.136831
     58          7           0       -4.218111    1.622737    0.669327
     59          6           0       -6.193257    2.950721    1.165654
     60          7           0       -2.567129    3.658419    1.798139
     61          6           0        3.317028   -4.629071   -3.308977
     62          6           0        3.868901   -4.919866   -1.896627
     63          7           0        3.027883   -3.231289   -3.388478
     64          7           0        2.840062   -4.609973   -0.954571
     65          6           0        3.892585    4.115022   -3.268285
     66          6           0        3.323595    5.191322   -2.318857
     67          7           0        2.871507    3.138447   -3.481895
     68          7           0        3.021424    4.562051   -1.071328
     69          6           0        3.240694   -0.577116    5.688779
     70          6           0        3.813063    0.785671    5.242773
     71          7           0        2.958531   -1.341435    4.514198
     72          7           0        2.800729    1.459115    4.492028
     73          6           0        4.175756    1.615404    6.476650
     74          1           0       -3.203592    1.622363    0.618431
     75          1           0       -4.549806    1.281417   -0.231836
     76          1           0       -4.540019   -0.830507   -1.003458
     77          1           0       -3.179046   -0.278474   -1.708595
     78          1           0       -3.227949   -1.328254    1.097965
     79          1           0       -4.592514   -0.447788    1.219804
     80          6           0        4.364620   -5.001071   -4.358327
     81          6           0        4.363370    6.291370   -2.104863
     82          1           0       -4.476670    3.656914    0.062350
     83          6           0       -6.722322    4.339930    1.502109
     84          1           0       -6.388427    2.265480    1.992655
     85          1           0       -6.694691    2.555401    0.280053
     86          6           0       -5.994746    4.902132    2.719036
     87          1           0       -7.795395    4.290650    1.697949
     88          1           0       -6.566722    5.004174    0.648912
     89          6           0       -4.492258    4.946446    2.468217
     90          1           0       -6.199385    4.270915    3.586853
     91          1           0       -6.357962    5.907488    2.941869
     92          1           0       -3.970103    5.330985    3.347061
     93          1           0       -4.270465    5.609215    1.629863
     94          1           0       -4.115736    2.872790    2.992706
     95          1           0       -4.064613    1.204016   -3.962347
     96          6           0       -5.947129   -0.001595   -5.611114
     97          1           0       -4.237815   -1.317536   -5.688669
     98          1           0       -3.914912    0.314033   -6.280671
     99          6           0       -6.690138   -0.781466   -4.531169
    100          1           0       -6.308557   -0.292486   -6.599593
    101          1           0       -6.139752    1.066247   -5.483845
    102          6           0       -6.163763   -0.405146   -3.151049
    103          1           0       -6.546713   -1.851956   -4.694878
    104          1           0       -7.760315   -0.573261   -4.589289
    105          1           0       -6.676266   -0.980130   -2.377322
    106          1           0       -6.347219    0.653147   -2.956278
    107          1           0       -4.462926   -1.733374   -3.223095
    108          1           0       -4.527795   -1.944943    3.092714
    109          6           0       -4.507615   -4.667371    2.926882
    110          1           0       -4.111210   -4.022756    0.891959
    111          6           0       -6.005031   -4.875437    2.734597
    112          1           0       -4.305480   -4.298296    3.933990
    113          1           0       -3.972195   -5.611111    2.801488
    114          6           0       -6.751130   -3.553290    2.882129
    115          1           0       -6.371129   -5.596431    3.468367
    116          1           0       -6.189456   -5.286080    1.739178
    117          1           0       -6.733243   -1.576227    2.004951
    118          1           0       -6.393451   -2.877867    0.864143
    119          1           0       -7.819889   -3.707234    2.720277
    120          1           0       -6.616403   -3.173443    3.897561
    121          1           0        4.719230    0.601740    4.637208
    122          6           0        5.191319    0.878914    7.342347
    123          1           0        3.264165    1.809574    7.044558
    124          1           0        4.578787    2.576377    6.149681
    125          6           0        4.645386   -0.480099    7.768969
    126          1           0        5.426694    1.480398    8.222620
    127          1           0        6.114812    0.736751    6.776072
    128          6           0        4.269557   -1.311943    6.548185
    129          1           0        3.761529   -0.335011    8.394599
    130          1           0        5.391736   -1.013218    8.361287
    131          1           0        3.852036   -2.272860    6.855566
    132          1           0        5.152564   -1.509737    5.938236
    133          1           0        2.326144   -0.379731    6.276940
    134          1           0        2.418495    5.611811   -2.793696
    135          6           0        4.758233    6.925644   -3.433496
    136          1           0        5.237126    5.852838   -1.620005
    137          1           0        3.948564    7.044194   -1.431456
    138          6           0        5.300220    5.868563   -4.390566
    139          1           0        5.512099    7.696664   -3.262981
    140          1           0        3.883771    7.404290   -3.880576
    141          6           0        4.273808    4.761649   -4.602114
    142          1           0        6.215451    5.439576   -3.975754
    143          1           0        5.548987    6.325629   -5.350489
    144          1           0        4.673993    3.992083   -5.265887
    145          1           0        3.370760    5.165658   -5.062858
    146          1           0        4.790076    3.674119   -2.797565
    147          1           0        2.407959   -5.242424   -3.445755
    148          6           0        4.746286   -6.472124   -4.241162
    149          1           0        5.242047   -4.369212   -4.211242
    150          1           0        3.961698   -4.789713   -5.350966
    151          6           0        5.271584   -6.778497   -2.842136
    152          1           0        5.505896   -6.715251   -4.986834
    153          1           0        3.868804   -7.091238   -4.441889
    154          6           0        4.237247   -6.401403   -1.787898
    155          1           0        6.189483   -6.212236   -2.667845
    156          1           0        5.511049   -7.840372   -2.756791
    157          1           0        4.625587   -6.595870   -0.785785
    158          1           0        3.330633   -6.994927   -1.917584
    159          1           0        4.769652   -4.298979   -1.739778
 ---------------------------------------------------------------------

 SCF Done:  E(RPBE1PBE) =  -3105.85533472     a.u. after    7 cycles
 SCF Done:  E(RPBE1PBE) =  -3105.85534542     A.U. after    8 cycles

 The electronic state is 1-A.
 Alpha  occ. eigenvalues --  -14.37495 -14.37472 -14.37468 -14.37423 -14.37415
 Alpha  occ. eigenvalues --  -14.37413 -14.37283 -14.37276 -14.37274 -14.34632
 Alpha  occ. eigenvalues --  -14.34533 -14.34517 -10.26435 -10.26409 -10.26407
 Alpha  occ. eigenvalues --  -10.26342 -10.26335 -10.26333 -10.26200 -10.26195
 Alpha  occ. eigenvalues --  -10.26189 -10.25011 -10.25008 -10.25004 -10.24870
 Alpha  occ. eigenvalues --  -10.24870 -10.24864 -10.24413 -10.24380 -10.24377
 Alpha  occ. eigenvalues --  -10.23994 -10.23955 -10.23947 -10.23945 -10.23934
 Alpha  occ. eigenvalues --  -10.23932 -10.23931 -10.23923 -10.23923 -10.23876
 Alpha  occ. eigenvalues --  -10.23865 -10.23862 -10.23492 -10.23479 -10.23479
 Alpha  occ. eigenvalues --  -10.23423 -10.23412 -10.23412 -10.23371 -10.23356
 Alpha  occ. eigenvalues --  -10.23352 -10.21579 -10.21577 -10.21577 -10.21555
 Alpha  occ. eigenvalues --  -10.21553 -10.21553 -10.21510 -10.21510 -10.21507
 Alpha  occ. eigenvalues --  -10.21386 -10.21383 -10.21381 -10.21189 -10.21162
 Alpha  occ. eigenvalues --  -10.21159 -10.21148 -10.21129 -10.21117 -10.21037
 Alpha  occ. eigenvalues --  -10.21006 -10.20994 -10.20713 -10.20674 -10.20657
 Alpha  occ. eigenvalues --   -0.97455  -0.97363  -0.97359  -0.96540  -0.96513
 Alpha  occ. eigenvalues --   -0.96506  -0.94927  -0.94924  -0.94685  -0.90953
 Alpha  occ. eigenvalues --   -0.90371  -0.90335  -0.89700  -0.89128  -0.89106
 Alpha  occ. eigenvalues --   -0.85664  -0.85661  -0.85275  -0.84119  -0.83906
 Alpha  occ. eigenvalues --   -0.83879  -0.80678  -0.80673  -0.80574  -0.80488
 Alpha  occ. eigenvalues --   -0.80479  -0.80467  -0.76731  -0.76724  -0.76566
 Alpha  occ. eigenvalues --   -0.76144  -0.75770  -0.75754  -0.75502  -0.75282
 Alpha  occ. eigenvalues --   -0.75281  -0.74054  -0.73664  -0.73634  -0.68309
 Alpha  occ. eigenvalues --   -0.68154  -0.68151  -0.67297  -0.67116  -0.67107
 Alpha  occ. eigenvalues --   -0.66349  -0.66343  -0.65637  -0.62770  -0.62770
 Alpha  occ. eigenvalues --   -0.62742  -0.62464  -0.62443  -0.62260  -0.61920
 Alpha  occ. eigenvalues --   -0.61280  -0.61261  -0.60797  -0.60354  -0.60343
 Alpha  occ. eigenvalues --   -0.58191  -0.58188  -0.58047  -0.57368  -0.57287
 Alpha  occ. eigenvalues --   -0.57264  -0.55991  -0.55960  -0.55949  -0.55738
 Alpha  occ. eigenvalues --   -0.55730  -0.55641  -0.53697  -0.53063  -0.53053
 Alpha  occ. eigenvalues --   -0.52433  -0.52424  -0.52281  -0.50803  -0.50801
 Alpha  occ. eigenvalues --   -0.50609  -0.50053  -0.50039  -0.49643  -0.49590
 Alpha  occ. eigenvalues --   -0.49130  -0.49028  -0.49008  -0.48590  -0.48565
 Alpha  occ. eigenvalues --   -0.48452  -0.48263  -0.48228  -0.47348  -0.47345
 Alpha  occ. eigenvalues --   -0.47220  -0.47076  -0.46617  -0.46610  -0.46098
 Alpha  occ. eigenvalues --   -0.45858  -0.45735  -0.45724  -0.45606  -0.45588
 Alpha  occ. eigenvalues --   -0.45194  -0.44682  -0.44680  -0.44256  -0.44252
 Alpha  occ. eigenvalues --   -0.44218  -0.43878  -0.43868  -0.43737  -0.43409
 Alpha  occ. eigenvalues --   -0.43404  -0.43264  -0.42148  -0.42144  -0.42104
 Alpha  occ. eigenvalues --   -0.41575  -0.41568  -0.41300  -0.41158  -0.40916
 Alpha  occ. eigenvalues --   -0.40890  -0.39932  -0.39828  -0.39826  -0.39447
 Alpha  occ. eigenvalues --   -0.39424  -0.39399  -0.39242  -0.38973  -0.38945
 Alpha  occ. eigenvalues --   -0.38123  -0.38117  -0.38040  -0.37615  -0.37602
 Alpha  occ. eigenvalues --   -0.37474  -0.36830  -0.36574  -0.36556  -0.36554
 Alpha  occ. eigenvalues --   -0.36167  -0.36161  -0.35991  -0.35946  -0.35936
 Alpha  occ. eigenvalues --   -0.35898  -0.35687  -0.35670  -0.35561  -0.35509
 Alpha  occ. eigenvalues --   -0.35500  -0.35472  -0.35353  -0.35351  -0.34085
 Alpha  occ. eigenvalues --   -0.34037  -0.34035  -0.33618  -0.33609  -0.33480
 Alpha  occ. eigenvalues --   -0.33400  -0.33383  -0.33211  -0.32206  -0.32044
 Alpha  occ. eigenvalues --   -0.32029  -0.32012  -0.31742  -0.31736  -0.31059
 Alpha  occ. eigenvalues --   -0.31030  -0.31016  -0.29431  -0.29417  -0.28936
 Alpha  occ. eigenvalues --   -0.27237  -0.27114  -0.27108  -0.26851  -0.26840
 Alpha  occ. eigenvalues --   -0.26777  -0.26644  -0.26637  -0.26588  -0.25720
 Alpha  occ. eigenvalues --   -0.25693  -0.25504  -0.25293  -0.25217  -0.25213
 Alpha  occ. eigenvalues --   -0.24993  -0.24975  -0.23283
 Alpha virt. eigenvalues --   -0.05830  -0.05671  -0.05665  -0.05338  -0.05218
 Alpha virt. eigenvalues --   -0.05214  -0.01711  -0.01701  -0.01129   0.03259
 Alpha virt. eigenvalues --    0.03892   0.03938   0.04095   0.04464   0.04776

 Mulliken charges:
               1
     1  C    0.374411
     2  C   -0.180849
     3  C   -0.338303
     4  C    0.366256
     5  H    0.120201
     6  C   -0.356891
     7  C    0.371437
     8  H    0.116313
     9  C   -0.351069
    10  C   -0.153450
    11  H    0.115016
    12  C   -0.158041
    13  H    0.069719
    14  H    0.075096
    15  H    0.072719
    16  C    0.374481
    17  C   -0.179897
    18  C   -0.338229
    19  C    0.365887
    20  H    0.120401
    21  C   -0.356326
    22  C    0.371313
    23  H    0.116312
    24  C   -0.351235
    25  C   -0.153377
    26  H    0.115014
    27  C   -0.158104
    28  H    0.069883
    29  H    0.074662
    30  H    0.072740
    31  C    0.373842
    32  C   -0.182258
    33  C   -0.338115
    34  C    0.366344
    35  H    0.120291
    36  C   -0.356853
    37  C    0.371571
    38  H    0.116195
    39  C   -0.351138
    40  C   -0.153312
    41  H    0.115022
    42  C   -0.158193
    43  H    0.069838
    44  H    0.075369
    45  H    0.072695
    46  C    0.091873
    47  C    0.046710
    48  N   -0.579325
    49  N   -0.201676
    50  C   -0.195850
    51  C    0.092892
    52  C    0.045305
    53  N   -0.579533
    54  C   -0.231843
    55  N   -0.202182
    56  C    0.090111
    57  C    0.046747
    58  N   -0.576710
    59  C   -0.231673
    60  N   -0.200640
    61  C    0.051547
    62  C    0.040131
    63  N   -0.183867
    64  N   -0.184906
    65  C    0.040069
    66  C    0.052386
    67  N   -0.184748
    68  N   -0.183837
    69  C    0.051954
    70  C    0.040104
    71  N   -0.183900
    72  N   -0.184889
    73  C   -0.194306
    74  H    0.215047
    75  H    0.249314
    76  H    0.249744
    77  H    0.215759
    78  H    0.216595
    79  H    0.248875
    80  C   -0.181552
    81  C   -0.181737
    82  H    0.068664
    83  C   -0.167583
    84  H    0.096184
    85  H    0.105884
    86  C   -0.171395
    87  H    0.105438
    88  H    0.085933
    89  C   -0.195563
    90  H    0.085840
    91  H    0.106879
    92  H    0.105164
    93  H    0.101115
    94  H    0.037045
    95  H    0.037230
    96  C   -0.171346
    97  H    0.101147
    98  H    0.105215
    99  C   -0.167215
   100  H    0.106932
   101  H    0.085856
   102  C   -0.232932
   103  H    0.085933
   104  H    0.105532
   105  H    0.106034
   106  H    0.096536
   107  H    0.068707
   108  H    0.069435
   109  C   -0.196085
   110  H    0.037266
   111  C   -0.171177
   112  H    0.101353
   113  H    0.105346
   114  C   -0.168412
   115  H    0.107051
   116  H    0.085949
   117  H    0.105747
   118  H    0.096745
   119  H    0.105689
   120  H    0.086206
   121  H    0.042937
   122  C   -0.168707
   123  H    0.103780
   124  H    0.108393
   125  C   -0.175443
   126  H    0.108728
   127  H    0.086682
   128  C   -0.181879
   129  H    0.087435
   130  H    0.108572
   131  H    0.107879
   132  H    0.100798
   133  H    0.043963
   134  H    0.043902
   135  C   -0.175560
   136  H    0.100768
   137  H    0.107879
   138  C   -0.168808
   139  H    0.108578
   140  H    0.087443
   141  C   -0.194343
   142  H    0.086690
   143  H    0.108725
   144  H    0.108360
   145  H    0.103843
   146  H    0.042910
   147  H    0.044089
   148  C   -0.175613
   149  H    0.100795
   150  H    0.107858
   151  C   -0.168827
   152  H    0.108576
   153  H    0.087449
   154  C   -0.194123
   155  H    0.086698
   156  H    0.108733
   157  H    0.108347
   158  H    0.103801
   159  H    0.042965
 Sum of Mulliken charges =  -0.00000

 Dipole moment (field-independent basis, Debye):
    X=              0.6761    Y=             -0.0543    Z=              0.0226  Tot=              0.6787
 Quadrupole moment (field-independent basis, Debye-Ang):
   XX=           -425.8343   YY=           -442.1212   ZZ=           -442.2076
   XY=              0.1937   XZ=              0.0456   YZ=             -0.0914

 Normal termination of Gaussian 16 at Sun Oct 17 23:26:59 2021.
