 Gaussian 16, Revision C.01,
 Gaussian 16:  ES64L-G16RevC.01  3-Jul-2019

 ----------------------------------------------------------------------
 #P PBE1PBE/Def2TZVP SP SCF=(YQC,MaxCycle=900) int=(Grid=Superfinegrid)
  EmpiricalDispersion=GD3 SCRF=(PCM,Solvent=Chloroform)
 ----------------------------------------------------------------------

 -------------------------
 _3_alde1_5_ami2_2_opt_cfm
 -------------------------
 Symbolic Z-matrix:
 Charge =  0 Multiplicity = 1

                         Standard orientation:
 ---------------------------------------------------------------------
 Center     Atomic      Atomic             Coordinates (Angstroms)
 Number     Number       Type             X           Y           Z
 ---------------------------------------------------------------------
      1          6           0       -3.722738    1.521424    1.575872
      2          6           0       -4.987054    1.895844    0.962304
      3          6           0       -2.617076    2.365433    1.537213
      4          6           0       -1.389969    1.949803    2.048639
      5          1           0       -2.709806    3.351715    1.113051
      6          6           0       -1.262833    0.658849    2.559139
      7          6           0       -2.361909   -0.193867    2.611021
      8          1           0       -0.302223    0.320106    2.924222
      9          6           0       -3.592503    0.256652    2.141320
     10          6           0       -2.218396   -1.569108    3.080281
     11          1           0       -4.434116   -0.414917    2.202749
     12          6           0       -0.255417    2.864180    2.057430
     13          1           0       -1.182546   -1.922585    3.149347
     14          1           0       -5.813256    1.185659    1.119205
     15          1           0        0.670626    2.491138    2.523185
     16          6           0        4.890111    0.604731    0.149066
     17          6           0        6.116295    0.663925    0.930860
     18          6           0        4.615994   -0.495842   -0.663184
     19          6           0        3.442554   -0.555491   -1.405648
     20          1           0        5.335342   -1.300129   -0.698883
     21          6           0        2.529422    0.498359   -1.330030
     22          6           0        2.798994    1.611128   -0.543033
     23          1           0        1.619675    0.432079   -1.907172
     24          6           0        3.982081    1.655475    0.195621
     25          6           0        1.880268    2.746646   -0.517900
     26          1           0        4.173767    2.530897    0.797177
     27          6           0        3.186449   -1.707411   -2.256794
     28          1           0        0.946534    2.610594   -1.076956
     29          1           0        6.255867    1.573885    1.535121
     30          1           0        3.993839   -2.455265   -2.299640
     31          6           0       -3.795963   -0.347203   -1.866223
     32          6           0       -4.370597    0.948353   -2.212222
     33          6           0       -4.384148   -1.139472   -0.883509
     34          6           0       -3.764496   -2.304700   -0.442588
     35          1           0       -5.312323   -0.802924   -0.448970
     36          6           0       -2.576039   -2.713169   -1.041445
     37          6           0       -1.992124   -1.951536   -2.048505
     38          1           0       -2.090687   -3.615552   -0.708511
     39          6           0       -2.594654   -0.757010   -2.437717
     40          6           0       -0.732241   -2.369133   -2.656076
     41          1           0       -2.124277   -0.142353   -3.193844
     42          6           0       -4.292492   -2.995368    0.723240
     43          1           0       -0.250461   -1.626889   -3.300066
     44          1           0       -5.248964   -2.611047    1.110565
     45          6           0       -6.076626    2.599446   -1.957909
     46          6           0       -6.332685    3.078071   -0.494740
     47          7           0       -5.514294    1.285013   -1.806241
     48          7           0       -5.120673    2.924209    0.242646
     49          6           0        9.392994   -0.250989    0.714235
     50          6           0        8.165080   -0.177060    1.670131
     51          7           0        9.345592   -1.423177   -0.141910
     52          7           0        6.959850   -0.274367    0.919351
     53          6           0        0.739858    4.928896    1.589762
     54          6           0        1.403254    4.984745    0.184282
     55          7           0       -0.360819    4.028226    1.583154
     56          7           0        2.207225    3.799269    0.092704
     57          6           0       -3.192257   -3.672726    3.665106
     58          6           0       -4.105111   -4.343705    2.592480
     59          7           0       -3.230269   -2.272485    3.338980
     60          7           0       -3.654622   -3.912451    1.310415
     61          6           0        1.875740   -2.995621   -3.690875
     62          6           0        0.971802   -4.017362   -2.935767
     63          7           0        2.113496   -1.829171   -2.911613
     64          7           0       -0.259994   -3.511145   -2.416141
     65          1           0        9.348601   -2.268634    0.418996
     66          1           0        8.482705   -1.413325   -0.675273
     67          1           0       -3.711095    1.594535   -2.804216
     68          6           0       10.670573   -0.315751    1.551837
     69          6           0        9.415436    0.987700   -0.183564
     70          6           0       -5.207727    3.633916   -2.678615
     71          6           0       -7.420959    2.440655   -2.675431
     72          1           0       -7.155358    2.479205   -0.074802
     73          1           0       -6.609102    4.133806   -0.509269
     74          1           0        2.805459   -3.522233   -3.959903
     75          1           0        1.363352   -2.686066   -4.606930
     76          6           0        1.730792   -4.594795   -1.734009
     77          6           0        0.611093   -5.152090   -3.904984
     78          1           0        1.517170    4.652891    2.319903
     79          1           0        0.347338    5.921379    1.824355
     80          1           0       -5.148663   -4.052724    2.790689
     81          1           0       -4.000564   -5.427956    2.664097
     82          6           0       -3.836421   -3.836593    5.045801
     83          6           0       -1.813516   -4.337924    3.637958
     84          6           0        2.387711    6.159869    0.149934
     85          6           0        0.333061    5.160934   -0.896999
     86          1           0       -4.291124    3.805966   -2.119659
     87          1           0       -5.751345    4.572208   -2.751044
     88          1           0       -4.965735    3.300779   -3.686404
     89          1           0       -8.000378    1.649020   -2.207939
     90          1           0       -7.253641    2.175305   -3.717026
     91          1           0       -7.984499    3.369213   -2.633401
     92          1           0       -1.141616   -3.865224    4.352137
     93          1           0       -1.389338   -4.273068    2.638942
     94          1           0       -1.913631   -5.386137    3.906884
     95          1           0       -4.016015   -4.887681    5.256486
     96          1           0       -4.779661   -3.298088    5.082293
     97          1           0       -3.178197   -3.429975    5.810446
     98          1           0        0.786658    5.090000   -1.884163
     99          1           0       -0.128478    6.138560   -0.790800
    100          1           0       -0.444147    4.407938   -0.797551
    101          1           0        1.870112    7.099610    0.322009
    102          1           0        2.876292    6.198260   -0.820731
    103          1           0        3.149946    6.026496    0.912674
    104          1           0       -0.017671   -5.875743   -3.393885
    105          1           0        1.510342   -5.648279   -4.260961
    106          1           0        0.061818   -4.759903   -4.758181
    107          1           0        2.016418   -3.796637   -1.051850
    108          1           0        2.623575   -5.121842   -2.062050
    109          1           0        1.083218   -5.285103   -1.201291
    110          1           0        9.530671    1.890641    0.410746
    111          1           0        8.490558    1.057930   -0.752225
    112          1           0       10.245084    0.912265   -0.880440
    113          1           0       10.661194   -1.190611    2.198910
    114          1           0       10.771054    0.572471    2.169951
    115          1           0       11.529717   -0.386546    0.890731
    116          1           0        8.220039    0.743000    2.276030
    117          1           0        8.201839   -1.044210    2.339138
 ---------------------------------------------------------------------

 SCF Done:  E(RPBE1PBE) =  -2372.68499737     a.u. after    6 cycles
 SCF Done:  E(RPBE1PBE) =  -2372.68503282     A.U. after   10 cycles

 The electronic state is 1-A.
 Alpha  occ. eigenvalues --  -14.38111 -14.38043 -14.37694 -14.37689 -14.37570
 Alpha  occ. eigenvalues --  -14.37531 -14.37445 -14.37388 -14.37249 -14.35427
 Alpha  occ. eigenvalues --  -10.26955 -10.26922 -10.26824 -10.26807 -10.26660
 Alpha  occ. eigenvalues --  -10.26621 -10.26588 -10.26581 -10.26566 -10.26566
 Alpha  occ. eigenvalues --  -10.26360 -10.26324 -10.26099 -10.25873 -10.24688
 Alpha  occ. eigenvalues --  -10.24681 -10.24580 -10.24535 -10.24497 -10.24402
 Alpha  occ. eigenvalues --  -10.24378 -10.24303 -10.24252 -10.24206 -10.24192
 Alpha  occ. eigenvalues --  -10.24141 -10.24137 -10.24059 -10.24046 -10.24041
 Alpha  occ. eigenvalues --  -10.24025 -10.23973 -10.23926 -10.23689 -10.23588
 Alpha  occ. eigenvalues --  -10.23346 -10.23107 -10.20966 -10.20882 -10.20862
 Alpha  occ. eigenvalues --  -10.20629 -10.20575 -10.20564 -10.20501 -10.20499
 Alpha  occ. eigenvalues --  -10.20493 -10.20212  -0.97827  -0.97704  -0.97654
 Alpha  occ. eigenvalues --   -0.97582  -0.96840  -0.95315  -0.95237  -0.94787
 Alpha  occ. eigenvalues --   -0.94512  -0.91777  -0.90347  -0.89902  -0.89524
 Alpha  occ. eigenvalues --   -0.83917  -0.83635  -0.83513  -0.82101  -0.81053
 Alpha  occ. eigenvalues --   -0.80672  -0.80096  -0.78998  -0.78515  -0.78025
 Alpha  occ. eigenvalues --   -0.77760  -0.72970  -0.72310  -0.72289  -0.72018
 Alpha  occ. eigenvalues --   -0.72009  -0.71397  -0.71341  -0.71330  -0.71125
 Alpha  occ. eigenvalues --   -0.71020  -0.68514  -0.68250  -0.68106  -0.67023
 Alpha  occ. eigenvalues --   -0.65875  -0.65465  -0.64954  -0.64110  -0.63667
 Alpha  occ. eigenvalues --   -0.60986  -0.60323  -0.58783  -0.57837  -0.57322
 Alpha  occ. eigenvalues --   -0.57194  -0.56651  -0.56141  -0.54903  -0.54812
 Alpha  occ. eigenvalues --   -0.54593  -0.54048  -0.53167  -0.52738  -0.52390
 Alpha  occ. eigenvalues --   -0.51577  -0.51304  -0.50991  -0.50664  -0.50248
 Alpha  occ. eigenvalues --   -0.50045  -0.49657  -0.49503  -0.49081  -0.48700
 Alpha  occ. eigenvalues --   -0.48572  -0.48312  -0.47965  -0.47948  -0.47821
 Alpha  occ. eigenvalues --   -0.47315  -0.47251  -0.46782  -0.46338  -0.46288
 Alpha  occ. eigenvalues --   -0.45761  -0.45371  -0.45042  -0.44982  -0.44853
 Alpha  occ. eigenvalues --   -0.44660  -0.44135  -0.43507  -0.42868  -0.42715
 Alpha  occ. eigenvalues --   -0.42100  -0.42008  -0.41766  -0.41538  -0.41250
 Alpha  occ. eigenvalues --   -0.41056  -0.40976  -0.40787  -0.40699  -0.39788
 Alpha  occ. eigenvalues --   -0.39773  -0.39645  -0.39575  -0.39497  -0.39429
 Alpha  occ. eigenvalues --   -0.39245  -0.39063  -0.39005  -0.38727  -0.38524
 Alpha  occ. eigenvalues --   -0.38328  -0.38223  -0.37820  -0.37606  -0.37296
 Alpha  occ. eigenvalues --   -0.37063  -0.36985  -0.36873  -0.36793  -0.36527
 Alpha  occ. eigenvalues --   -0.36238  -0.36072  -0.36012  -0.35792  -0.35268
 Alpha  occ. eigenvalues --   -0.34926  -0.34785  -0.34340  -0.34304  -0.33966
 Alpha  occ. eigenvalues --   -0.33819  -0.33615  -0.31264  -0.30443  -0.30094
 Alpha  occ. eigenvalues --   -0.27838  -0.27411  -0.27049  -0.26914  -0.26785
 Alpha  occ. eigenvalues --   -0.26755  -0.26508  -0.26491  -0.26415  -0.26361
 Alpha  occ. eigenvalues --   -0.25972  -0.25617  -0.25282  -0.25057  -0.24977
 Alpha  occ. eigenvalues --   -0.24731
 Alpha virt. eigenvalues --   -0.06946  -0.06295  -0.06158  -0.05805  -0.05474
 Alpha virt. eigenvalues --   -0.04876  -0.02318  -0.02141  -0.01225   0.03476
 Alpha virt. eigenvalues --    0.04095   0.04518   0.04723   0.04978   0.05045

 Mulliken charges:
               1
     1  C    0.401231
     2  C   -0.174893
     3  C   -0.388070
     4  C    0.384308
     5  H    0.128773
     6  C   -0.353242
     7  C    0.270335
     8  H    0.129736
     9  C   -0.288610
    10  C   -0.137767
    11  H    0.130714
    12  C   -0.178643
    13  H    0.098779
    14  H    0.090637
    15  H    0.089501
    16  C    0.359503
    17  C   -0.175747
    18  C   -0.350431
    19  C    0.378781
    20  H    0.129750
    21  C   -0.364288
    22  C    0.391225
    23  H    0.135586
    24  C   -0.350383
    25  C   -0.198991
    26  H    0.126324
    27  C   -0.208221
    28  H    0.100206
    29  H    0.085963
    30  H    0.093697
    31  C    0.270203
    32  C   -0.137707
    33  C   -0.302031
    34  C    0.403734
    35  H    0.132261
    36  C   -0.387631
    37  C    0.341832
    38  H    0.123835
    39  C   -0.359289
    40  C   -0.136872
    41  H    0.127971
    42  C   -0.179017
    43  H    0.102970
    44  H    0.089322
    45  C    0.145806
    46  C   -0.057290
    47  N   -0.201874
    48  N   -0.204694
    49  C    0.151865
    50  C   -0.132410
    51  N   -0.540463
    52  N   -0.190272
    53  C   -0.098657
    54  C    0.139794
    55  N   -0.198627
    56  N   -0.189618
    57  C    0.149391
    58  C   -0.060115
    59  N   -0.201330
    60  N   -0.203917
    61  C   -0.125145
    62  C    0.157386
    63  N   -0.198538
    64  N   -0.193703
    65  H    0.220348
    66  H    0.229235
    67  H    0.095537
    68  C   -0.369431
    69  C   -0.384830
    70  C   -0.446785
    71  C   -0.371478
    72  H    0.085608
    73  H    0.119608
    74  H    0.110353
    75  H    0.134850
    76  C   -0.398285
    77  C   -0.373141
    78  H    0.090603
    79  H    0.127605
    80  H    0.083941
    81  H    0.119644
    82  C   -0.370617
    83  C   -0.446526
    84  C   -0.353506
    85  C   -0.423307
    86  H    0.149601
    87  H    0.134228
    88  H    0.134409
    89  H    0.129493
    90  H    0.127489
    91  H    0.125248
    92  H    0.133188
    93  H    0.151410
    94  H    0.133494
    95  H    0.125614
    96  H    0.129633
    97  H    0.127438
    98  H    0.133678
    99  H    0.132067
   100  H    0.150212
   101  H    0.122717
   102  H    0.126543
   103  H    0.125084
   104  H    0.134462
   105  H    0.124705
   106  H    0.128099
   107  H    0.137842
   108  H    0.123103
   109  H    0.133872
   110  H    0.117319
   111  H    0.132144
   112  H    0.127688
   113  H    0.122942
   114  H    0.120961
   115  H    0.130041
   116  H    0.080959
   117  H    0.121962
 Sum of Mulliken charges =   0.00000

 Dipole moment (field-independent basis, Debye):
    X=              1.0706    Y=              0.3892    Z=              0.5731  Tot=              1.2752
 Quadrupole moment (field-independent basis, Debye-Ang):
   XX=           -348.5284   YY=           -333.3192   ZZ=           -325.5619
   XY=             -3.1329   XZ=             15.5123   YZ=             -9.1060

 Normal termination of Gaussian 16 at Mon Oct 18 10:46:58 2021.
