 Gaussian 16, Revision C.01,
 Gaussian 16:  ES64L-G16RevC.01  3-Jul-2019

 ----------------------------------------------------------------------
 #P MP2/aug-cc-pVDZ SP SCF=(YQC,MaxCycle=900) int=(Grid=Superfinegrid)
 SCRF=(PCM,Solvent=Chloroform)
 ----------------------------------------------------------------------

 -----------------------------
 _3_alde1_4_ami4_1_opt_cfm_mp2
 -----------------------------
 Symbolic Z-matrix:
 Charge =  0 Multiplicity = 1

                         Standard orientation:
 ---------------------------------------------------------------------
 Center     Atomic      Atomic             Coordinates (Angstroms)
 Number     Number       Type             X           Y           Z
 ---------------------------------------------------------------------
      1          6           0       -2.656466    1.849698   -0.908834
      2          6           0       -3.567600    1.260516   -1.881684
      3          6           0       -1.642601    2.709427   -1.314370
      4          6           0       -0.730839    3.215564   -0.387433
      5          1           0       -1.545850    3.012400   -2.345795
      6          6           0       -0.808995    2.810519    0.941141
      7          6           0       -1.816586    1.944205    1.360674
      8          1           0       -0.095249    3.158292    1.672402
      9          6           0       -2.752135    1.494494    0.436053
     10          6           0       -1.883075    1.463964    2.732820
     11          1           0       -3.553781    0.837169    0.733341
     12          6           0        0.318765    4.134331   -0.798676
     13          1           0       -2.809024    0.933399    2.997891
     14          1           0       -3.245926    1.322550   -2.932970
     15          1           0        0.960483    4.509070    0.012927
     16          6           0        2.901516    0.637050    1.457922
     17          6           0        2.653931    1.013652    2.855898
     18          6           0        3.184970   -0.691988    1.143016
     19          6           0        3.380004   -1.082575   -0.176846
     20          1           0        3.252146   -1.410861    1.947741
     21          6           0        3.279929   -0.127138   -1.187805
     22          6           0        3.026251    1.206762   -0.885711
     23          1           0        3.418905   -0.449660   -2.208549
     24          6           0        2.840997    1.585134    0.443052
     25          6           0        2.908027    2.193201   -1.953102
     26          1           0        2.640651    2.621631    0.663610
     27          6           0        3.641971   -2.480521   -0.485669
     28          1           0        2.712988    1.788042   -2.957800
     29          1           0        2.443758    2.088314    3.005186
     30          1           0        3.686865   -3.154913    0.382168
     31          6           0       -2.583468   -2.300801   -0.117145
     32          6           0       -3.941021   -1.938156   -0.493826
     33          6           0       -2.108622   -1.945885    1.140364
     34          6           0       -0.778194   -2.170516    1.491689
     35          1           0       -2.748382   -1.456477    1.857903
     36          6           0        0.058113   -2.819450    0.590875
     37          6           0       -0.408465   -3.199489   -0.667336
     38          1           0        1.088335   -3.021537    0.838604
     39          6           0       -1.721127   -2.914298   -1.025100
     40          6           0        0.501063   -3.808820   -1.629083
     41          1           0       -2.099127   -3.163681   -2.004732
     42          6           0       -0.245978   -1.630583    2.735892
     43          1           0        0.201425   -3.725473   -2.685590
     44          1           0        0.848785   -1.648566    2.832877
     45          6           0       -5.644595   -1.451205   -1.975822
     46          6           0       -5.426462   -0.012303   -2.494909
     47          7           0       -4.363352   -2.015448   -1.681256
     48          7           0       -4.633959    0.685321   -1.534411
     49          8           0        2.659252    0.245494    3.785669
     50          6           0        1.625374    5.295168   -2.313937
     51          6           0        2.773634    4.371129   -2.772602
     52          7           0        0.491490    4.481142   -2.000293
     53          7           0        3.014323    3.428261   -1.729463
     54          6           0       -1.055815    0.959908    4.827498
     55          6           0       -0.417589   -0.444650    4.737758
     56          7           0       -0.935488    1.606805    3.555228
     57          7           0       -0.990055   -1.118038    3.615439
     58          6           0        3.897790   -4.310907   -1.870879
     59          6           0        2.499091   -4.844353   -2.249428
     60          7           0        3.792979   -2.899457   -1.666669
     61          7           0        1.570268   -4.372045   -1.272932
     62          1           0       -4.566371   -1.545508    0.321509
     63          1           0       -0.678102   -0.995731    5.646136
     64          1           0        0.675777   -0.358821    4.665298
     65          1           0       -2.107911    0.843522    5.127852
     66          1           0       -0.516545    1.548439    5.571843
     67          1           0        1.974306    5.874970   -1.446261
     68          1           0        1.358398    5.968019   -3.131338
     69          1           0        3.673055    4.977874   -2.907983
     70          1           0        2.506805    3.889074   -3.726314
     71          1           0        2.524807   -5.937401   -2.210813
     72          1           0        2.235082   -4.525625   -3.269999
     73          1           0        4.236752   -4.835365   -0.964935
     74          1           0        4.590789   -4.498655   -2.693409
     75          1           0       -6.401175    0.478749   -2.568596
     76          1           0       -4.956197   -0.039129   -3.490558
     77          1           0       -6.123034   -2.046119   -2.756310
     78          1           0       -6.291651   -1.404238   -1.086922
 ---------------------------------------------------------------------

 SCF Done:  E(RHF) =  -1855.76274202     a.u. after    7 cycles
 SCF Done:  E(RHF) =  -1855.76281649     A.U. after   15 cycles
 E2 =    -0.6340974576D+01 EUMP2 =    -0.18621037910670D+04

 The electronic state is 1-A.
 Alpha  occ. eigenvalues --  -20.57363 -15.56790 -15.56474 -15.56421 -15.56418
 Alpha  occ. eigenvalues --  -15.56167 -15.56030 -15.55980 -15.55864 -11.34894
 Alpha  occ. eigenvalues --  -11.29229 -11.28986 -11.28868 -11.28854 -11.28765
 Alpha  occ. eigenvalues --  -11.28625 -11.28432 -11.28397 -11.26954 -11.26745
 Alpha  occ. eigenvalues --  -11.26611 -11.26081 -11.26022 -11.26001 -11.25938
 Alpha  occ. eigenvalues --  -11.25918 -11.25893 -11.25790 -11.25788 -11.25659
 Alpha  occ. eigenvalues --  -11.25504 -11.25449 -11.25423 -11.25415 -11.25374
 Alpha  occ. eigenvalues --  -11.25326 -11.25239 -11.25209 -11.25182 -11.25174
 Alpha  occ. eigenvalues --  -11.25110 -11.25092 -11.25054 -11.24888  -1.41094
 Alpha  occ. eigenvalues --   -1.26766  -1.26591  -1.26434  -1.25998  -1.23849
 Alpha  occ. eigenvalues --   -1.23804  -1.23351  -1.22982  -1.18476  -1.17501
 Alpha  occ. eigenvalues --   -1.16870  -1.07950  -1.07693  -1.07582  -1.06659
 Alpha  occ. eigenvalues --   -1.05801  -1.05517  -1.01669  -1.00224  -1.00113
 Alpha  occ. eigenvalues --   -0.99376  -0.92016  -0.91895  -0.91623  -0.91214
 Alpha  occ. eigenvalues --   -0.90539  -0.87729  -0.87579  -0.86976  -0.84009
 Alpha  occ. eigenvalues --   -0.83241  -0.82929  -0.81383  -0.79915  -0.76797
 Alpha  occ. eigenvalues --   -0.75728  -0.75355  -0.75258  -0.74621  -0.74160
 Alpha  occ. eigenvalues --   -0.72228  -0.71189  -0.70988  -0.69956  -0.69209
 Alpha  occ. eigenvalues --   -0.68245  -0.67619  -0.67347  -0.66709  -0.66406
 Alpha  occ. eigenvalues --   -0.65888  -0.65832  -0.65376  -0.64838  -0.64380
 Alpha  occ. eigenvalues --   -0.63511  -0.62497  -0.62230  -0.62146  -0.61799
 Alpha  occ. eigenvalues --   -0.61593  -0.61285  -0.60618  -0.60301  -0.59423
 Alpha  occ. eigenvalues --   -0.59207  -0.58865  -0.58688  -0.57012  -0.55573
 Alpha  occ. eigenvalues --   -0.55169  -0.55111  -0.54539  -0.54306  -0.54067
 Alpha  occ. eigenvalues --   -0.54025  -0.53679  -0.53139  -0.52984  -0.52514
 Alpha  occ. eigenvalues --   -0.51702  -0.51110  -0.50664  -0.50246  -0.49915
 Alpha  occ. eigenvalues --   -0.49589  -0.46081  -0.45819  -0.45646  -0.45530
 Alpha  occ. eigenvalues --   -0.44977  -0.43767  -0.42637  -0.41451  -0.41293
 Alpha  occ. eigenvalues --   -0.41111  -0.41056  -0.40695  -0.40551  -0.40487
 Alpha  occ. eigenvalues --   -0.40229  -0.39857  -0.39575  -0.34810  -0.33469
 Alpha  occ. eigenvalues --   -0.33066  -0.32616  -0.32329  -0.32043
 Alpha virt. eigenvalues --    0.03462   0.03847   0.03905   0.03949   0.04505
 Alpha virt. eigenvalues --    0.04558   0.04622   0.04847   0.04916   0.04996
 Alpha virt. eigenvalues --    0.05594   0.05789   0.05857   0.05864   0.06015

 Mulliken charges:
               1
     1  C    1.010184
     2  C    0.646543
     3  C    0.418167
     4  C    0.853289
     5  H   -0.886655
     6  C    0.161509
     7  C    1.319249
     8  H   -1.000113
     9  C    0.211935
    10  C    0.725339
    11  H   -0.994766
    12  C    1.072130
    13  H   -0.665775
    14  H   -0.685554
    15  H   -0.677573
    16  C    0.604432
    17  C    1.275406
    18  C    0.240723
    19  C    0.702778
    20  H   -0.938091
    21  C    0.632262
    22  C    0.224389
    23  H   -0.943047
    24  C    1.070880
    25  C    1.062999
    26  H   -0.984358
    27  C    1.025201
    28  H   -0.672692
    29  H   -0.495233
    30  H   -0.653458
    31  C    0.769322
    32  C    0.750029
    33  C    0.203983
    34  C    1.147687
    35  H   -1.028555
    36  C    0.815981
    37  C    0.709159
    38  H   -0.839359
    39  C    0.588938
    40  C    0.618597
    41  H   -0.894352
    42  C    0.734722
    43  H   -0.641594
    44  H   -0.818966
    45  C    0.574737
    46  C    0.712514
    47  N   -0.829570
    48  N   -0.701787
    49  O   -0.968211
    50  C    0.562954
    51  C    0.701034
    52  N   -0.862571
    53  N   -0.813289
    54  C    0.477338
    55  C    1.063295
    56  N   -0.735201
    57  N   -0.820452
    58  C    0.554333
    59  C    0.741146
    60  N   -0.830003
    61  N   -0.695271
    62  H   -0.633090
    63  H   -0.255992
    64  H   -0.214650
    65  H   -0.113282
    66  H   -0.336836
    67  H   -0.108313
    68  H   -0.323557
    69  H   -0.245106
    70  H   -0.117900
    71  H   -0.239278
    72  H   -0.126020
    73  H   -0.091192
    74  H   -0.317704
    75  H   -0.239615
    76  H   -0.127100
    77  H   -0.318923
    78  H   -0.098130
 Sum of Mulliken charges =   0.00000

 Dipole moment (field-independent basis, Debye):
    X=              0.4237    Y=              0.4715    Z=             -3.7482  Tot=              3.8015
 Quadrupole moment (field-independent basis, Debye-Ang):
   XX=           -254.7080   YY=           -255.4618   ZZ=           -255.3837
   XY=             -0.0506   XZ=             -5.6744   YZ=              3.3210

 Normal termination of Gaussian 16 at Tue Nov  9 15:49:55 2021.
