 Gaussian 16, Revision C.01,
 Gaussian 16:  ES64L-G16RevC.01  3-Jul-2019

 ----------------------------------------------------------------------
 #P PBE1PBE/Def2TZVP SP SCF=(YQC,MaxCycle=900) int=(Grid=Superfinegrid)
  EmpiricalDispersion=GD3 SCRF=(PCM,Solvent=Dichloromethane)
 ----------------------------------------------------------------------

 -------------------------
 _3_alde1_6_ami4_1_opt_dcm
 -------------------------
 Symbolic Z-matrix:
 Charge =  0 Multiplicity = 1

                         Standard orientation:
 ---------------------------------------------------------------------
 Center     Atomic      Atomic             Coordinates (Angstroms)
 Number     Number       Type             X           Y           Z
 ---------------------------------------------------------------------
      1          6           0        3.132171   -1.426707    0.124162
      2          6           0        3.625467   -1.639482    1.534442
      3          6           0        2.343948   -2.395943   -0.484875
      4          6           0        1.911024   -2.237381   -1.800179
      5          1           0        2.084222   -3.287431    0.068679
      6          6           0        2.251850   -1.078837   -2.495289
      7          6           0        3.043535   -0.108129   -1.896840
      8          1           0        1.903756   -0.969786   -3.510729
      9          6           0        3.486521   -0.293885   -0.586509
     10          6           0        3.392488    1.105726   -2.621140
     11          1           0        4.100416    0.461471   -0.125720
     12          6           0        1.128252   -3.280029   -2.446898
     13          1           0        2.749172    1.352069   -3.480616
     14          1           0        0.803092   -4.108558   -1.797601
     15          6           0       -2.606347   -1.789614    0.569552
     16          6           0       -2.151239   -2.574723    1.772665
     17          6           0       -3.270208   -0.579117    0.695238
     18          6           0       -3.664751    0.132839   -0.437627
     19          1           0       -3.484081   -0.179032    1.676289
     20          6           0       -3.343078   -0.355701   -1.701670
     21          6           0       -2.666777   -1.561700   -1.835572
     22          1           0       -3.640391    0.218993   -2.565419
     23          6           0       -2.318938   -2.280483   -0.692924
     24          6           0       -2.260799   -2.062007   -3.141455
     25          1           0       -1.821407   -3.229304   -0.811666
     26          6           0       -4.392123    1.381717   -0.281712
     27          1           0       -2.277615   -1.333877   -3.967044
     28          1           0       -4.524543    1.724183    0.755547
     29          6           0       -0.101212    2.402689    1.793514
     30          6           0       -0.279768    1.743093    3.135947
     31          6           0        1.183421    2.579341    1.294139
     32          6           0        1.389059    3.219202    0.074224
     33          1           0        2.029804    2.217816    1.859863
     34          6           0        0.290077    3.652984   -0.664126
     35          6           0       -0.997189    3.474758   -0.176037
     36          1           0        0.467503    4.143514   -1.608991
     37          6           0       -1.184617    2.853009    1.060024
     38          6           0       -2.146854    3.902566   -0.960471
     39          1           0       -2.187147    2.718045    1.429697
     40          6           0        2.743313    3.437009   -0.408151
     41          1           0       -1.967417    4.027937   -2.040095
     42          1           0        3.541101    3.001181    0.210468
     43          6           0        3.587540   -0.292985    3.471498
     44          6           0        3.000631   -1.689399    3.737535
     45          7           0        4.168560   -0.402493    2.134533
     46          1           0        2.766355    0.431640    3.436952
     47          7           0        2.572380   -2.123710    2.417006
     48          1           0        3.776849   -2.375704    4.093570
     49          6           0       -0.315307   -3.696182    2.594672
     50          6           0       -1.214048   -4.746732    1.920302
     51          7           0       -0.710112   -2.444154    1.962424
     52          1           0        0.751948   -3.871060    2.480662
     53          7           0       -2.433063   -4.012541    1.594785
     54          1           0       -1.408552   -5.612959    2.552598
     55          6           0       -0.412450   -0.176329    4.357124
     56          6           0       -1.774186    0.543639    4.496280
     57          7           0        0.197968    0.371223    3.155626
     58          1           0       -0.506110   -1.255682    4.276732
     59          7           0       -1.682367    1.655453    3.554668
     60          1           0       -1.951218    0.864325    5.528893
     61          6           0        0.052487   -4.278273   -4.251425
     62          6           0       -1.347419   -3.699842   -4.536648
     63          7           0        0.865336   -3.251723   -3.680512
     64          1           0        0.507683   -4.590864   -5.194611
     65          7           0       -1.883598   -3.254657   -3.293337
     66          1           0       -1.980903   -4.503212   -4.923750
     67          6           0        4.594819    3.072630   -2.937718
     68          6           0        4.344236    4.191494   -1.903188
     69          7           0        4.370029    1.826477   -2.282876
     70          1           0        5.640134    3.119138   -3.253660
     71          7           0        2.989517    4.099459   -1.455464
     72          1           0        4.486012    5.161785   -2.383933
     73          6           0       -5.458708    3.300477   -1.012895
     74          6           0       -4.402532    4.397989   -1.263485
     75          7           0       -4.852461    2.029647   -1.263033
     76          1           0       -6.289830    3.435735   -1.708426
     77          7           0       -3.275268    4.107677   -0.438114
     78          1           0       -4.822881    5.360437   -0.959038
     79          1           0       -0.269378   -2.384336    1.046341
     80          1           0       -2.645400   -2.186094    2.679370
     81          1           0       -3.219184   -4.302521    2.160260
     82          1           0       -2.019352    2.528375    3.940027
     83          1           0       -0.177224   -0.123985    2.348293
     84          1           0        0.329779    2.299670    3.879711
     85          1           0        1.710708   -1.628513    2.196736
     86          1           0        5.179610   -0.442112    2.170875
     87          1           0        4.408018   -2.421378    1.502210
     88          1           0       -0.554514   -3.630001    3.661673
     89          1           0        4.321572    0.022055    4.213042
     90          1           0       -2.600500   -0.108489    4.193421
     91          1           0       -1.276310   -2.895038   -5.285658
     92          1           0        5.066245    4.066593   -1.082397
     93          1           0       -4.146754    4.430594   -2.334815
     94          1           0        2.167871   -1.685364    4.435582
     95          1           0        0.230449    0.070093    5.209048
     96          1           0       -0.058763   -5.146492   -3.582707
     97          1           0        3.934934    3.224204   -3.807222
     98          1           0       -5.815449    3.394680    0.024105
     99          1           0       -0.754485   -5.093448    0.986619
 ---------------------------------------------------------------------

 SCF Done:  E(RPBE1PBE) =  -2170.29383589     a.u. after    7 cycles
 SCF Done:  E(RPBE1PBE) =  -2170.29384705     A.U. after    9 cycles

 The electronic state is 1-A.
 Alpha  occ. eigenvalues --  -14.38152 -14.37748 -14.37742 -14.37728 -14.37672
 Alpha  occ. eigenvalues --  -14.37461 -14.37443 -14.37119 -14.36855 -14.36753
 Alpha  occ. eigenvalues --  -14.36690 -14.36490 -10.28144 -10.27753 -10.27740
 Alpha  occ. eigenvalues --  -10.26539 -10.26523 -10.26522 -10.26492 -10.26305
 Alpha  occ. eigenvalues --  -10.26304 -10.24837 -10.24833 -10.24831 -10.24662
 Alpha  occ. eigenvalues --  -10.24633 -10.24603 -10.24068 -10.24028 -10.23993
 Alpha  occ. eigenvalues --  -10.23918 -10.23900 -10.23888 -10.23855 -10.23839
 Alpha  occ. eigenvalues --  -10.23804 -10.23790 -10.23735 -10.23721 -10.23716
 Alpha  occ. eigenvalues --  -10.23713 -10.23519 -10.23504 -10.23370 -10.23289
 Alpha  occ. eigenvalues --  -10.23201 -10.23172 -10.23149 -10.22957 -10.22767
 Alpha  occ. eigenvalues --  -10.22668  -0.99463  -0.99028  -0.98871  -0.97488
 Alpha  occ. eigenvalues --   -0.97401  -0.97344  -0.95009  -0.94824  -0.94607
 Alpha  occ. eigenvalues --   -0.89870  -0.89477  -0.89402  -0.88042  -0.87448
 Alpha  occ. eigenvalues --   -0.87391  -0.81952  -0.81889  -0.81506  -0.80745
 Alpha  occ. eigenvalues --   -0.80644  -0.79943  -0.77361  -0.76001  -0.75962
 Alpha  occ. eigenvalues --   -0.74572  -0.74271  -0.74161  -0.69502  -0.69425
 Alpha  occ. eigenvalues --   -0.69301  -0.66478  -0.66409  -0.66137  -0.64908
 Alpha  occ. eigenvalues --   -0.64708  -0.63861  -0.63173  -0.62949  -0.62180
 Alpha  occ. eigenvalues --   -0.61697  -0.61167  -0.60973  -0.59061  -0.58644
 Alpha  occ. eigenvalues --   -0.58216  -0.56131  -0.55939  -0.55890  -0.54185
 Alpha  occ. eigenvalues --   -0.54044  -0.53808  -0.53346  -0.52938  -0.52581
 Alpha  occ. eigenvalues --   -0.51843  -0.51392  -0.51207  -0.50932  -0.50798
 Alpha  occ. eigenvalues --   -0.50684  -0.50166  -0.50073  -0.49310  -0.48402
 Alpha  occ. eigenvalues --   -0.48247  -0.47767  -0.47065  -0.46526  -0.46357
 Alpha  occ. eigenvalues --   -0.46263  -0.45727  -0.45660  -0.45551  -0.45237
 Alpha  occ. eigenvalues --   -0.44973  -0.44437  -0.44288  -0.43980  -0.43784
 Alpha  occ. eigenvalues --   -0.43693  -0.43255  -0.42014  -0.41344  -0.41327
 Alpha  occ. eigenvalues --   -0.40744  -0.40553  -0.40423  -0.40275  -0.40147
 Alpha  occ. eigenvalues --   -0.40045  -0.39937  -0.39764  -0.39428  -0.39105
 Alpha  occ. eigenvalues --   -0.39074  -0.38945  -0.38639  -0.38607  -0.38314
 Alpha  occ. eigenvalues --   -0.36687  -0.36345  -0.36251  -0.36078  -0.36069
 Alpha  occ. eigenvalues --   -0.35761  -0.35515  -0.35451  -0.35301  -0.34809
 Alpha  occ. eigenvalues --   -0.34725  -0.34630  -0.32109  -0.31942  -0.31507
 Alpha  occ. eigenvalues --   -0.27485  -0.27420  -0.27327  -0.27227  -0.27075
 Alpha  occ. eigenvalues --   -0.27030  -0.27000  -0.26626  -0.26390  -0.26234
 Alpha  occ. eigenvalues --   -0.26041  -0.25639  -0.25536  -0.25348  -0.25123
 Alpha  occ. eigenvalues --   -0.23905  -0.23728  -0.23619
 Alpha virt. eigenvalues --   -0.06064  -0.05608  -0.05488  -0.04309  -0.04222
 Alpha virt. eigenvalues --   -0.03927   0.01598   0.01648   0.02049   0.03368
 Alpha virt. eigenvalues --    0.04191   0.04755   0.05105   0.05271   0.05563

 Mulliken charges:
               1
     1  C    0.238941
     2  C   -0.026722
     3  C   -0.380424
     4  C    0.372044
     5  H    0.157161
     6  C   -0.381059
     7  C    0.393050
     8  H    0.117706
     9  C   -0.367516
    10  C   -0.168264
    11  H    0.124111
    12  C   -0.178790
    13  H    0.087384
    14  H    0.088549
    15  C    0.357179
    16  C   -0.089711
    17  C   -0.366868
    18  C    0.374614
    19  H    0.123237
    20  C   -0.397714
    21  C    0.355087
    22  H    0.116881
    23  C   -0.368219
    24  C   -0.161745
    25  H    0.131502
    26  C   -0.183992
    27  H    0.089785
    28  H    0.087707
    29  C    0.262832
    30  C   -0.042770
    31  C   -0.340886
    32  C    0.352743
    33  H    0.134967
    34  C   -0.388263
    35  C    0.379635
    36  H    0.117265
    37  C   -0.332836
    38  C   -0.165080
    39  H    0.123943
    40  C   -0.179695
    41  H    0.086109
    42  H    0.090451
    43  C   -0.157630
    44  C   -0.091407
    45  N   -0.334591
    46  H    0.096670
    47  N   -0.317725
    48  H    0.093122
    49  C   -0.136591
    50  C   -0.125241
    51  N   -0.351454
    52  H    0.150971
    53  N   -0.312296
    54  H    0.127284
    55  C   -0.148087
    56  C   -0.095693
    57  N   -0.314303
    58  H    0.125129
    59  N   -0.339668
    60  H    0.110378
    61  C   -0.064450
    62  C   -0.086733
    63  N   -0.196832
    64  H    0.124631
    65  N   -0.204217
    66  H    0.125937
    67  C   -0.080077
    68  C   -0.073681
    69  N   -0.197786
    70  H    0.125275
    71  N   -0.198096
    72  H    0.124761
    73  C   -0.067815
    74  C   -0.084011
    75  N   -0.194164
    76  H    0.123860
    77  N   -0.202371
    78  H    0.124580
    79  H    0.219590
    80  H    0.098780
    81  H    0.218749
    82  H    0.218899
    83  H    0.216961
    84  H    0.087334
    85  H    0.197260
    86  H    0.221697
    87  H    0.098296
    88  H    0.090131
    89  H    0.114711
    90  H    0.082715
    91  H    0.081285
    92  H    0.088010
    93  H    0.081563
    94  H    0.126557
    95  H    0.104157
    96  H    0.080278
    97  H    0.081665
    98  H    0.085566
    99  H    0.085789
 Sum of Mulliken charges =   0.00000

 Dipole moment (field-independent basis, Debye):
    X=              0.1695    Y=             -1.9765    Z=              5.3049  Tot=              5.6637
 Quadrupole moment (field-independent basis, Debye-Ang):
   XX=           -295.8296   YY=           -293.2631   ZZ=           -266.2429
   XY=             -3.4903   XZ=             -0.5595   YZ=             -9.9420

 Normal termination of Gaussian 16 at Tue Oct 19 00:47:59 2021.
