 Gaussian 16, Revision C.01,
 Gaussian 16:  ES64L-G16RevC.01  3-Jul-2019

 ----------------------------------------------------------------------
 #P PBE1PBE/Def2TZVP SP SCF=(YQC,MaxCycle=900) int=(Grid=Superfinegrid)
  EmpiricalDispersion=GD3 SCRF=(PCM,Solvent=Dichloromethane)
 ----------------------------------------------------------------------

 -------------------------
 _4_alde1_6_ami1_1_opt_dcm
 -------------------------
 Symbolic Z-matrix:
 Charge =  0 Multiplicity = 1

                         Standard orientation:
 ---------------------------------------------------------------------
 Center     Atomic      Atomic             Coordinates (Angstroms)
 Number     Number       Type             X           Y           Z
 ---------------------------------------------------------------------
      1          6           0       -1.972401   -3.525283   -1.018609
      2          6           0       -2.879673   -3.959786    0.034870
      3          6           0       -0.651736   -3.972515   -1.044592
      4          6           0        0.200422   -3.604394   -2.078816
      5          1           0       -0.315616   -4.624238   -0.252561
      6          6           0       -0.272978   -2.769320   -3.090333
      7          6           0       -1.586610   -2.316021   -3.077724
      8          1           0        0.400416   -2.500146   -3.889828
      9          6           0       -2.430203   -2.693621   -2.033480
     10          6           0       -2.085268   -1.492232   -4.170655
     11          1           0       -3.449483   -2.338738   -2.044170
     12          6           0        1.559775   -4.125665   -2.125050
     13          1           0       -1.320648   -1.071694   -4.842370
     14          1           0       -3.832728   -3.412524    0.103761
     15          1           0        1.921621   -4.605207   -1.202131
     16          6           0       -1.258743   -1.811529    3.533032
     17          6           0       -1.479042   -3.240742    3.357875
     18          6           0       -2.301811   -0.905665    3.342512
     19          6           0       -2.109264    0.452757    3.562968
     20          1           0       -3.263946   -1.288600    3.037786
     21          6           0       -0.854589    0.908821    3.966404
     22          6           0        0.194119    0.017882    4.160317
     23          1           0       -0.725317    1.966140    4.140715
     24          6           0       -0.014010   -1.342548    3.935206
     25          6           0        1.482831    0.500207    4.638217
     26          1           0        0.809561   -2.020945    4.098497
     27          6           0       -3.222041    1.381286    3.417113
     28          1           0        1.632325    1.590454    4.597772
     29          1           0       -0.572966   -3.865724    3.325815
     30          1           0       -4.113554    0.985647    2.905821
     31          6           0       -2.630668    2.400260   -2.162146
     32          6           0       -3.604121    1.605974   -2.899077
     33          6           0       -1.424189    2.770733   -2.755220
     34          6           0       -0.517896    3.575099   -2.074742
     35          1           0       -1.221782    2.432108   -3.759983
     36          6           0       -0.819256    4.001876   -0.781793
     37          6           0       -2.017647    3.640658   -0.177932
     38          1           0       -0.107464    4.632702   -0.271269
     39          6           0       -2.917288    2.833078   -0.873010
     40          6           0       -2.346343    4.140836    1.150076
     41          1           0       -3.846628    2.569081   -0.391697
     42          6           0        0.711834    4.002937   -2.727572
     43          1           0       -1.515140    4.596037    1.711068
     44          1           0       -4.430699    1.186767   -2.304256
     45          1           0        0.973364    3.469885   -3.655070
     46          6           0        3.926333   -0.490331   -1.306156
     47          6           0        4.007688   -1.399520   -2.441240
     48          6           0        4.044681   -0.972156   -0.002777
     49          6           0        4.023513   -0.100373    1.079223
     50          1           0        4.170853   -2.034433    0.141426
     51          6           0        3.869399    1.266960    0.852567
     52          6           0        3.750344    1.761651   -0.440639
     53          1           0        3.863295    1.930075    1.704233
     54          6           0        3.773396    0.874696   -1.516602
     55          6           0        3.649036    3.196952   -0.666875
     56          1           0        3.687679    1.277273   -2.514450
     57          6           0        4.206792   -0.609941    2.431415
     58          1           0        3.435031    3.809185    0.223148
     59          1           0        3.706466   -0.980683   -3.414196
     60          1           0        4.118803   -1.701332    2.549301
     61          6           0       -3.528525   -5.354347    1.792279
     62          6           0       -2.822504   -5.139922    3.152875
     63          7           0       -2.600094   -4.929012    0.789030
     64          1           0       -4.437653   -4.727341    1.783019
     65          6           0       -3.931129   -6.815704    1.506700
     66          7           0       -2.638956   -3.726647    3.289443
     67          1           0       -1.851329   -5.664226    3.113762
     68          6           0       -3.616007   -5.656145    4.370676
     69          1           0       -4.620258   -7.137056    2.293700
     70          6           0       -2.722214   -7.746254    1.480948
     71          6           0       -4.674947   -6.884109    0.172789
     72          1           0       -3.771843   -6.731602    4.242185
     73          6           0       -4.967517   -4.961323    4.507790
     74          6           0       -2.787917   -5.448574    5.639043
     75          1           0       -4.014963   -6.596663   -0.642780
     76          1           0       -5.533585   -6.215432    0.174165
     77          1           0       -5.029155   -7.896372   -0.008744
     78          1           0       -3.024716   -8.740726    1.159689
     79          1           0       -2.269473   -7.830384    2.465362
     80          1           0       -1.981078   -7.362411    0.785634
     81          1           0       -2.631854   -4.387194    5.818701
     82          1           0       -1.815976   -5.930188    5.549209
     83          1           0       -3.302682   -5.873212    6.497871
     84          1           0       -5.446536   -5.258906    5.438112
     85          1           0       -5.629263   -5.222504    3.686209
     86          1           0       -4.825063   -3.884262    4.514499
     87          6           0       -3.777532   -0.525622   -5.457321
     88          6           0       -4.512994    0.691325   -4.846132
     89          7           0       -3.318357   -1.311551   -4.352265
     90          1           0       -2.929053   -0.141916   -6.051029
     91          6           0       -4.656389   -1.411701   -6.363854
     92          7           0       -3.519927    1.448145   -4.145783
     93          1           0       -5.280843    0.306043   -4.152171
     94          6           0       -5.195913    1.608689   -5.881311
     95          1           0       -5.021393   -0.793893   -7.189984
     96          6           0       -5.844229   -2.000246   -5.608342
     97          6           0       -3.802773   -2.533344   -6.955988
     98          1           0       -5.934141    1.013081   -6.426773
     99          6           0       -4.193997    2.201055   -6.867982
    100          6           0       -5.939592    2.728169   -5.152542
    101          1           0       -4.390543   -3.124394   -7.654605
    102          1           0       -3.440433   -3.188780   -6.167073
    103          1           0       -2.945002   -2.126400   -7.488164
    104          1           0       -6.371720   -2.711787   -6.240127
    105          1           0       -6.545195   -1.224589   -5.311564
    106          1           0       -5.492087   -2.514056   -4.718265
    107          1           0       -5.236568    3.362272   -4.616871
    108          1           0       -6.649729    2.318369   -4.436706
    109          1           0       -6.486448    3.341922   -5.864638
    110          1           0       -4.686593    2.932946   -7.504486
    111          1           0       -3.766043    1.430842   -7.504160
    112          1           0       -3.392115    2.691648   -6.323404
    113          6           0        3.575581   -4.618318   -3.196098
    114          6           0        4.537535   -3.434289   -3.457364
    115          7           0        2.255850   -4.063921   -3.172871
    116          1           0        3.839357   -5.055778   -2.216880
    117          6           0        3.627295   -5.728964   -4.265286
    118          7           0        4.436049   -2.577153   -2.315128
    119          1           0        4.195001   -2.918706   -4.372014
    120          6           0        6.013802   -3.841643   -3.641078
    121          1           0        4.646260   -6.127110   -4.290973
    122          6           0        3.252440   -5.206952   -5.649200
    123          6           0        2.687780   -6.865062   -3.860519
    124          1           0        6.074574   -4.515798   -4.501002
    125          6           0        6.570117   -4.544394   -2.406278
    126          6           0        6.846017   -2.598727   -3.957490
    127          1           0        2.937534   -7.238655   -2.869289
    128          1           0        2.767004   -7.688315   -4.566940
    129          1           0        1.657288   -6.516971   -3.848563
    130          1           0        3.997081   -4.508078   -6.020979
    131          1           0        2.291380   -4.702706   -5.600953
    132          1           0        3.181240   -6.034100   -6.352366
    133          1           0        7.877028   -2.878512   -4.161497
    134          1           0        6.833904   -1.911617   -3.114317
    135          1           0        6.451991   -2.081538   -4.830246
    136          1           0        6.401765   -3.927105   -1.528331
    137          1           0        7.639419   -4.708741   -2.521474
    138          1           0        6.092688   -5.508707   -2.253913
    139          6           0       -4.298063    3.425876    3.757138
    140          6           0       -3.817897    4.620997    2.898783
    141          7           0       -3.173618    2.549115    3.886034
    142          1           0       -5.124823    2.933722    3.215177
    143          6           0       -4.789690    3.811197    5.167410
    144          7           0       -3.520115    4.088610    1.603630
    145          1           0       -2.911745    5.034611    3.375691
    146          6           0       -4.856066    5.751178    2.742837
    147          1           0       -5.632061    4.500721    5.055764
    148          6           0       -3.693297    4.480076    5.991326
    149          6           0       -5.297063    2.560502    5.885617
    150          1           0       -5.094162    6.132273    3.740607
    151          6           0       -6.134736    5.262734    2.068777
    152          6           0       -4.241214    6.895075    1.936145
    153          1           0       -4.481769    1.857324    6.040865
    154          1           0       -6.072124    2.067304    5.302125
    155          1           0       -5.714238    2.826354    6.854299
    156          1           0       -2.809366    3.848664    6.003354
    157          1           0       -4.034021    4.628496    7.013721
    158          1           0       -3.426479    5.449161    5.578077
    159          1           0       -4.935525    7.730409    1.878960
    160          1           0       -4.013240    6.564380    0.925263
    161          1           0       -3.321365    7.245105    2.400786
    162          1           0       -6.793497    6.104406    1.865772
    163          1           0       -6.668533    4.558361    2.701276
    164          1           0       -5.888724    4.774389    1.130009
    165          6           0        3.592805    0.225464    5.600355
    166          6           0        4.697837   -0.382778    4.703225
    167          7           0        2.350072   -0.284571    5.105204
    168          1           0        3.641176    1.323721    5.494844
    169          6           0        3.715662   -0.134885    7.095063
    170          7           0        4.488711    0.153708    3.392435
    171          1           0        4.568863   -1.479582    4.708272
    172          6           0        6.136127   -0.050476    5.150583
    173          1           0        4.679596    0.237581    7.455086
    174          6           0        3.635729   -1.640829    7.327729
    175          6           0        2.613159    0.576841    7.879315
    176          1           0        6.275331   -0.443254    6.162367
    177          6           0        6.401636    1.452006    5.149488
    178          6           0        7.129007   -0.759766    4.229482
    179          1           0        2.652238    1.651611    7.712466
    180          1           0        2.729647    0.391006    8.944684
    181          1           0        1.635275    0.214783    7.569498
    182          1           0        4.498149   -2.150278    6.906260
    183          1           0        2.735083   -2.034133    6.864654
    184          1           0        3.603988   -1.851513    8.394583
    185          1           0        8.146949   -0.594467    4.575243
    186          1           0        7.041680   -0.378102    3.214602
    187          1           0        6.942616   -1.831917    4.212469
    188          1           0        6.148417    1.866541    4.177618
    189          1           0        7.453294    1.644385    5.351132
    190          1           0        5.811981    1.956343    5.910369
    191          6           0        2.589024    5.372209   -2.960770
    192          6           0        3.765306    5.119564   -1.987137
    193          7           0        1.404692    4.952231   -2.274851
    194          1           0        2.762674    4.760178   -3.863547
    195          6           0        2.419102    6.845282   -3.385777
    196          7           0        3.836579    3.701272   -1.805523
    197          1           0        3.530107    5.629886   -1.036459
    198          6           0        5.131934    5.622916   -2.495219
    199          1           0        3.339350    7.161625   -3.886305
    200          6           0        2.152868    7.756839   -2.191548
    201          6           0        1.274271    6.952286   -4.393499
    202          1           0        5.057389    6.703139   -2.653819
    203          6           0        5.540293    4.946422   -3.800479
    204          6           0        6.192683    5.376709   -1.422001
    205          1           0        0.332886    6.671008   -3.926815
    206          1           0        1.446735    6.297368   -5.245398
    207          1           0        1.188554    7.973386   -4.758110
    208          1           0        1.310313    7.375070   -1.621739
    209          1           0        1.918738    8.762112   -2.535375
    210          1           0        3.020243    7.814237   -1.539307
    211          1           0        6.317577    4.309539   -1.252339
    212          1           0        5.907326    5.844818   -0.481883
    213          1           0        7.147994    5.791696   -1.735319
    214          1           0        4.882277    5.234883   -4.615828
    215          1           0        5.498225    3.867394   -3.680877
    216          1           0        6.556031    5.231826   -4.065944
 ---------------------------------------------------------------------

 SCF Done:  E(RPBE1PBE) =  -3927.03636593     a.u. after    6 cycles
 SCF Done:  E(RPBE1PBE) =  -3927.03640438     A.U. after    7 cycles

 The electronic state is 1-A.
 Alpha  occ. eigenvalues --  -14.37591 -14.37591 -14.37590 -14.37589 -14.37588
 Alpha  occ. eigenvalues --  -14.37588 -14.37588 -14.37587 -14.37586 -14.37585
 Alpha  occ. eigenvalues --  -14.37584 -14.37583 -10.26561 -10.26561 -10.26561
 Alpha  occ. eigenvalues --  -10.26560 -10.26559 -10.26558 -10.26558 -10.26557
 Alpha  occ. eigenvalues --  -10.26556 -10.26556 -10.26556 -10.26554 -10.24919
 Alpha  occ. eigenvalues --  -10.24919 -10.24915 -10.24915 -10.24915 -10.24915
 Alpha  occ. eigenvalues --  -10.24897 -10.24896 -10.24893 -10.24893 -10.24893
 Alpha  occ. eigenvalues --  -10.24893 -10.24339 -10.24339 -10.24337 -10.24335
 Alpha  occ. eigenvalues --  -10.24335 -10.24335 -10.24335 -10.24334 -10.24334
 Alpha  occ. eigenvalues --  -10.24334 -10.24331 -10.24330 -10.23839 -10.23838
 Alpha  occ. eigenvalues --  -10.23838 -10.23838 -10.23836 -10.23836 -10.23833
 Alpha  occ. eigenvalues --  -10.23832 -10.23831 -10.23831 -10.23829 -10.23826
 Alpha  occ. eigenvalues --  -10.22511 -10.22511 -10.22511 -10.22509 -10.22509
 Alpha  occ. eigenvalues --  -10.22508 -10.22508 -10.22508 -10.22508 -10.22507
 Alpha  occ. eigenvalues --  -10.22507 -10.22507 -10.20184 -10.20183 -10.20183
 Alpha  occ. eigenvalues --  -10.20183 -10.20182 -10.20181 -10.20181 -10.20181
 Alpha  occ. eigenvalues --  -10.20181 -10.20180 -10.20180 -10.20179 -10.19949
 Alpha  occ. eigenvalues --  -10.19948 -10.19948 -10.19948 -10.19947 -10.19946
 Alpha  occ. eigenvalues --  -10.19945 -10.19945 -10.19945 -10.19944 -10.19942
 Alpha  occ. eigenvalues --  -10.19941  -0.97901  -0.97781  -0.97781  -0.97780
 Alpha  occ. eigenvalues --   -0.97711  -0.97710  -0.95430  -0.95428  -0.95427
 Alpha  occ. eigenvalues --   -0.95089  -0.95087  -0.95086  -0.90538  -0.89971
 Alpha  occ. eigenvalues --   -0.89970  -0.89967  -0.84926  -0.84925  -0.84519
 Alpha  occ. eigenvalues --   -0.84519  -0.84518  -0.83566  -0.82305  -0.82304
 Alpha  occ. eigenvalues --   -0.82303  -0.81679  -0.81677  -0.81676  -0.80054
 Alpha  occ. eigenvalues --   -0.80053  -0.79864  -0.79863  -0.79863  -0.79492
 Alpha  occ. eigenvalues --   -0.79491  -0.79490  -0.75213  -0.74529  -0.74529
 Alpha  occ. eigenvalues --   -0.74528  -0.74188  -0.74187  -0.70390  -0.70389
 Alpha  occ. eigenvalues --   -0.70387  -0.70385  -0.70383  -0.70383  -0.70095
 Alpha  occ. eigenvalues --   -0.70094  -0.70093  -0.70092  -0.70090  -0.70090
 Alpha  occ. eigenvalues --   -0.69264  -0.69263  -0.69262  -0.69154  -0.69153
 Alpha  occ. eigenvalues --   -0.69152  -0.66596  -0.66595  -0.66047  -0.66046
 Alpha  occ. eigenvalues --   -0.66046  -0.64295  -0.63924  -0.63922  -0.63921
 Alpha  occ. eigenvalues --   -0.62544  -0.62543  -0.62541  -0.60055  -0.60055
 Alpha  occ. eigenvalues --   -0.59762  -0.59762  -0.59762  -0.58776  -0.58020
 Alpha  occ. eigenvalues --   -0.58019  -0.58017  -0.56756  -0.56755  -0.56754
 Alpha  occ. eigenvalues --   -0.55705  -0.55704  -0.55704  -0.55106  -0.55105
 Alpha  occ. eigenvalues --   -0.54903  -0.54902  -0.54901  -0.53767  -0.53435
 Alpha  occ. eigenvalues --   -0.53434  -0.53433  -0.52027  -0.52025  -0.52024
 Alpha  occ. eigenvalues --   -0.51564  -0.50911  -0.50910  -0.50909  -0.50264
 Alpha  occ. eigenvalues --   -0.50264  -0.50263  -0.50024  -0.50023  -0.49801
 Alpha  occ. eigenvalues --   -0.49639  -0.49638  -0.49637  -0.48650  -0.48650
 Alpha  occ. eigenvalues --   -0.48262  -0.48149  -0.48149  -0.48148  -0.46906
 Alpha  occ. eigenvalues --   -0.46906  -0.46905  -0.46769  -0.46768  -0.46318
 Alpha  occ. eigenvalues --   -0.46317  -0.46316  -0.45619  -0.44963  -0.44960
 Alpha  occ. eigenvalues --   -0.44959  -0.44819  -0.44818  -0.44817  -0.44720
 Alpha  occ. eigenvalues --   -0.44718  -0.44718  -0.43961  -0.43961  -0.43959
 Alpha  occ. eigenvalues --   -0.43417  -0.43416  -0.43415  -0.43218  -0.43035
 Alpha  occ. eigenvalues --   -0.43034  -0.42955  -0.42955  -0.42954  -0.42618
 Alpha  occ. eigenvalues --   -0.42486  -0.42486  -0.42485  -0.42439  -0.42438
 Alpha  occ. eigenvalues --   -0.41786  -0.41784  -0.41782  -0.41734  -0.40401
 Alpha  occ. eigenvalues --   -0.40400  -0.40399  -0.40333  -0.40332  -0.40331
 Alpha  occ. eigenvalues --   -0.39964  -0.39963  -0.39739  -0.39738  -0.39737
 Alpha  occ. eigenvalues --   -0.39462  -0.39095  -0.39094  -0.39094  -0.39036
 Alpha  occ. eigenvalues --   -0.39035  -0.39034  -0.38745  -0.38745  -0.38507
 Alpha  occ. eigenvalues --   -0.38507  -0.38506  -0.38104  -0.38104  -0.38103
 Alpha  occ. eigenvalues --   -0.38100  -0.38099  -0.37753  -0.37752  -0.37751
 Alpha  occ. eigenvalues --   -0.37678  -0.36680  -0.36577  -0.36576  -0.36576
 Alpha  occ. eigenvalues --   -0.36367  -0.36366  -0.36095  -0.36093  -0.36092
 Alpha  occ. eigenvalues --   -0.34873  -0.34872  -0.34871  -0.34867  -0.34843
 Alpha  occ. eigenvalues --   -0.34842  -0.34724  -0.34723  -0.34722  -0.34689
 Alpha  occ. eigenvalues --   -0.34687  -0.34687  -0.34663  -0.34661  -0.34660
 Alpha  occ. eigenvalues --   -0.34186  -0.34185  -0.34184  -0.34182  -0.34181
 Alpha  occ. eigenvalues --   -0.34180  -0.33831  -0.33830  -0.32957  -0.32876
 Alpha  occ. eigenvalues --   -0.32876  -0.32875  -0.32513  -0.32512  -0.32511
 Alpha  occ. eigenvalues --   -0.32352  -0.32351  -0.32351  -0.31892  -0.31892
 Alpha  occ. eigenvalues --   -0.30165  -0.30163  -0.30162  -0.29209  -0.27383
 Alpha  occ. eigenvalues --   -0.27264  -0.27263  -0.27260  -0.27123  -0.27121
 Alpha  occ. eigenvalues --   -0.26788  -0.26787  -0.26786  -0.26621  -0.26619
 Alpha  occ. eigenvalues --   -0.26619  -0.25972  -0.25970  -0.25969  -0.25663
 Alpha  occ. eigenvalues --   -0.25662  -0.25661  -0.25546  -0.25544
 Alpha virt. eigenvalues --   -0.06164  -0.06163  -0.06162  -0.05717  -0.05715
 Alpha virt. eigenvalues --   -0.05715  -0.05636  -0.05635  -0.01971  -0.01971
 Alpha virt. eigenvalues --   -0.01969  -0.01426   0.03840   0.03842   0.03844

 Mulliken charges:
               1
     1  C    0.366783
     2  C   -0.186668
     3  C   -0.347258
     4  C    0.366757
     5  H    0.129321
     6  C   -0.347837
     7  C    0.366549
     8  H    0.129143
     9  C   -0.347848
    10  C   -0.186619
    11  H    0.129367
    12  C   -0.186897
    13  H    0.090459
    14  H    0.090420
    15  H    0.090379
    16  C    0.367055
    17  C   -0.186313
    18  C   -0.347687
    19  C    0.366453
    20  H    0.129227
    21  C   -0.347274
    22  C    0.366457
    23  H    0.129171
    24  C   -0.347721
    25  C   -0.186476
    26  H    0.129185
    27  C   -0.186882
    28  H    0.090403
    29  H    0.090386
    30  H    0.090543
    31  C    0.366386
    32  C   -0.186519
    33  C   -0.347601
    34  C    0.366104
    35  H    0.129600
    36  C   -0.347721
    37  C    0.366704
    38  H    0.129527
    39  C   -0.347462
    40  C   -0.186311
    41  H    0.129288
    42  C   -0.186401
    43  H    0.090530
    44  H    0.090393
    45  H    0.090261
    46  C    0.366536
    47  C   -0.186437
    48  C   -0.347884
    49  C    0.366171
    50  H    0.129510
    51  C   -0.347476
    52  C    0.366668
    53  H    0.129275
    54  C   -0.347776
    55  C   -0.186488
    56  H    0.129390
    57  C   -0.186121
    58  H    0.090337
    59  H    0.090498
    60  H    0.090463
    61  C    0.094028
    62  C    0.093851
    63  N   -0.250956
    64  H    0.088793
    65  C   -0.019540
    66  N   -0.251241
    67  H    0.088791
    68  C   -0.019548
    69  H    0.092578
    70  C   -0.424917
    71  C   -0.398028
    72  H    0.092701
    73  C   -0.424799
    74  C   -0.398054
    75  H    0.128172
    76  H    0.120211
    77  H    0.130378
    78  H    0.125828
    79  H    0.128704
    80  H    0.132695
    81  H    0.128096
    82  H    0.120251
    83  H    0.130398
    84  H    0.125887
    85  H    0.128662
    86  H    0.132485
    87  C    0.094250
    88  C    0.093417
    89  N   -0.250713
    90  H    0.088741
    91  C   -0.019584
    92  N   -0.251029
    93  H    0.088759
    94  C   -0.019403
    95  H    0.092674
    96  C   -0.424910
    97  C   -0.397970
    98  H    0.092679
    99  C   -0.425076
   100  C   -0.397869
   101  H    0.130376
   102  H    0.128083
   103  H    0.120269
   104  H    0.125878
   105  H    0.128724
   106  H    0.132479
   107  H    0.128085
   108  H    0.120223
   109  H    0.130391
   110  H    0.125911
   111  H    0.128797
   112  H    0.132509
   113  C    0.093997
   114  C    0.094416
   115  N   -0.250861
   116  H    0.088771
   117  C   -0.019479
   118  N   -0.251159
   119  H    0.088827
   120  C   -0.019674
   121  H    0.092625
   122  C   -0.424954
   123  C   -0.397933
   124  H    0.092688
   125  C   -0.424891
   126  C   -0.397972
   127  H    0.120233
   128  H    0.130372
   129  H    0.128098
   130  H    0.128759
   131  H    0.132474
   132  H    0.125865
   133  H    0.130376
   134  H    0.128063
   135  H    0.120272
   136  H    0.132478
   137  H    0.125891
   138  H    0.128703
   139  C    0.093470
   140  C    0.094029
   141  N   -0.250913
   142  H    0.088883
   143  C   -0.019292
   144  N   -0.251232
   145  H    0.088780
   146  C   -0.019641
   147  H    0.092707
   148  C   -0.424993
   149  C   -0.397939
   150  H    0.092714
   151  C   -0.425069
   152  C   -0.397856
   153  H    0.128073
   154  H    0.120268
   155  H    0.130433
   156  H    0.132404
   157  H    0.125923
   158  H    0.128775
   159  H    0.130390
   160  H    0.128074
   161  H    0.120264
   162  H    0.125887
   163  H    0.128788
   164  H    0.132586
   165  C    0.093758
   166  C    0.094157
   167  N   -0.250859
   168  H    0.088765
   169  C   -0.019666
   170  N   -0.251228
   171  H    0.088653
   172  C   -0.019519
   173  H    0.092681
   174  C   -0.424937
   175  C   -0.397869
   176  H    0.092633
   177  C   -0.424894
   178  C   -0.397878
   179  H    0.120206
   180  H    0.130374
   181  H    0.128124
   182  H    0.128796
   183  H    0.132459
   184  H    0.125900
   185  H    0.130369
   186  H    0.128028
   187  H    0.120271
   188  H    0.132491
   189  H    0.125885
   190  H    0.128753
   191  C    0.094365
   192  C    0.094064
   193  N   -0.250813
   194  H    0.088506
   195  C   -0.019586
   196  N   -0.251055
   197  H    0.088827
   198  C   -0.019847
   199  H    0.092617
   200  C   -0.424965
   201  C   -0.397993
   202  H    0.092668
   203  C   -0.424848
   204  C   -0.397774
   205  H    0.128123
   206  H    0.120230
   207  H    0.130382
   208  H    0.132790
   209  H    0.125852
   210  H    0.128611
   211  H    0.128038
   212  H    0.120237
   213  H    0.130390
   214  H    0.128830
   215  H    0.132372
   216  H    0.125886
 Sum of Mulliken charges =  -0.00000

 Dipole moment (field-independent basis, Debye):
    X=             -0.0064    Y=             -0.0023    Z=              0.0048  Tot=              0.0083
 Quadrupole moment (field-independent basis, Debye-Ang):
   XX=           -571.3198   YY=           -571.2097   ZZ=           -571.3030
   XY=             -0.0303   XZ=              0.0147   YZ=              0.0128

 Normal termination of Gaussian 16 at Mon Oct 18 10:25:48 2021.
