 Gaussian 16, Revision C.01,
 Gaussian 16:  ES64L-G16RevC.01  3-Jul-2019

 ----------------------------------------------------------------------
 #P PBE1PBE/Def2TZVP SP SCF=(YQC,MaxCycle=900) int=(Grid=Superfinegrid)
  EmpiricalDispersion=GD3
 ----------------------------------------------------------------------

 -------------------------
 _4_alde1_6_ami3_1_opt_gas
 -------------------------
 Symbolic Z-matrix:
 Charge =  0 Multiplicity = 1

                         Standard orientation:
 ---------------------------------------------------------------------
 Center     Atomic      Atomic             Coordinates (Angstroms)
 Number     Number       Type             X           Y           Z
 ---------------------------------------------------------------------
      1          6           0        3.988984   -1.059502   -1.229578
      2          6           0        3.950026   -2.149064   -2.194651
      3          6           0        4.086041   -1.334687    0.129195
      4          6           0        4.163232   -0.299252    1.060624
      5          1           0        4.118050   -2.350875    0.491275
      6          6           0        4.132124    1.018076    0.619009
      7          6           0        4.034990    1.309738   -0.741654
      8          1           0        4.196459    1.840891    1.314483
      9          6           0        3.958875    0.267664   -1.657982
     10          6           0        4.043557    2.690300   -1.204343
     11          1           0        3.889456    0.460955   -2.717569
     12          6           0        4.305720   -0.590885    2.480096
     13          1           0        3.811344    2.839057   -2.270402
     14          1           0        3.824386   -3.158141   -1.772301
     15          1           0        4.206642    0.271099    3.157977
     16          6           0       -0.380855   -2.000918   -3.788168
     17          6           0        0.875808   -1.942804   -4.521252
     18          6           0       -1.333078   -1.002943   -3.958009
     19          6           0       -2.556982   -1.066904   -3.291924
     20          1           0       -1.153337   -0.167445   -4.617132
     21          6           0       -2.815652   -2.136825   -2.443536
     22          6           0       -1.869609   -3.145964   -2.263059
     23          1           0       -3.755366   -2.218005   -1.919081
     24          6           0       -0.654693   -3.068864   -2.933521
     25          6           0       -2.159985   -4.285881   -1.404910
     26          1           0        0.094791   -3.837069   -2.819493
     27          6           0       -3.568065   -0.040836   -3.503816
     28          1           0       -1.311146   -4.954697   -1.193867
     29          1           0        1.077066   -0.998550   -5.050706
     30          1           0       -4.437750   -0.079377   -2.829661
     31          6           0       -0.059330    4.297301    0.174807
     32          6           0        1.274438    4.812500    0.449707
     33          6           0       -0.925533    4.012105    1.223555
     34          6           0       -2.219420    3.555290    0.973089
     35          1           0       -0.622611    4.150740    2.250086
     36          6           0       -2.636262    3.376227   -0.340495
     37          6           0       -1.778069    3.658205   -1.403461
     38          1           0       -3.633140    3.030291   -0.566933
     39          6           0       -0.491689    4.112850   -1.138532
     40          6           0       -2.231343    3.507958   -2.779073
     41          1           0        0.193326    4.345642   -1.939470
     42          6           0       -3.137473    3.296518    2.073293
     43          1           0       -1.453048    3.600588   -3.552298
     44          1           0        1.590173    4.783416    1.504177
     45          1           0       -4.079675    2.795103    1.802746
     46          6           0        0.172916   -2.295486    3.632840
     47          6           0        1.494106   -2.884704    3.798451
     48          6           0       -0.823537   -2.996632    2.964410
     49          6           0       -2.104482   -2.460313    2.832925
     50          1           0       -0.633382   -3.973306    2.546533
     51          6           0       -2.376818   -1.207577    3.369224
     52          6           0       -1.386725   -0.491910    4.042688
     53          1           0       -3.359517   -0.768537    3.289424
     54          6           0       -0.115116   -1.038978    4.165991
     55          6           0       -1.686564    0.802538    4.638321
     56          1           0        0.670112   -0.512817    4.686857
     57          6           0       -3.156853   -3.215360    2.167630
     58          1           0       -0.820129    1.368750    5.014055
     59          1           0        1.684216   -3.802258    3.220146
     60          1           0       -4.089142   -2.664260    1.969176
     61          6           0        4.059076   -3.044484   -4.346996
     62          6           0        2.879172   -2.835290   -5.317656
     63          7           0        4.081829   -1.947181   -3.431911
     64          7           0        1.665411   -2.924108   -4.568770
     65          6           0        2.882095   -3.934230   -6.383706
     66          1           0        2.998179   -1.845779   -5.795316
     67          6           0        4.199369   -3.949995   -7.149490
     68          1           0        2.045890   -3.764952   -7.065485
     69          1           0        2.721820   -4.893733   -5.888967
     70          6           0        5.367419   -4.153938   -6.190646
     71          1           0        4.324627   -3.001644   -7.677214
     72          1           0        4.181081   -4.748731   -7.893664
     73          6           0        5.376456   -3.062829   -5.127079
     74          1           0        6.310854   -4.137793   -6.740049
     75          1           0        5.275344   -5.130351   -5.709368
     76          1           0        5.514891   -2.084840   -5.591103
     77          1           0        6.198327   -3.220299   -4.425369
     78          1           0        3.912429   -4.010366   -3.830451
     79          6           0        4.346715    4.988082   -0.931741
     80          6           0        3.300378    5.804651   -0.146431
     81          7           0        4.328285    3.648045   -0.435940
     82          7           0        2.005531    5.288154   -0.460321
     83          6           0        3.361539    7.273987   -0.572528
     84          1           0        3.531305    5.714011    0.930457
     85          6           0        4.754792    7.850012   -0.351923
     86          1           0        2.620484    7.836843   -0.000843
     87          1           0        3.089524    7.337788   -1.627548
     88          6           0        5.791079    7.041898   -1.125562
     89          1           0        4.995138    7.822786    0.713447
     90          1           0        4.775426    8.893003   -0.674458
     91          6           0        5.741605    5.577835   -0.706457
     92          1           0        6.790659    7.441603   -0.943371
     93          1           0        5.587361    7.120963   -2.195874
     94          1           0        5.989470    5.479759    0.351869
     95          1           0        6.466816    4.992712   -1.276071
     96          1           0        4.085397    5.035396   -2.004530
     97          6           0        4.709603   -1.997162    4.298265
     98          6           0        3.629676   -3.009731    4.730104
     99          7           0        4.556004   -1.753154    2.898677
    100          7           0        2.351510   -2.389164    4.578272
    101          6           0        3.825231   -3.381900    6.202304
    102          1           0        3.729554   -3.909918    4.096763
    103          6           0        5.215301   -3.958593    6.440781
    104          1           0        3.057760   -4.104749    6.487093
    105          1           0        3.680455   -2.484368    6.806110
    106          6           0        6.284431   -2.959483    6.011656
    107          1           0        5.329630   -4.881155    5.866833
    108          1           0        5.333794   -4.203818    7.498118
    109          6           0        6.101525   -2.584819    4.546177
    110          1           0        7.278153   -3.387087    6.159263
    111          1           0        6.209891   -2.061201    6.628850
    112          1           0        6.220191   -3.466388    3.913730
    113          1           0        6.851904   -1.851423    4.242897
    114          1           0        4.576387   -1.076648    4.895180
    115          6           0       -4.485595    1.796241   -4.612677
    116          6           0       -3.854864    3.190969   -4.425453
    117          7           0       -3.462966    0.816779   -4.421565
    118          7           0       -3.444115    3.313520   -3.062230
    119          6           0       -4.892842    4.275310   -4.727126
    120          1           0       -3.002548    3.279466   -5.123282
    121          6           0       -5.441457    4.129283   -6.141142
    122          1           0       -4.426322    5.254286   -4.597642
    123          1           0       -5.700750    4.190302   -3.998280
    124          6           0       -6.063018    2.749462   -6.328742
    125          1           0       -4.630969    4.262908   -6.861303
    126          1           0       -6.187242    4.904936   -6.326701
    127          6           0       -5.036968    1.662012   -6.034838
    128          1           0       -6.430750    2.639553   -7.350880
    129          1           0       -6.913494    2.639670   -5.651816
    130          1           0       -4.202751    1.731281   -6.735057
    131          1           0       -5.486381    0.672846   -6.145649
    132          1           0       -5.304378    1.687552   -3.878480
    133          6           0       -3.570121   -5.644760   -0.135248
    134          6           0       -4.077134   -5.145640    1.233051
    135          7           0       -3.318382   -4.504352   -0.958564
    136          7           0       -3.014561   -4.431137    1.867004
    137          6           0       -4.461507   -6.339278    2.111716
    138          1           0       -4.960432   -4.504532    1.059595
    139          6           0       -5.524052   -7.196775    1.435439
    140          1           0       -4.825445   -5.966338    3.071525
    141          1           0       -3.563672   -6.930303    2.300666
    142          6           0       -5.025111   -7.688757    0.081023
    143          1           0       -6.432504   -6.606572    1.294802
    144          1           0       -5.771043   -8.046330    2.075336
    145          6           0       -4.643472   -6.508300   -0.803531
    146          1           0       -5.799302   -8.280493   -0.411533
    147          1           0       -4.153256   -8.330669    0.227005
    148          1           0       -5.517077   -5.883085   -0.996064
    149          1           0       -4.263704   -6.858881   -1.765589
    150          1           0       -2.655958   -6.242270    0.033762
    151          6           0       -3.811535    3.400146    4.305179
    152          6           0       -3.125348    2.496754    5.349847
    153          7           0       -2.877251    3.652663    3.254033
    154          7           0       -2.867902    1.229853    4.741032
    155          6           0       -4.055825    2.288261    6.547784
    156          1           0       -2.194537    2.994802    5.676814
    157          6           0       -4.445593    3.620506    7.176080
    158          1           0       -3.550264    1.654254    7.279341
    159          1           0       -4.945865    1.758637    6.203759
    160          6           0       -5.121797    4.516047    6.143616
    161          1           0       -3.550996    4.118308    7.557602
    162          1           0       -5.117794    3.445578    8.018515
    163          6           0       -4.202487    4.733626    4.948068
    164          1           0       -5.375249    5.479240    6.590951
    165          1           0       -6.049496    4.046532    5.808311
    166          1           0       -3.290501    5.244717    5.261459
    167          1           0       -4.693810    5.355466    4.196629
    168          1           0       -4.714315    2.878292    3.939204
 ---------------------------------------------------------------------

 SCF Done:  E(RPBE1PBE) =  -3448.50219276     a.u. after    7 cycles
 SCF Done:  E(RPBE1PBE) =  -3448.50220350     A.U. after    7 cycles

 The electronic state is 1-A.
 Alpha  occ. eigenvalues --  -14.37178 -14.37178 -14.37177 -14.37177 -14.37177
 Alpha  occ. eigenvalues --  -14.37177 -14.37176 -14.37176 -14.37175 -14.37174
 Alpha  occ. eigenvalues --  -14.37173 -14.37173 -10.26107 -10.26107 -10.26107
 Alpha  occ. eigenvalues --  -10.26106 -10.26106 -10.26106 -10.26103 -10.26102
 Alpha  occ. eigenvalues --  -10.26102 -10.26102 -10.26102 -10.26101 -10.24803
 Alpha  occ. eigenvalues --  -10.24802 -10.24802 -10.24799 -10.24798 -10.24798
 Alpha  occ. eigenvalues --  -10.24780 -10.24780 -10.24779 -10.24776 -10.24776
 Alpha  occ. eigenvalues --  -10.24775 -10.23646 -10.23646 -10.23646 -10.23643
 Alpha  occ. eigenvalues --  -10.23642 -10.23642 -10.23642 -10.23641 -10.23640
 Alpha  occ. eigenvalues --  -10.23640 -10.23639 -10.23638 -10.23162 -10.23162
 Alpha  occ. eigenvalues --  -10.23162 -10.23158 -10.23157 -10.23157 -10.23157
 Alpha  occ. eigenvalues --  -10.23155 -10.23151 -10.23151 -10.23150 -10.23149
 Alpha  occ. eigenvalues --  -10.21435 -10.21435 -10.21435 -10.21431 -10.21431
 Alpha  occ. eigenvalues --  -10.21431 -10.21411 -10.21411 -10.21411 -10.21408
 Alpha  occ. eigenvalues --  -10.21408 -10.21408 -10.21362 -10.21362 -10.21362
 Alpha  occ. eigenvalues --  -10.21360 -10.21360 -10.21360 -10.21359 -10.21358
 Alpha  occ. eigenvalues --  -10.21358 -10.21357 -10.21356 -10.21356  -0.97267
 Alpha  occ. eigenvalues --   -0.97153  -0.97152  -0.97152  -0.97086  -0.97086
 Alpha  occ. eigenvalues --   -0.94909  -0.94908  -0.94905  -0.94591  -0.94588
 Alpha  occ. eigenvalues --   -0.94587  -0.89883  -0.89287  -0.89287  -0.89286
 Alpha  occ. eigenvalues --   -0.85670  -0.85670  -0.85345  -0.85345  -0.85345
 Alpha  occ. eigenvalues --   -0.84805  -0.80507  -0.80507  -0.80437  -0.80436
 Alpha  occ. eigenvalues --   -0.80436  -0.80256  -0.80255  -0.80255  -0.76670
 Alpha  occ. eigenvalues --   -0.76670  -0.76668  -0.76582  -0.75968  -0.75966
 Alpha  occ. eigenvalues --   -0.75966  -0.75312  -0.75311  -0.75311  -0.75018
 Alpha  occ. eigenvalues --   -0.75018  -0.68131  -0.68127  -0.68127  -0.67870
 Alpha  occ. eigenvalues --   -0.67870  -0.67867  -0.66627  -0.66626  -0.66069
 Alpha  occ. eigenvalues --   -0.66068  -0.66067  -0.65243  -0.62713  -0.62713
 Alpha  occ. eigenvalues --   -0.62623  -0.62623  -0.62622  -0.62106  -0.62104
 Alpha  occ. eigenvalues --   -0.62103  -0.61183  -0.60353  -0.60353  -0.60351
 Alpha  occ. eigenvalues --   -0.58039  -0.58039  -0.58037  -0.57856  -0.57854
 Alpha  occ. eigenvalues --   -0.57853  -0.55931  -0.55927  -0.55927  -0.55661
 Alpha  occ. eigenvalues --   -0.55661  -0.55524  -0.55523  -0.55522  -0.53798
 Alpha  occ. eigenvalues --   -0.52905  -0.52905  -0.52904  -0.52304  -0.52304
 Alpha  occ. eigenvalues --   -0.52301  -0.51993  -0.50800  -0.50799  -0.50385
 Alpha  occ. eigenvalues --   -0.50384  -0.50382  -0.49554  -0.49548  -0.49547
 Alpha  occ. eigenvalues --   -0.48680  -0.48679  -0.48678  -0.48431  -0.47231
 Alpha  occ. eigenvalues --   -0.47231  -0.47230  -0.47157  -0.47157  -0.46997
 Alpha  occ. eigenvalues --   -0.46921  -0.46919  -0.46919  -0.45943  -0.45943
 Alpha  occ. eigenvalues --   -0.45941  -0.45255  -0.44704  -0.44704  -0.44585
 Alpha  occ. eigenvalues --   -0.44584  -0.44581  -0.44084  -0.44083  -0.44082
 Alpha  occ. eigenvalues --   -0.43774  -0.43773  -0.43523  -0.43520  -0.43520
 Alpha  occ. eigenvalues --   -0.43175  -0.43175  -0.43173  -0.43160  -0.41919
 Alpha  occ. eigenvalues --   -0.41919  -0.41918  -0.41824  -0.41824  -0.41723
 Alpha  occ. eigenvalues --   -0.41029  -0.41027  -0.41027  -0.40243  -0.39722
 Alpha  occ. eigenvalues --   -0.39720  -0.39720  -0.39587  -0.39587  -0.39585
 Alpha  occ. eigenvalues --   -0.38003  -0.38002  -0.37833  -0.37830  -0.37829
 Alpha  occ. eigenvalues --   -0.37401  -0.37400  -0.37400  -0.36623  -0.36588
 Alpha  occ. eigenvalues --   -0.36587  -0.36587  -0.36108  -0.36108  -0.36106
 Alpha  occ. eigenvalues --   -0.35945  -0.35945  -0.35943  -0.35733  -0.35731
 Alpha  occ. eigenvalues --   -0.35731  -0.35455  -0.35455  -0.35455  -0.35413
 Alpha  occ. eigenvalues --   -0.35412  -0.35051  -0.35051  -0.34001  -0.34001
 Alpha  occ. eigenvalues --   -0.34000  -0.33981  -0.33775  -0.33774  -0.33360
 Alpha  occ. eigenvalues --   -0.33359  -0.33358  -0.32968  -0.32067  -0.32066
 Alpha  occ. eigenvalues --   -0.32065  -0.31782  -0.31781  -0.31780  -0.31390
 Alpha  occ. eigenvalues --   -0.31389  -0.29380  -0.29379  -0.29377  -0.28560
 Alpha  occ. eigenvalues --   -0.27063  -0.26949  -0.26949  -0.26947  -0.26762
 Alpha  occ. eigenvalues --   -0.26762  -0.26588  -0.26586  -0.26586  -0.26416
 Alpha  occ. eigenvalues --   -0.26415  -0.26415  -0.25293  -0.25293  -0.25292
 Alpha  occ. eigenvalues --   -0.24936  -0.24935  -0.24934  -0.24765  -0.24765
 Alpha virt. eigenvalues --   -0.05463  -0.05462  -0.05462  -0.05100  -0.05099
 Alpha virt. eigenvalues --   -0.05099  -0.04932  -0.04931  -0.01375  -0.01374
 Alpha virt. eigenvalues --   -0.01373  -0.00756   0.04223   0.04229   0.04230

 Mulliken charges:
               1
     1  C    0.365909
     2  C   -0.156865
     3  C   -0.342024
     4  C    0.365926
     5  H    0.114198
     6  C   -0.342133
     7  C    0.365876
     8  H    0.114204
     9  C   -0.342068
    10  C   -0.156822
    11  H    0.114213
    12  C   -0.156870
    13  H    0.071405
    14  H    0.071432
    15  H    0.071425
    16  C    0.365779
    17  C   -0.156922
    18  C   -0.341355
    19  C    0.365571
    20  H    0.114215
    21  C   -0.341806
    22  C    0.366055
    23  H    0.114226
    24  C   -0.342621
    25  C   -0.156784
    26  H    0.114162
    27  C   -0.156792
    28  H    0.071436
    29  H    0.071263
    30  H    0.071417
    31  C    0.365779
    32  C   -0.156875
    33  C   -0.341304
    34  C    0.365600
    35  H    0.114214
    36  C   -0.341977
    37  C    0.366111
    38  H    0.114208
    39  C   -0.342614
    40  C   -0.156778
    41  H    0.114175
    42  C   -0.156779
    43  H    0.071435
    44  H    0.071283
    45  H    0.071430
    46  C    0.365800
    47  C   -0.156919
    48  C   -0.341394
    49  C    0.365682
    50  H    0.114196
    51  C   -0.341925
    52  C    0.366007
    53  H    0.114209
    54  C   -0.342500
    55  C   -0.156786
    56  H    0.114177
    57  C   -0.156812
    58  H    0.071408
    59  H    0.071294
    60  H    0.071401
    61  C    0.047972
    62  C    0.048159
    63  N   -0.186861
    64  N   -0.186668
    65  C   -0.191416
    66  H    0.042334
    67  C   -0.169546
    68  H    0.108226
    69  H    0.102006
    70  C   -0.169531
    71  H    0.086462
    72  H    0.108176
    73  C   -0.191513
    74  H    0.108165
    75  H    0.086480
    76  H    0.102049
    77  H    0.108190
    78  H    0.042421
    79  C    0.048003
    80  C    0.048159
    81  N   -0.186825
    82  N   -0.186725
    83  C   -0.191462
    84  H    0.042344
    85  C   -0.169534
    86  H    0.108213
    87  H    0.102022
    88  C   -0.169488
    89  H    0.086469
    90  H    0.108162
    91  C   -0.191542
    92  H    0.108168
    93  H    0.086480
    94  H    0.102030
    95  H    0.108193
    96  H    0.042397
    97  C    0.047933
    98  C    0.048153
    99  N   -0.186809
   100  N   -0.186728
   101  C   -0.191387
   102  H    0.042328
   103  C   -0.169562
   104  H    0.108223
   105  H    0.102005
   106  C   -0.169466
   107  H    0.086461
   108  H    0.108175
   109  C   -0.191550
   110  H    0.108169
   111  H    0.086474
   112  H    0.102037
   113  H    0.108188
   114  H    0.042407
   115  C    0.047728
   116  C    0.047761
   117  N   -0.186873
   118  N   -0.186860
   119  C   -0.191393
   120  H    0.042441
   121  C   -0.169550
   122  H    0.108196
   123  H    0.102029
   124  C   -0.169516
   125  H    0.086489
   126  H    0.108172
   127  C   -0.191486
   128  H    0.108186
   129  H    0.086468
   130  H    0.102055
   131  H    0.108200
   132  H    0.042421
   133  C    0.047729
   134  C    0.047660
   135  N   -0.186878
   136  N   -0.186853
   137  C   -0.191422
   138  H    0.042406
   139  C   -0.169517
   140  H    0.108203
   141  H    0.102045
   142  C   -0.169564
   143  H    0.086483
   144  H    0.108177
   145  C   -0.191371
   146  H    0.108190
   147  H    0.086485
   148  H    0.102025
   149  H    0.108194
   150  H    0.042432
   151  C    0.047702
   152  C    0.047712
   153  N   -0.186861
   154  N   -0.186824
   155  C   -0.191321
   156  H    0.042438
   157  C   -0.169564
   158  H    0.108199
   159  H    0.102023
   160  C   -0.169499
   161  H    0.086469
   162  H    0.108184
   163  C   -0.191493
   164  H    0.108196
   165  H    0.086466
   166  H    0.102051
   167  H    0.108197
   168  H    0.042421
 Sum of Mulliken charges =   0.00000

 Dipole moment (field-independent basis, Debye):
    X=             -0.0166    Y=             -0.0004    Z=              0.0021  Tot=              0.0167
 Quadrupole moment (field-independent basis, Debye-Ang):
   XX=           -477.1518   YY=           -477.1825   ZZ=           -477.1815
   XY=             -0.0054   XZ=              0.0020   YZ=              0.0041

 Normal termination of Gaussian 16 at Mon Oct 18 00:35:14 2021.
