 Gaussian 16, Revision C.01,
 Gaussian 16:  ES64L-G16RevC.01  3-Jul-2019

 ----------------------------------------------------------------------
 #P PBE1PBE/Def2TZVP SP SCF=(YQC,MaxCycle=900) int=(Grid=Superfinegrid)
  EmpiricalDispersion=GD3 SCRF=(PCM,Solvent=Chloroform)
 ----------------------------------------------------------------------

 -------------------------
 _4_alde1_6_ami4_1_opt_cfm
 -------------------------
 Symbolic Z-matrix:
 Charge =  0 Multiplicity = 1

                         Standard orientation:
 ---------------------------------------------------------------------
 Center     Atomic      Atomic             Coordinates (Angstroms)
 Number     Number       Type             X           Y           Z
 ---------------------------------------------------------------------
      1          6           0        1.568266    2.145484   -3.481721
      2          6           0        0.724245    1.874099   -4.636967
      3          6           0        2.668235    1.334750   -3.200886
      4          6           0        3.488103    1.605408   -2.111667
      5          1           0        2.870003    0.501381   -3.856503
      6          6           0        3.197297    2.695358   -1.290896
      7          6           0        2.104892    3.511859   -1.558347
      8          1           0        3.847780    2.891889   -0.452333
      9          6           0        1.291019    3.227942   -2.655161
     10          6           0        1.825670    4.660222   -0.707433
     11          1           0        0.449766    3.875724   -2.849074
     12          6           0        4.646595    0.764942   -1.843301
     13          1           0        2.423406    4.728241    0.214721
     14          1           0       -0.200148    2.468560   -4.703343
     15          1           0        4.720931   -0.153031   -2.446534
     16          6           0       -1.586744   -2.092260   -3.505736
     17          6           0       -0.748698   -1.803276   -4.661050
     18          6           0       -2.685160   -1.285866   -3.206813
     19          6           0       -3.499205   -1.573081   -2.117491
     20          1           0       -2.890209   -0.442615   -3.848500
     21          6           0       -3.204281   -2.675449   -1.314988
     22          6           0       -2.113227   -3.487753   -1.600478
     23          1           0       -3.850224   -2.884831   -0.476081
     24          6           0       -1.305139   -3.187094   -2.697271
     25          6           0       -1.829598   -4.648925   -0.768627
     26          1           0       -0.465009   -3.831894   -2.905441
     27          6           0       -4.656361   -0.736860   -1.830199
     28          1           0       -2.422501   -4.730918    0.155429
     29          1           0        0.175208   -2.396544   -4.741298
     30          1           0       -4.733610    0.190285   -2.418977
     31          6           0       -2.121413    3.477754    1.611671
     32          6           0       -1.847665    4.640179    0.778399
     33          6           0       -1.306138    3.180906    2.704045
     34          6           0       -1.578306    2.084751    3.513985
     35          1           0       -0.468000    3.829673    2.907864
     36          6           0       -2.674476    1.273141    3.220822
     37          6           0       -3.495499    1.556519    2.135846
     38          1           0       -2.872180    0.428880    3.863553
     39          6           0       -3.209960    2.660215    1.331764
     40          6           0       -4.650154    0.714782    1.854611
     41          1           0       -3.861397    2.866490    0.496249
     42          6           0       -0.732898    1.799655    4.665007
     43          1           0       -4.720122   -0.212668    2.443799
     44          1           0       -2.445762    4.719412   -0.142570
     45          1           0        0.188606    2.397433    4.740470
     46          6           0        3.506663   -1.588727    2.093387
     47          6           0        4.659842   -0.742761    1.818982
     48          6           0        3.216867   -2.680092    1.274141
     49          6           0        2.129751   -3.501869    1.547216
     50          1           0        3.863845   -2.873557    0.432226
     51          6           0        1.320262   -3.221832    2.648378
     52          6           0        1.596705   -2.138012    3.473422
     53          1           0        0.483247   -3.873582    2.846641
     54          6           0        2.691404   -1.322032    3.186939
     55          6           0        0.757437   -1.870599    4.633041
     56          1           0        2.892529   -0.487707    3.841423
     57          6           0        1.851597   -4.651484    0.697723
     58          1           0       -0.163802   -2.469473    4.704250
     59          1           0        4.732781    0.175644    2.421819
     60          1           0        2.444837   -4.716574   -0.227545
     61          6           0        0.189063    0.790598   -6.629773
     62          6           0       -0.223979   -0.689602   -6.639996
     63          7           0        1.048322    1.030670   -5.516169
     64          7           0       -1.077390   -0.946520   -5.525633
     65          1           0        0.680114   -1.319259   -6.638684
     66          1           0       -0.800466   -0.879975   -7.550320
     67          1           0       -0.715064    1.420183   -6.614165
     68          1           0        0.760747    0.994936   -7.540097
     69          6           0        0.723826    6.639253   -0.158280
     70          6           0       -0.755095    6.632568    0.259532
     71          7           0        0.971954    5.532280   -1.023755
     72          7           0       -0.997994    5.511369    1.107945
     73          1           0       -1.387770    6.629687   -0.642588
     74          1           0       -0.952746    7.538004    0.841307
     75          1           0        1.356439    6.625514    0.743653
     76          1           0        0.917115    7.554417   -0.726258
     77          6           0        6.637111    0.229757   -0.755324
     78          6           0        6.641980   -0.198067    0.720776
     79          7           0        5.519994    1.085371   -0.992435
     80          7           0        5.530275   -1.059072    0.963521
     81          1           0        6.633396    0.699745    1.359363
     82          1           0        7.554059   -0.772254    0.909861
     83          1           0        6.629466   -0.668074   -1.393974
     84          1           0        7.545389    0.808353   -0.949286
     85          6           0       -6.641017   -0.218365   -0.723919
     86          6           0       -6.638094    0.186836    0.758503
     87          7           0       -5.525248   -1.070252   -0.979757
     88          7           0       -5.525041    1.044044    1.008636
     89          1           0       -6.626240   -0.720602    1.383412
     90          1           0       -7.549059    0.758133    0.961160
     91          1           0       -6.636723    0.689133   -1.348805
     92          1           0       -7.550294   -0.793954   -0.921814
     93          6           0       -0.724944   -6.636100   -0.255668
     94          6           0        0.756192   -6.635701    0.154309
     95          7           0       -0.977578   -5.515979   -1.102774
     96          7           0        1.003655   -5.527521    1.018490
     97          1           0        1.384003   -6.618915   -0.750963
     98          1           0        0.956834   -7.549936    0.721214
     99          1           0       -1.352717   -6.636095    0.649765
    100          1           0       -0.921306   -7.542423   -0.836411
    101          6           0       -0.192549    0.688477    6.641019
    102          6           0        0.227493   -0.789792    6.628695
    103          7           0       -1.052978    0.941352    5.531210
    104          7           0        1.082131   -1.025691    5.510551
    105          1           0       -0.673638   -1.423617    6.617744
    106          1           0        0.804972   -0.991347    7.536061
    107          1           0        0.708535    1.322487    6.635082
    108          1           0       -0.765225    0.876138    7.554373
 ---------------------------------------------------------------------

 SCF Done:  E(RPBE1PBE) =  -2512.92260930     a.u. after    6 cycles
 SCF Done:  E(RPBE1PBE) =  -2512.92264500     A.U. after    7 cycles

 The electronic state is 1-A.
 Alpha  occ. eigenvalues --  -14.38052 -14.38052 -14.38052 -14.38052 -14.38052
 Alpha  occ. eigenvalues --  -14.38052 -14.38052 -14.38052 -14.38052 -14.38051
 Alpha  occ. eigenvalues --  -14.38051 -14.38051 -10.26800 -10.26800 -10.26800
 Alpha  occ. eigenvalues --  -10.26800 -10.26800 -10.26799 -10.26799 -10.26799
 Alpha  occ. eigenvalues --  -10.26799 -10.26799 -10.26798 -10.26798 -10.24935
 Alpha  occ. eigenvalues --  -10.24935 -10.24935 -10.24934 -10.24934 -10.24933
 Alpha  occ. eigenvalues --  -10.24912 -10.24912 -10.24912 -10.24911 -10.24911
 Alpha  occ. eigenvalues --  -10.24910 -10.24442 -10.24441 -10.24441 -10.24441
 Alpha  occ. eigenvalues --  -10.24439 -10.24438 -10.24438 -10.24437 -10.24437
 Alpha  occ. eigenvalues --  -10.24437 -10.24437 -10.24437 -10.23953 -10.23953
 Alpha  occ. eigenvalues --  -10.23953 -10.23952 -10.23952 -10.23952 -10.23952
 Alpha  occ. eigenvalues --  -10.23951 -10.23945 -10.23945 -10.23945 -10.23945
 Alpha  occ. eigenvalues --   -0.97586  -0.97447  -0.97446  -0.97446  -0.97361
 Alpha  occ. eigenvalues --   -0.97360  -0.95577  -0.95576  -0.95575  -0.95243
 Alpha  occ. eigenvalues --   -0.95242  -0.95242  -0.90400  -0.89922  -0.89921
 Alpha  occ. eigenvalues --   -0.89921  -0.82567  -0.82566  -0.82049  -0.82048
 Alpha  occ. eigenvalues --   -0.82047  -0.80572  -0.80572  -0.80571  -0.78331
 Alpha  occ. eigenvalues --   -0.76661  -0.76660  -0.76660  -0.76018  -0.76017
 Alpha  occ. eigenvalues --   -0.69894  -0.69892  -0.69892  -0.69847  -0.69846
 Alpha  occ. eigenvalues --   -0.69845  -0.66579  -0.66577  -0.65920  -0.65920
 Alpha  occ. eigenvalues --   -0.65919  -0.63571  -0.62931  -0.62931  -0.62930
 Alpha  occ. eigenvalues --   -0.60865  -0.60864  -0.60864  -0.56749  -0.56749
 Alpha  occ. eigenvalues --   -0.56749  -0.56224  -0.56223  -0.56109  -0.56109
 Alpha  occ. eigenvalues --   -0.56108  -0.54391  -0.53812  -0.53811  -0.53811
 Alpha  occ. eigenvalues --   -0.52510  -0.52510  -0.52510  -0.52304  -0.50665
 Alpha  occ. eigenvalues --   -0.50664  -0.50664  -0.50503  -0.50501  -0.50049
 Alpha  occ. eigenvalues --   -0.50049  -0.50048  -0.49083  -0.49081  -0.49080
 Alpha  occ. eigenvalues --   -0.48601  -0.46973  -0.46793  -0.46792  -0.46606
 Alpha  occ. eigenvalues --   -0.46606  -0.46604  -0.46417  -0.46417  -0.46417
 Alpha  occ. eigenvalues --   -0.45597  -0.45597  -0.45595  -0.44924  -0.44922
 Alpha  occ. eigenvalues --   -0.43877  -0.43876  -0.43875  -0.43834  -0.42300
 Alpha  occ. eigenvalues --   -0.42299  -0.42299  -0.41706  -0.40802  -0.40801
 Alpha  occ. eigenvalues --   -0.40800  -0.40070  -0.40070  -0.40069  -0.39622
 Alpha  occ. eigenvalues --   -0.39621  -0.39317  -0.39317  -0.39317  -0.38619
 Alpha  occ. eigenvalues --   -0.37348  -0.37348  -0.37348  -0.36635  -0.36634
 Alpha  occ. eigenvalues --   -0.36612  -0.36612  -0.36611  -0.35687  -0.35687
 Alpha  occ. eigenvalues --   -0.35686  -0.35343  -0.35343  -0.35342  -0.34745
 Alpha  occ. eigenvalues --   -0.34745  -0.31175  -0.31175  -0.31174  -0.30092
 Alpha  occ. eigenvalues --   -0.27750  -0.27674  -0.27673  -0.27672  -0.27449
 Alpha  occ. eigenvalues --   -0.27447  -0.27365  -0.27364  -0.27364  -0.27226
 Alpha  occ. eigenvalues --   -0.27225  -0.27225  -0.26349  -0.26349  -0.26348
 Alpha  occ. eigenvalues --   -0.25874  -0.25874  -0.25873  -0.25662  -0.25662
 Alpha virt. eigenvalues --   -0.06303  -0.06302  -0.06302  -0.05948  -0.05947
 Alpha virt. eigenvalues --   -0.05947  -0.05723  -0.05722  -0.02176  -0.02175
 Alpha virt. eigenvalues --   -0.02174  -0.01582   0.04834   0.04835   0.04835

 Mulliken charges:
               1
     1  C    0.361205
     2  C   -0.152223
     3  C   -0.353349
     4  C    0.361340
     5  H    0.122215
     6  C   -0.353376
     7  C    0.361266
     8  H    0.122269
     9  C   -0.353075
    10  C   -0.152137
    11  H    0.122211
    12  C   -0.152214
    13  H    0.086942
    14  H    0.086911
    15  H    0.086923
    16  C    0.361317
    17  C   -0.152220
    18  C   -0.353318
    19  C    0.361314
    20  H    0.122203
    21  C   -0.353381
    22  C    0.361162
    23  H    0.122190
    24  C   -0.353078
    25  C   -0.152120
    26  H    0.122237
    27  C   -0.152177
    28  H    0.086944
    29  H    0.086928
    30  H    0.086910
    31  C    0.361161
    32  C   -0.152134
    33  C   -0.353038
    34  C    0.361258
    35  H    0.122271
    36  C   -0.353327
    37  C    0.361347
    38  H    0.122211
    39  C   -0.353355
    40  C   -0.152183
    41  H    0.122213
    42  C   -0.152218
    43  H    0.086933
    44  H    0.086939
    45  H    0.086914
    46  C    0.361367
    47  C   -0.152135
    48  C   -0.353413
    49  C    0.361282
    50  H    0.122239
    51  C   -0.353128
    52  C    0.361235
    53  H    0.122190
    54  C   -0.353387
    55  C   -0.152265
    56  H    0.122240
    57  C   -0.152120
    58  H    0.086896
    59  H    0.086945
    60  H    0.086946
    61  C   -0.069817
    62  C   -0.069804
    63  N   -0.197821
    64  N   -0.197872
    65  H    0.077388
    66  H    0.125337
    67  H    0.077361
    68  H    0.125336
    69  C   -0.069825
    70  C   -0.069854
    71  N   -0.197903
    72  N   -0.197930
    73  H    0.077367
    74  H    0.125352
    75  H    0.077381
    76  H    0.125334
    77  C   -0.069892
    78  C   -0.069834
    79  N   -0.197855
    80  N   -0.197874
    81  H    0.077402
    82  H    0.125335
    83  H    0.077386
    84  H    0.125350
    85  C   -0.069822
    86  C   -0.069873
    87  N   -0.197811
    88  N   -0.197877
    89  H    0.077391
    90  H    0.125337
    91  H    0.077392
    92  H    0.125340
    93  C   -0.069800
    94  C   -0.069869
    95  N   -0.197905
    96  N   -0.197903
    97  H    0.077378
    98  H    0.125339
    99  H    0.077376
   100  H    0.125355
   101  C   -0.069853
   102  C   -0.069791
   103  N   -0.197822
   104  N   -0.197783
   105  H    0.077384
   106  H    0.125337
   107  H    0.077398
   108  H    0.125328
 Sum of Mulliken charges =   0.00000

 Dipole moment (field-independent basis, Debye):
    X=              0.0008    Y=             -0.0006    Z=              0.0013  Tot=              0.0017
 Quadrupole moment (field-independent basis, Debye-Ang):
   XX=           -332.1695   YY=           -332.1392   ZZ=           -332.1994
   XY=              0.0047   XZ=             -0.0001   YZ=              0.0096

 Normal termination of Gaussian 16 at Mon Oct 18 15:44:51 2021.
