 Gaussian 16, Revision C.01,
 Gaussian 16:  ES64L-G16RevC.01  3-Jul-2019

 ----------------------------------------------------------------------
 #P PBE1PBE/Def2TZVP SP SCF=(YQC,MaxCycle=900) int=(Grid=Superfinegrid)
  EmpiricalDispersion=GD3 SCRF=(PCM,Solvent=Chloroform)
 ----------------------------------------------------------------------

 -------------------------
 _4_alde1_6_ami3_1_opt_cfm
 -------------------------
 Symbolic Z-matrix:
 Charge =  0 Multiplicity = 1

                         Standard orientation:
 ---------------------------------------------------------------------
 Center     Atomic      Atomic             Coordinates (Angstroms)
 Number     Number       Type             X           Y           Z
 ---------------------------------------------------------------------
      1          6           0        3.988984   -1.059502   -1.229578
      2          6           0        3.950026   -2.149064   -2.194651
      3          6           0        4.086041   -1.334687    0.129195
      4          6           0        4.163232   -0.299252    1.060624
      5          1           0        4.118050   -2.350875    0.491275
      6          6           0        4.132124    1.018076    0.619009
      7          6           0        4.034990    1.309738   -0.741654
      8          1           0        4.196459    1.840891    1.314483
      9          6           0        3.958875    0.267664   -1.657982
     10          6           0        4.043557    2.690300   -1.204343
     11          1           0        3.889456    0.460955   -2.717569
     12          6           0        4.305720   -0.590885    2.480096
     13          1           0        3.811344    2.839057   -2.270402
     14          1           0        3.824386   -3.158141   -1.772301
     15          1           0        4.206642    0.271099    3.157977
     16          6           0       -0.380855   -2.000918   -3.788168
     17          6           0        0.875808   -1.942804   -4.521252
     18          6           0       -1.333078   -1.002943   -3.958009
     19          6           0       -2.556982   -1.066904   -3.291924
     20          1           0       -1.153337   -0.167445   -4.617132
     21          6           0       -2.815652   -2.136825   -2.443536
     22          6           0       -1.869609   -3.145964   -2.263059
     23          1           0       -3.755366   -2.218005   -1.919081
     24          6           0       -0.654693   -3.068864   -2.933521
     25          6           0       -2.159985   -4.285881   -1.404910
     26          1           0        0.094791   -3.837069   -2.819493
     27          6           0       -3.568065   -0.040836   -3.503816
     28          1           0       -1.311146   -4.954697   -1.193867
     29          1           0        1.077066   -0.998550   -5.050706
     30          1           0       -4.437750   -0.079377   -2.829661
     31          6           0       -0.059330    4.297301    0.174807
     32          6           0        1.274438    4.812500    0.449707
     33          6           0       -0.925533    4.012105    1.223555
     34          6           0       -2.219420    3.555290    0.973089
     35          1           0       -0.622611    4.150740    2.250086
     36          6           0       -2.636262    3.376227   -0.340495
     37          6           0       -1.778069    3.658205   -1.403461
     38          1           0       -3.633140    3.030291   -0.566933
     39          6           0       -0.491689    4.112850   -1.138532
     40          6           0       -2.231343    3.507958   -2.779073
     41          1           0        0.193326    4.345642   -1.939470
     42          6           0       -3.137473    3.296518    2.073293
     43          1           0       -1.453048    3.600588   -3.552298
     44          1           0        1.590173    4.783416    1.504177
     45          1           0       -4.079675    2.795103    1.802746
     46          6           0        0.172916   -2.295486    3.632840
     47          6           0        1.494106   -2.884704    3.798451
     48          6           0       -0.823537   -2.996632    2.964410
     49          6           0       -2.104482   -2.460313    2.832925
     50          1           0       -0.633382   -3.973306    2.546533
     51          6           0       -2.376818   -1.207577    3.369224
     52          6           0       -1.386725   -0.491910    4.042688
     53          1           0       -3.359517   -0.768537    3.289424
     54          6           0       -0.115116   -1.038978    4.165991
     55          6           0       -1.686564    0.802538    4.638321
     56          1           0        0.670112   -0.512817    4.686857
     57          6           0       -3.156853   -3.215360    2.167630
     58          1           0       -0.820129    1.368750    5.014055
     59          1           0        1.684216   -3.802258    3.220146
     60          1           0       -4.089142   -2.664260    1.969176
     61          6           0        4.059076   -3.044484   -4.346996
     62          6           0        2.879172   -2.835290   -5.317656
     63          7           0        4.081829   -1.947181   -3.431911
     64          7           0        1.665411   -2.924108   -4.568770
     65          6           0        2.882095   -3.934230   -6.383706
     66          1           0        2.998179   -1.845779   -5.795316
     67          6           0        4.199369   -3.949995   -7.149490
     68          1           0        2.045890   -3.764952   -7.065485
     69          1           0        2.721820   -4.893733   -5.888967
     70          6           0        5.367419   -4.153938   -6.190646
     71          1           0        4.324627   -3.001644   -7.677214
     72          1           0        4.181081   -4.748731   -7.893664
     73          6           0        5.376456   -3.062829   -5.127079
     74          1           0        6.310854   -4.137793   -6.740049
     75          1           0        5.275344   -5.130351   -5.709368
     76          1           0        5.514891   -2.084840   -5.591103
     77          1           0        6.198327   -3.220299   -4.425369
     78          1           0        3.912429   -4.010366   -3.830451
     79          6           0        4.346715    4.988082   -0.931741
     80          6           0        3.300378    5.804651   -0.146431
     81          7           0        4.328285    3.648045   -0.435940
     82          7           0        2.005531    5.288154   -0.460321
     83          6           0        3.361539    7.273987   -0.572528
     84          1           0        3.531305    5.714011    0.930457
     85          6           0        4.754792    7.850012   -0.351923
     86          1           0        2.620484    7.836843   -0.000843
     87          1           0        3.089524    7.337788   -1.627548
     88          6           0        5.791079    7.041898   -1.125562
     89          1           0        4.995138    7.822786    0.713447
     90          1           0        4.775426    8.893003   -0.674458
     91          6           0        5.741605    5.577835   -0.706457
     92          1           0        6.790659    7.441603   -0.943371
     93          1           0        5.587361    7.120963   -2.195874
     94          1           0        5.989470    5.479759    0.351869
     95          1           0        6.466816    4.992712   -1.276071
     96          1           0        4.085397    5.035396   -2.004530
     97          6           0        4.709603   -1.997162    4.298265
     98          6           0        3.629676   -3.009731    4.730104
     99          7           0        4.556004   -1.753154    2.898677
    100          7           0        2.351510   -2.389164    4.578272
    101          6           0        3.825231   -3.381900    6.202304
    102          1           0        3.729554   -3.909918    4.096763
    103          6           0        5.215301   -3.958593    6.440781
    104          1           0        3.057760   -4.104749    6.487093
    105          1           0        3.680455   -2.484368    6.806110
    106          6           0        6.284431   -2.959483    6.011656
    107          1           0        5.329630   -4.881155    5.866833
    108          1           0        5.333794   -4.203818    7.498118
    109          6           0        6.101525   -2.584819    4.546177
    110          1           0        7.278153   -3.387087    6.159263
    111          1           0        6.209891   -2.061201    6.628850
    112          1           0        6.220191   -3.466388    3.913730
    113          1           0        6.851904   -1.851423    4.242897
    114          1           0        4.576387   -1.076648    4.895180
    115          6           0       -4.485595    1.796241   -4.612677
    116          6           0       -3.854864    3.190969   -4.425453
    117          7           0       -3.462966    0.816779   -4.421565
    118          7           0       -3.444115    3.313520   -3.062230
    119          6           0       -4.892842    4.275310   -4.727126
    120          1           0       -3.002548    3.279466   -5.123282
    121          6           0       -5.441457    4.129283   -6.141142
    122          1           0       -4.426322    5.254286   -4.597642
    123          1           0       -5.700750    4.190302   -3.998280
    124          6           0       -6.063018    2.749462   -6.328742
    125          1           0       -4.630969    4.262908   -6.861303
    126          1           0       -6.187242    4.904936   -6.326701
    127          6           0       -5.036968    1.662012   -6.034838
    128          1           0       -6.430750    2.639553   -7.350880
    129          1           0       -6.913494    2.639670   -5.651816
    130          1           0       -4.202751    1.731281   -6.735057
    131          1           0       -5.486381    0.672846   -6.145649
    132          1           0       -5.304378    1.687552   -3.878480
    133          6           0       -3.570121   -5.644760   -0.135248
    134          6           0       -4.077134   -5.145640    1.233051
    135          7           0       -3.318382   -4.504352   -0.958564
    136          7           0       -3.014561   -4.431137    1.867004
    137          6           0       -4.461507   -6.339278    2.111716
    138          1           0       -4.960432   -4.504532    1.059595
    139          6           0       -5.524052   -7.196775    1.435439
    140          1           0       -4.825445   -5.966338    3.071525
    141          1           0       -3.563672   -6.930303    2.300666
    142          6           0       -5.025111   -7.688757    0.081023
    143          1           0       -6.432504   -6.606572    1.294802
    144          1           0       -5.771043   -8.046330    2.075336
    145          6           0       -4.643472   -6.508300   -0.803531
    146          1           0       -5.799302   -8.280493   -0.411533
    147          1           0       -4.153256   -8.330669    0.227005
    148          1           0       -5.517077   -5.883085   -0.996064
    149          1           0       -4.263704   -6.858881   -1.765589
    150          1           0       -2.655958   -6.242270    0.033762
    151          6           0       -3.811535    3.400146    4.305179
    152          6           0       -3.125348    2.496754    5.349847
    153          7           0       -2.877251    3.652663    3.254033
    154          7           0       -2.867902    1.229853    4.741032
    155          6           0       -4.055825    2.288261    6.547784
    156          1           0       -2.194537    2.994802    5.676814
    157          6           0       -4.445593    3.620506    7.176080
    158          1           0       -3.550264    1.654254    7.279341
    159          1           0       -4.945865    1.758637    6.203759
    160          6           0       -5.121797    4.516047    6.143616
    161          1           0       -3.550996    4.118308    7.557602
    162          1           0       -5.117794    3.445578    8.018515
    163          6           0       -4.202487    4.733626    4.948068
    164          1           0       -5.375249    5.479240    6.590951
    165          1           0       -6.049496    4.046532    5.808311
    166          1           0       -3.290501    5.244717    5.261459
    167          1           0       -4.693810    5.355466    4.196629
    168          1           0       -4.714315    2.878292    3.939204
 ---------------------------------------------------------------------

 SCF Done:  E(RPBE1PBE) =  -3448.51863579     a.u. after    7 cycles
 SCF Done:  E(RPBE1PBE) =  -3448.51865647     A.U. after    7 cycles

 The electronic state is 1-A.
 Alpha  occ. eigenvalues --  -14.37685 -14.37685 -14.37684 -14.37683 -14.37681
 Alpha  occ. eigenvalues --  -14.37680 -14.37680 -14.37680 -14.37679 -14.37678
 Alpha  occ. eigenvalues --  -14.37674 -14.37674 -10.26526 -10.26524 -10.26524
 Alpha  occ. eigenvalues --  -10.26523 -10.26521 -10.26520 -10.26520 -10.26520
 Alpha  occ. eigenvalues --  -10.26519 -10.26518 -10.26516 -10.26515 -10.25027
 Alpha  occ. eigenvalues --  -10.25026 -10.25026 -10.25025 -10.25023 -10.25023
 Alpha  occ. eigenvalues --  -10.25005 -10.25004 -10.25003 -10.25003 -10.25001
 Alpha  occ. eigenvalues --  -10.25000 -10.24218 -10.24215 -10.24214 -10.24212
 Alpha  occ. eigenvalues --  -10.24211 -10.24211 -10.24210 -10.24209 -10.24208
 Alpha  occ. eigenvalues --  -10.24208 -10.24207 -10.24206 -10.23715 -10.23709
 Alpha  occ. eigenvalues --  -10.23708 -10.23707 -10.23705 -10.23704 -10.23704
 Alpha  occ. eigenvalues --  -10.23702 -10.23702 -10.23698 -10.23697 -10.23696
 Alpha  occ. eigenvalues --  -10.21470 -10.21468 -10.21467 -10.21467 -10.21467
 Alpha  occ. eigenvalues --  -10.21465 -10.21465 -10.21465 -10.21464 -10.21464
 Alpha  occ. eigenvalues --  -10.21463 -10.21463 -10.21356 -10.21354 -10.21353
 Alpha  occ. eigenvalues --  -10.21353 -10.21352 -10.21352 -10.21331 -10.21330
 Alpha  occ. eigenvalues --  -10.21329 -10.21328 -10.21328 -10.21327  -0.97712
 Alpha  occ. eigenvalues --   -0.97593  -0.97591  -0.97591  -0.97522  -0.97521
 Alpha  occ. eigenvalues --   -0.95393  -0.95391  -0.95390  -0.95062  -0.95062
 Alpha  occ. eigenvalues --   -0.95059  -0.90426  -0.89840  -0.89838  -0.89836
 Alpha  occ. eigenvalues --   -0.85844  -0.85844  -0.85512  -0.85512  -0.85512
 Alpha  occ. eigenvalues --   -0.84936  -0.80877  -0.80876  -0.80841  -0.80841
 Alpha  occ. eigenvalues --   -0.80840  -0.80747  -0.80747  -0.80745  -0.76826
 Alpha  occ. eigenvalues --   -0.76824  -0.76824  -0.76786  -0.76156  -0.76155
 Alpha  occ. eigenvalues --   -0.76154  -0.75591  -0.75591  -0.75590  -0.75325
 Alpha  occ. eigenvalues --   -0.75324  -0.68560  -0.68557  -0.68555  -0.68259
 Alpha  occ. eigenvalues --   -0.68259  -0.68257  -0.67036  -0.67036  -0.66398
 Alpha  occ. eigenvalues --   -0.66398  -0.66397  -0.65480  -0.62931  -0.62931
 Alpha  occ. eigenvalues --   -0.62855  -0.62854  -0.62854  -0.62374  -0.62374
 Alpha  occ. eigenvalues --   -0.62372  -0.61473  -0.60595  -0.60592  -0.60592
 Alpha  occ. eigenvalues --   -0.58198  -0.58197  -0.58195  -0.58013  -0.58011
 Alpha  occ. eigenvalues --   -0.58010  -0.56219  -0.56217  -0.56215  -0.56030
 Alpha  occ. eigenvalues --   -0.56029  -0.55854  -0.55852  -0.55852  -0.54213
 Alpha  occ. eigenvalues --   -0.53327  -0.53324  -0.53323  -0.52683  -0.52680
 Alpha  occ. eigenvalues --   -0.52679  -0.52419  -0.51053  -0.51052  -0.50669
 Alpha  occ. eigenvalues --   -0.50668  -0.50666  -0.49854  -0.49850  -0.49848
 Alpha  occ. eigenvalues --   -0.49043  -0.49040  -0.49039  -0.48805  -0.47450
 Alpha  occ. eigenvalues --   -0.47449  -0.47448  -0.47395  -0.47395  -0.47181
 Alpha  occ. eigenvalues --   -0.47096  -0.47095  -0.47094  -0.46110  -0.46109
 Alpha  occ. eigenvalues --   -0.46108  -0.45657  -0.45002  -0.45001  -0.45000
 Alpha  occ. eigenvalues --   -0.45000  -0.44997  -0.44318  -0.44317  -0.44317
 Alpha  occ. eigenvalues --   -0.44072  -0.44071  -0.43829  -0.43827  -0.43826
 Alpha  occ. eigenvalues --   -0.43501  -0.43499  -0.43498  -0.43468  -0.42205
 Alpha  occ. eigenvalues --   -0.42204  -0.42203  -0.41960  -0.41959  -0.41958
 Alpha  occ. eigenvalues --   -0.41455  -0.41453  -0.41451  -0.40654  -0.39899
 Alpha  occ. eigenvalues --   -0.39898  -0.39897  -0.39724  -0.39724  -0.39722
 Alpha  occ. eigenvalues --   -0.38387  -0.38387  -0.38200  -0.38198  -0.38196
 Alpha  occ. eigenvalues --   -0.37812  -0.37811  -0.37809  -0.37019  -0.37018
 Alpha  occ. eigenvalues --   -0.37016  -0.36755  -0.36313  -0.36312  -0.36312
 Alpha  occ. eigenvalues --   -0.36169  -0.36168  -0.36167  -0.35929  -0.35928
 Alpha  occ. eigenvalues --   -0.35926  -0.35704  -0.35702  -0.35702  -0.35665
 Alpha  occ. eigenvalues --   -0.35664  -0.35349  -0.35349  -0.34052  -0.34051
 Alpha  occ. eigenvalues --   -0.34050  -0.33974  -0.33779  -0.33778  -0.33522
 Alpha  occ. eigenvalues --   -0.33522  -0.33521  -0.33088  -0.32251  -0.32250
 Alpha  occ. eigenvalues --   -0.32249  -0.31956  -0.31955  -0.31955  -0.31580
 Alpha  occ. eigenvalues --   -0.31579  -0.29742  -0.29740  -0.29739  -0.28913
 Alpha  occ. eigenvalues --   -0.27586  -0.27476  -0.27474  -0.27471  -0.27283
 Alpha  occ. eigenvalues --   -0.27282  -0.27118  -0.27114  -0.27111  -0.26942
 Alpha  occ. eigenvalues --   -0.26940  -0.26937  -0.25871  -0.25870  -0.25868
 Alpha  occ. eigenvalues --   -0.25483  -0.25483  -0.25481  -0.25304  -0.25304
 Alpha virt. eigenvalues --   -0.06033  -0.06031  -0.06030  -0.05667  -0.05666
 Alpha virt. eigenvalues --   -0.05665  -0.05494  -0.05493  -0.01872  -0.01869
 Alpha virt. eigenvalues --   -0.01868  -0.01234   0.04193   0.04196   0.04197

 Mulliken charges:
               1
     1  C    0.360581
     2  C   -0.163527
     3  C   -0.351545
     4  C    0.360122
     5  H    0.119832
     6  C   -0.351676
     7  C    0.360657
     8  H    0.119770
     9  C   -0.351659
    10  C   -0.163589
    11  H    0.119864
    12  C   -0.163385
    13  H    0.089043
    14  H    0.089138
    15  H    0.089093
    16  C    0.360985
    17  C   -0.164259
    18  C   -0.350931
    19  C    0.360346
    20  H    0.119735
    21  C   -0.351275
    22  C    0.360805
    23  H    0.119721
    24  C   -0.352235
    25  C   -0.163479
    26  H    0.119664
    27  C   -0.163284
    28  H    0.089122
    29  H    0.088956
    30  H    0.089095
    31  C    0.360431
    32  C   -0.163501
    33  C   -0.350774
    34  C    0.360002
    35  H    0.119629
    36  C   -0.351483
    37  C    0.361003
    38  H    0.119779
    39  C   -0.352075
    40  C   -0.163539
    41  H    0.119430
    42  C   -0.163441
    43  H    0.089051
    44  H    0.089060
    45  H    0.089224
    46  C    0.360544
    47  C   -0.163427
    48  C   -0.350862
    49  C    0.360158
    50  H    0.119637
    51  C   -0.351364
    52  C    0.360474
    53  H    0.119680
    54  C   -0.351919
    55  C   -0.163469
    56  H    0.119612
    57  C   -0.163560
    58  H    0.089126
    59  H    0.088975
    60  H    0.089160
    61  C    0.044348
    62  C    0.044559
    63  N   -0.197728
    64  N   -0.197133
    65  C   -0.193675
    66  H    0.051691
    67  C   -0.178042
    68  H    0.112328
    69  H    0.101967
    70  C   -0.178128
    71  H    0.092117
    72  H    0.112642
    73  C   -0.193882
    74  H    0.112637
    75  H    0.092129
    76  H    0.102028
    77  H    0.112298
    78  H    0.051726
    79  C    0.044890
    80  C    0.044155
    81  N   -0.197542
    82  N   -0.197485
    83  C   -0.193765
    84  H    0.051813
    85  C   -0.178006
    86  H    0.112301
    87  H    0.101973
    88  C   -0.178072
    89  H    0.092119
    90  H    0.112641
    91  C   -0.193997
    92  H    0.112655
    93  H    0.092117
    94  H    0.102107
    95  H    0.112286
    96  H    0.051560
    97  C    0.044418
    98  C    0.044467
    99  N   -0.197250
   100  N   -0.197559
   101  C   -0.193555
   102  H    0.051616
   103  C   -0.178070
   104  H    0.112320
   105  H    0.101849
   106  C   -0.178002
   107  H    0.092116
   108  H    0.112651
   109  C   -0.193948
   110  H    0.112648
   111  H    0.092125
   112  H    0.102025
   113  H    0.112261
   114  H    0.051589
   115  C    0.044510
   116  C    0.043767
   117  N   -0.197774
   118  N   -0.197434
   119  C   -0.193616
   120  H    0.051756
   121  C   -0.178036
   122  H    0.112233
   123  H    0.101979
   124  C   -0.178015
   125  H    0.092111
   126  H    0.112642
   127  C   -0.193957
   128  H    0.112651
   129  H    0.092108
   130  H    0.102017
   131  H    0.112303
   132  H    0.051669
   133  C    0.044638
   134  C    0.043716
   135  N   -0.197514
   136  N   -0.197403
   137  C   -0.193581
   138  H    0.051673
   139  C   -0.177979
   140  H    0.112291
   141  H    0.101912
   142  C   -0.178134
   143  H    0.092105
   144  H    0.112637
   145  C   -0.193770
   146  H    0.112646
   147  H    0.092137
   148  H    0.101986
   149  H    0.112249
   150  H    0.051606
   151  C    0.044217
   152  C    0.044053
   153  N   -0.197701
   154  N   -0.197456
   155  C   -0.193499
   156  H    0.051765
   157  C   -0.177991
   158  H    0.112263
   159  H    0.101941
   160  C   -0.178049
   161  H    0.092106
   162  H    0.112621
   163  C   -0.193690
   164  H    0.112642
   165  H    0.092094
   166  H    0.101941
   167  H    0.112248
   168  H    0.051791
 Sum of Mulliken charges =   0.00000

 Dipole moment (field-independent basis, Debye):
    X=             -0.0235    Y=             -0.0086    Z=              0.0079  Tot=              0.0262
 Quadrupole moment (field-independent basis, Debye-Ang):
   XX=           -469.1824   YY=           -469.3189   ZZ=           -469.3128
   XY=              0.0021   XZ=              0.0269   YZ=              0.0543

 Normal termination of Gaussian 16 at Mon Oct 18 01:23:02 2021.
