 Gaussian 16, Revision C.01,
 Gaussian 16:  ES64L-G16RevC.01  3-Jul-2019

 ----------------------------------------------------------------------
 #P MP2/aug-cc-pVDZ SP SCF=(YQC,MaxCycle=900) int=(Grid=Superfinegrid)
 SCRF=(PCM,Solvent=Dichloromethane)
 ----------------------------------------------------------------------

 -----------------------------
 _4_alde1_6_ami4_1_opt_dcm_mp2
 -----------------------------
 Symbolic Z-matrix:
 Charge =  0 Multiplicity = 1

                         Standard orientation:
 ---------------------------------------------------------------------
 Center     Atomic      Atomic             Coordinates (Angstroms)
 Number     Number       Type             X           Y           Z
 ---------------------------------------------------------------------
      1          6           0        1.568266    2.145484   -3.481721
      2          6           0        0.724245    1.874099   -4.636967
      3          6           0        2.668235    1.334750   -3.200886
      4          6           0        3.488103    1.605408   -2.111667
      5          1           0        2.870003    0.501381   -3.856503
      6          6           0        3.197297    2.695358   -1.290896
      7          6           0        2.104892    3.511859   -1.558347
      8          1           0        3.847780    2.891889   -0.452333
      9          6           0        1.291019    3.227942   -2.655161
     10          6           0        1.825670    4.660222   -0.707433
     11          1           0        0.449766    3.875724   -2.849074
     12          6           0        4.646595    0.764942   -1.843301
     13          1           0        2.423406    4.728241    0.214721
     14          1           0       -0.200148    2.468560   -4.703343
     15          1           0        4.720931   -0.153031   -2.446534
     16          6           0       -1.586744   -2.092260   -3.505736
     17          6           0       -0.748698   -1.803276   -4.661050
     18          6           0       -2.685160   -1.285866   -3.206813
     19          6           0       -3.499205   -1.573081   -2.117491
     20          1           0       -2.890209   -0.442615   -3.848500
     21          6           0       -3.204281   -2.675449   -1.314988
     22          6           0       -2.113227   -3.487753   -1.600478
     23          1           0       -3.850224   -2.884831   -0.476081
     24          6           0       -1.305139   -3.187094   -2.697271
     25          6           0       -1.829598   -4.648925   -0.768627
     26          1           0       -0.465009   -3.831894   -2.905441
     27          6           0       -4.656361   -0.736860   -1.830199
     28          1           0       -2.422501   -4.730918    0.155429
     29          1           0        0.175208   -2.396544   -4.741298
     30          1           0       -4.733610    0.190285   -2.418977
     31          6           0       -2.121413    3.477754    1.611671
     32          6           0       -1.847665    4.640179    0.778399
     33          6           0       -1.306138    3.180906    2.704045
     34          6           0       -1.578306    2.084751    3.513985
     35          1           0       -0.468000    3.829673    2.907864
     36          6           0       -2.674476    1.273141    3.220822
     37          6           0       -3.495499    1.556519    2.135846
     38          1           0       -2.872180    0.428880    3.863553
     39          6           0       -3.209960    2.660215    1.331764
     40          6           0       -4.650154    0.714782    1.854611
     41          1           0       -3.861397    2.866490    0.496249
     42          6           0       -0.732898    1.799655    4.665007
     43          1           0       -4.720122   -0.212668    2.443799
     44          1           0       -2.445762    4.719412   -0.142570
     45          1           0        0.188606    2.397433    4.740470
     46          6           0        3.506663   -1.588727    2.093387
     47          6           0        4.659842   -0.742761    1.818982
     48          6           0        3.216867   -2.680092    1.274141
     49          6           0        2.129751   -3.501869    1.547216
     50          1           0        3.863845   -2.873557    0.432226
     51          6           0        1.320262   -3.221832    2.648378
     52          6           0        1.596705   -2.138012    3.473422
     53          1           0        0.483247   -3.873582    2.846641
     54          6           0        2.691404   -1.322032    3.186939
     55          6           0        0.757437   -1.870599    4.633041
     56          1           0        2.892529   -0.487707    3.841423
     57          6           0        1.851597   -4.651484    0.697723
     58          1           0       -0.163802   -2.469473    4.704250
     59          1           0        4.732781    0.175644    2.421819
     60          1           0        2.444837   -4.716574   -0.227545
     61          6           0        0.189063    0.790598   -6.629773
     62          6           0       -0.223979   -0.689602   -6.639996
     63          7           0        1.048322    1.030670   -5.516169
     64          7           0       -1.077390   -0.946520   -5.525633
     65          1           0        0.680114   -1.319259   -6.638684
     66          1           0       -0.800466   -0.879975   -7.550320
     67          1           0       -0.715064    1.420183   -6.614165
     68          1           0        0.760747    0.994936   -7.540097
     69          6           0        0.723826    6.639253   -0.158280
     70          6           0       -0.755095    6.632568    0.259532
     71          7           0        0.971954    5.532280   -1.023755
     72          7           0       -0.997994    5.511369    1.107945
     73          1           0       -1.387770    6.629687   -0.642588
     74          1           0       -0.952746    7.538004    0.841307
     75          1           0        1.356439    6.625514    0.743653
     76          1           0        0.917115    7.554417   -0.726258
     77          6           0        6.637111    0.229757   -0.755324
     78          6           0        6.641980   -0.198067    0.720776
     79          7           0        5.519994    1.085371   -0.992435
     80          7           0        5.530275   -1.059072    0.963521
     81          1           0        6.633396    0.699745    1.359363
     82          1           0        7.554059   -0.772254    0.909861
     83          1           0        6.629466   -0.668074   -1.393974
     84          1           0        7.545389    0.808353   -0.949286
     85          6           0       -6.641017   -0.218365   -0.723919
     86          6           0       -6.638094    0.186836    0.758503
     87          7           0       -5.525248   -1.070252   -0.979757
     88          7           0       -5.525041    1.044044    1.008636
     89          1           0       -6.626240   -0.720602    1.383412
     90          1           0       -7.549059    0.758133    0.961160
     91          1           0       -6.636723    0.689133   -1.348805
     92          1           0       -7.550294   -0.793954   -0.921814
     93          6           0       -0.724944   -6.636100   -0.255668
     94          6           0        0.756192   -6.635701    0.154309
     95          7           0       -0.977578   -5.515979   -1.102774
     96          7           0        1.003655   -5.527521    1.018490
     97          1           0        1.384003   -6.618915   -0.750963
     98          1           0        0.956834   -7.549936    0.721214
     99          1           0       -1.352717   -6.636095    0.649765
    100          1           0       -0.921306   -7.542423   -0.836411
    101          6           0       -0.192549    0.688477    6.641019
    102          6           0        0.227493   -0.789792    6.628695
    103          7           0       -1.052978    0.941352    5.531210
    104          7           0        1.082131   -1.025691    5.510551
    105          1           0       -0.673638   -1.423617    6.617744
    106          1           0        0.804972   -0.991347    7.536061
    107          1           0        0.708535    1.322487    6.635082
    108          1           0       -0.765225    0.876138    7.554373
 ---------------------------------------------------------------------

 SCF Done:  E(RHF) =  -2499.20921249     a.u. after    7 cycles
 SCF Done:  E(RHF) =  -2499.20929879     A.U. after   16 cycles
 E2 =    -0.8571112126D+01 EUMP2 =    -0.25077804109108D+04

 The electronic state is 1-A.
 Alpha  occ. eigenvalues --  -15.56457 -15.56457 -15.56457 -15.56457 -15.56456
 Alpha  occ. eigenvalues --  -15.56456 -15.56456 -15.56456 -15.56456 -15.56456
 Alpha  occ. eigenvalues --  -15.56455 -15.56455 -11.28833 -11.28833 -11.28833
 Alpha  occ. eigenvalues --  -11.28832 -11.28832 -11.28832 -11.28832 -11.28832
 Alpha  occ. eigenvalues --  -11.28832 -11.28832 -11.28832 -11.28831 -11.25763
 Alpha  occ. eigenvalues --  -11.25763 -11.25763 -11.25763 -11.25763 -11.25762
 Alpha  occ. eigenvalues --  -11.25705 -11.25705 -11.25705 -11.25705 -11.25704
 Alpha  occ. eigenvalues --  -11.25703 -11.25474 -11.25473 -11.25473 -11.25473
 Alpha  occ. eigenvalues --  -11.25434 -11.25434 -11.25433 -11.25433 -11.25433
 Alpha  occ. eigenvalues --  -11.25432 -11.25432 -11.25432 -11.25221 -11.25221
 Alpha  occ. eigenvalues --  -11.25220 -11.25220 -11.25220 -11.25220 -11.25220
 Alpha  occ. eigenvalues --  -11.25219 -11.25177 -11.25176 -11.25176 -11.25176
 Alpha  occ. eigenvalues --   -1.26399  -1.26207  -1.26206  -1.26205  -1.26083
 Alpha  occ. eigenvalues --   -1.26083  -1.24114  -1.24113  -1.24112  -1.23684
 Alpha  occ. eigenvalues --   -1.23683  -1.23682  -1.17733  -1.17166  -1.17165
 Alpha  occ. eigenvalues --   -1.17165  -1.07821  -1.07820  -1.07232  -1.07231
 Alpha  occ. eigenvalues --   -1.07230  -1.05668  -1.05667  -1.05667  -1.02199
 Alpha  occ. eigenvalues --   -1.00469  -1.00468  -1.00467  -0.99781  -0.99780
 Alpha  occ. eigenvalues --   -0.91738  -0.91737  -0.91736  -0.91586  -0.91585
 Alpha  occ. eigenvalues --   -0.91584  -0.87682  -0.87681  -0.86741  -0.86740
 Alpha  occ. eigenvalues --   -0.86740  -0.83496  -0.83060  -0.83059  -0.83059
 Alpha  occ. eigenvalues --   -0.80278  -0.80277  -0.80277  -0.75405  -0.75405
 Alpha  occ. eigenvalues --   -0.75405  -0.74828  -0.74827  -0.74711  -0.74710
 Alpha  occ. eigenvalues --   -0.74709  -0.71393  -0.71046  -0.71045  -0.71045
 Alpha  occ. eigenvalues --   -0.69111  -0.68900  -0.68900  -0.68899  -0.67225
 Alpha  occ. eigenvalues --   -0.67224  -0.67224  -0.66285  -0.66284  -0.66268
 Alpha  occ. eigenvalues --   -0.66267  -0.66267  -0.64806  -0.64804  -0.64804
 Alpha  occ. eigenvalues --   -0.64687  -0.62296  -0.62295  -0.62295  -0.62096
 Alpha  occ. eigenvalues --   -0.61939  -0.61937  -0.61586  -0.61585  -0.61585
 Alpha  occ. eigenvalues --   -0.60622  -0.60622  -0.60621  -0.59556  -0.59554
 Alpha  occ. eigenvalues --   -0.58593  -0.58591  -0.58590  -0.58253  -0.55194
 Alpha  occ. eigenvalues --   -0.55192  -0.55191  -0.54920  -0.54918  -0.54917
 Alpha  occ. eigenvalues --   -0.54164  -0.53818  -0.53817  -0.53644  -0.53643
 Alpha  occ. eigenvalues --   -0.53643  -0.53109  -0.53109  -0.53108  -0.52002
 Alpha  occ. eigenvalues --   -0.50690  -0.50689  -0.50689  -0.50000  -0.50000
 Alpha  occ. eigenvalues --   -0.49999  -0.49955  -0.49954  -0.46640  -0.46639
 Alpha  occ. eigenvalues --   -0.46639  -0.45687  -0.45686  -0.45685  -0.44963
 Alpha  occ. eigenvalues --   -0.44962  -0.41290  -0.41289  -0.41288  -0.41278
 Alpha  occ. eigenvalues --   -0.40888  -0.40887  -0.40886  -0.40883  -0.40881
 Alpha  occ. eigenvalues --   -0.40746  -0.40745  -0.40744  -0.40595  -0.40595
 Alpha  occ. eigenvalues --   -0.40594  -0.39601  -0.32895  -0.32894  -0.32893
 Alpha  occ. eigenvalues --   -0.32601  -0.32600  -0.32600  -0.32428  -0.32427
 Alpha virt. eigenvalues --    0.03586   0.03703   0.03704   0.03704   0.04192
 Alpha virt. eigenvalues --    0.04192   0.04418   0.04418   0.04419   0.05191
 Alpha virt. eigenvalues --    0.05191   0.05191   0.05379   0.05379   0.05379

 Mulliken charges:
               1
     1  C    1.064378
     2  C    0.838960
     3  C    0.041024
     4  C    1.065914
     5  H   -0.912584
     6  C    0.042775
     7  C    1.065558
     8  H   -0.912641
     9  C    0.040472
    10  C    0.837815
    11  H   -0.913074
    12  C    0.839058
    13  H   -0.670817
    14  H   -0.670980
    15  H   -0.671360
    16  C    1.064355
    17  C    0.839823
    18  C    0.042250
    19  C    1.065654
    20  H   -0.912699
    21  C    0.042551
    22  C    1.064894
    23  H   -0.912797
    24  C    0.040183
    25  C    0.838052
    26  H   -0.913074
    27  C    0.838380
    28  H   -0.670908
    29  H   -0.671435
    30  H   -0.671022
    31  C    1.065841
    32  C    0.838105
    33  C    0.040993
    34  C    1.063988
    35  H   -0.913053
    36  C    0.041161
    37  C    1.065590
    38  H   -0.912571
    39  C    0.042478
    40  C    0.838702
    41  H   -0.912593
    42  C    0.839121
    43  H   -0.671261
    44  H   -0.670916
    45  H   -0.671164
    46  C    1.065443
    47  C    0.838782
    48  C    0.043658
    49  C    1.065181
    50  H   -0.912809
    51  C    0.041069
    52  C    1.064330
    53  H   -0.913431
    54  C    0.041543
    55  C    0.838488
    56  H   -0.912668
    57  C    0.837699
    58  H   -0.670883
    59  H   -0.671057
    60  H   -0.670729
    61  C    0.669513
    62  C    0.670014
    63  N   -0.649557
    64  N   -0.649760
    65  H   -0.122155
    66  H   -0.259761
    67  H   -0.121923
    68  H   -0.259878
    69  C    0.670101
    70  C    0.670039
    71  N   -0.649365
    72  N   -0.649349
    73  H   -0.122008
    74  H   -0.259626
    75  H   -0.122219
    76  H   -0.259328
    77  C    0.669418
    78  C    0.669531
    79  N   -0.649999
    80  N   -0.649974
    81  H   -0.121890
    82  H   -0.259656
    83  H   -0.121875
    84  H   -0.259705
    85  C    0.669610
    86  C    0.669506
    87  N   -0.649733
    88  N   -0.649948
    89  H   -0.121820
    90  H   -0.259724
    91  H   -0.121805
    92  H   -0.259808
    93  C    0.670529
    94  C    0.669993
    95  N   -0.649207
    96  N   -0.649256
    97  H   -0.122153
    98  H   -0.259342
    99  H   -0.122149
   100  H   -0.259682
   101  C    0.669550
   102  C    0.669536
   103  N   -0.649487
   104  N   -0.649545
   105  H   -0.122074
   106  H   -0.259605
   107  H   -0.122048
   108  H   -0.259668
 Sum of Mulliken charges =   0.00000

 Dipole moment (field-independent basis, Debye):
    X=              0.0003    Y=             -0.0011    Z=              0.0013  Tot=              0.0017
 Quadrupole moment (field-independent basis, Debye-Ang):
   XX=           -343.0437   YY=           -343.0106   ZZ=           -343.0711
   XY=              0.0044   XZ=             -0.0011   YZ=              0.0076

 Normal termination of Gaussian 16 at Wed Nov 10 08:59:29 2021.
