 Gaussian 16, Revision C.01,
 Gaussian 16:  ES64L-G16RevC.01  3-Jul-2019

 ----------------------------------------------------------------------
 #P PBE1PBE/Def2TZVP SP SCF=(YQC,MaxCycle=900) int=(Grid=Superfinegrid)
  EmpiricalDispersion=GD3 SCRF=(PCM,Solvent=Dichloromethane)
 ----------------------------------------------------------------------

 -------------------------
 _4_alde1_6_ami2_1_opt_dcm
 -------------------------
 Symbolic Z-matrix:
 Charge =  0 Multiplicity = 1

                         Standard orientation:
 ---------------------------------------------------------------------
 Center     Atomic      Atomic             Coordinates (Angstroms)
 Number     Number       Type             X           Y           Z
 ---------------------------------------------------------------------
      1          6           0        2.904012   -2.914415   -0.809084
      2          6           0        2.276315   -4.089524   -1.404837
      3          6           0        3.073170   -2.822056    0.572112
      4          6           0        3.705551   -1.721401    1.137238
      5          1           0        2.713348   -3.634207    1.185329
      6          6           0        4.163626   -0.697449    0.308719
      7          6           0        4.002615   -0.774570   -1.069319
      8          1           0        4.658093    0.146139    0.766035
      9          6           0        3.365861   -1.885863   -1.621024
     10          6           0        4.523618    0.286356   -1.925208
     11          1           0        3.256149   -1.930284   -2.693953
     12          6           0        3.909870   -1.659234    2.580793
     13          1           0        4.851982    1.186302   -1.391870
     14          1           0        2.038390   -3.992172   -2.470576
     15          1           0        3.369568   -2.422161    3.153570
     16          6           0       -2.126348   -3.642909   -0.039023
     17          6           0       -1.185749   -4.723915    0.219488
     18          6           0       -2.372779   -3.213374   -1.343083
     19          6           0       -3.296671   -2.206882   -1.595521
     20          1           0       -1.838208   -3.691973   -2.149425
     21          6           0       -3.974257   -1.618974   -0.527794
     22          6           0       -3.741274   -2.036767    0.776757
     23          1           0       -4.692967   -0.843509   -0.745157
     24          6           0       -2.809485   -3.046645    1.014290
     25          6           0       -4.488841   -1.438728    1.878367
     26          1           0       -2.646249   -3.361618    2.033631
     27          6           0       -3.569170   -1.793437   -2.968341
     28          1           0       -5.058724   -0.540966    1.611574
     29          1           0       -0.912488   -4.878557    1.275047
     30          1           0       -2.871325   -2.191252   -3.714477
     31          6           0        0.643165    2.215742   -3.511739
     32          6           0        1.731615    1.593819   -4.252636
     33          6           0        0.898937    3.241418   -2.601716
     34          6           0       -0.141330    3.859798   -1.918895
     35          1           0        1.922347    3.550423   -2.453216
     36          6           0       -1.451285    3.438086   -2.143403
     37          6           0       -1.722873    2.418769   -3.048477
     38          1           0       -2.246207    3.934692   -1.608394
     39          6           0       -0.667941    1.807571   -3.725799
     40          6           0       -3.099120    2.016592   -3.303362
     41          1           0       -0.896812    1.021680   -4.429163
     42          6           0        0.141065    4.956035   -0.997704
     43          1           0       -3.850204    2.408017   -2.599583
     44          1           0        1.470340    0.681810   -4.811756
     45          1           0        1.202297    5.092695   -0.759030
     46          6           0        1.059542    1.753427    3.771852
     47          6           0        2.500458    1.654830    3.959146
     48          6           0        0.214648    0.737840    4.218768
     49          6           0       -1.163330    0.846161    4.073135
     50          1           0        0.656638   -0.125191    4.692644
     51          6           0       -1.698378    1.980411    3.463061
     52          6           0       -0.869548    3.001043    3.012418
     53          1           0       -2.770671    2.051252    3.363563
     54          6           0        0.511109    2.877500    3.165668
     55          6           0       -1.444953    4.195409    2.409897
     56          1           0        1.139764    3.681871    2.815765
     57          6           0       -2.035544   -0.205494    4.577110
     58          1           0       -2.515200    4.135611    2.157495
     59          1           0        3.105411    2.399223    3.418214
     60          1           0       -1.535659   -1.141248    4.872317
     61          6           0        1.471979   -6.330429   -1.224886
     62          6           0        0.166129   -6.513388   -0.411140
     63          7           0        2.070558   -5.125537   -0.719199
     64          6           0        1.146998   -6.360683   -2.721103
     65          6           0        2.438829   -7.467701   -0.871599
     66          7           0       -0.744518   -5.457531   -0.705951
     67          1           0        0.414880   -6.569682    0.660850
     68          1           0       -0.302076   -7.451787   -0.723305
     69          1           0        3.351461   -7.368111   -1.454681
     70          1           0        1.986251   -8.432617   -1.085180
     71          1           0        2.698178   -7.419373    0.182504
     72          1           0        0.391754   -5.615611   -2.956041
     73          1           0        0.756773   -7.340248   -2.983930
     74          1           0        2.042415   -6.175704   -3.311601
     75          6           0        5.112373    1.111261   -4.087028
     76          6           0        3.925963    1.457347   -5.021886
     77          7           0        4.601675    0.127442   -3.171969
     78          6           0        5.667493    2.399233   -3.472063
     79          6           0        6.199990    0.406776   -4.907850
     80          7           0        2.889232    2.092318   -4.278350
     81          1           0        3.583409    0.537891   -5.523561
     82          1           0        4.279286    2.169689   -5.773406
     83          1           0        7.052000    0.180810   -4.270856
     84          1           0        6.529188    1.040412   -5.727336
     85          1           0        5.814845   -0.526499   -5.309460
     86          1           0        6.071349    3.028463   -4.260725
     87          1           0        6.465526    2.174321   -2.766942
     88          1           0        4.875354    2.946118   -2.967854
     89          6           0        4.946175   -0.674320    4.492780
     90          6           0        4.428954    0.732978    4.884309
     91          7           0        4.679283   -0.799791    3.085876
     92          6           0        4.308951   -1.722827    5.409320
     93          6           0        6.472535   -0.700298    4.642184
     94          7           0        3.014444    0.793181    4.722192
     95          1           0        4.955499    1.490592    4.281938
     96          1           0        4.648937    0.895708    5.943609
     97          1           0        6.759787   -0.454034    5.661169
     98          1           0        6.923609    0.015268    3.960178
     99          1           0        6.848376   -1.691157    4.398138
    100          1           0        4.611147   -2.725511    5.112620
    101          1           0        3.225801   -1.641182    5.376914
    102          1           0        4.636085   -1.552434    6.431447
    103          6           0       -4.903070   -0.610643   -4.555791
    104          6           0       -4.769767    0.932632   -4.511929
    105          7           0       -4.557004   -1.059471   -3.234875
    106          6           0       -4.060923   -1.160403   -5.710620
    107          6           0       -6.379168   -0.975249   -4.758063
    108          7           0       -3.409862    1.297181   -4.290672
    109          1           0       -5.445175    1.331151   -3.737750
    110          1           0       -5.065017    1.328735   -5.488182
    111          1           0       -6.966873   -0.621150   -3.915554
    112          1           0       -6.484938   -2.055721   -4.820769
    113          1           0       -6.759861   -0.528890   -5.673069
    114          1           0       -3.033682   -0.816920   -5.622979
    115          1           0       -4.464625   -0.799449   -6.652797
    116          1           0       -4.085523   -2.248559   -5.718536
    117          6           0       -5.190303   -1.447998    4.160215
    118          6           0       -4.097850   -1.090420    5.199704
    119          7           0       -4.477561   -1.962951    3.023158
    120          6           0       -6.079966   -0.225346    3.917418
    121          6           0       -6.028760   -2.612036    4.702780
    122          7           0       -3.278799   -0.037214    4.699064
    123          1           0       -3.519404   -1.996986    5.440144
    124          1           0       -4.592604   -0.725716    6.104668
    125          1           0       -6.475964   -2.346772    5.657294
    126          1           0       -5.402705   -3.490538    4.832620
    127          1           0       -6.819420   -2.855137    3.996829
    128          1           0       -6.603998    0.025234    4.835829
    129          1           0       -6.817819   -0.435460    3.145342
    130          1           0       -5.473866    0.627430    3.623637
    131          6           0       -0.600603    6.783804    0.346411
    132          6           0       -1.367897    6.389840    1.634068
    133          7           0       -0.788608    5.682678   -0.558093
    134          6           0        0.845202    7.138550    0.705417
    135          6           0       -1.296755    7.989774   -0.296483
    136          7           0       -0.765671    5.240869    2.224156
    137          1           0       -2.429471    6.229520    1.385983
    138          1           0       -1.283272    7.213988    2.348467
    139          1           0       -0.750717    8.298103   -1.184904
    140          1           0       -1.336918    8.822580    0.400793
    141          1           0       -2.307294    7.720439   -0.591137
    142          1           0        0.851434    8.021830    1.338483
    143          1           0        1.421316    7.353427   -0.192643
    144          1           0        1.307897    6.321023    1.251686
 ---------------------------------------------------------------------

 SCF Done:  E(RPBE1PBE) =  -2984.30376929     a.u. after    8 cycles
 SCF Done:  E(RPBE1PBE) =  -2984.30376990     A.U. after    7 cycles

 The electronic state is 1-A.
 Alpha  occ. eigenvalues --  -14.37965 -14.37957 -14.37951 -14.37922 -14.37911
 Alpha  occ. eigenvalues --  -14.37870 -14.37673 -14.37630 -14.37619 -14.37591
 Alpha  occ. eigenvalues --  -14.37588 -14.37580 -10.26794 -10.26788 -10.26781
 Alpha  occ. eigenvalues --  -10.26748 -10.26747 -10.26702 -10.26593 -10.26544
 Alpha  occ. eigenvalues --  -10.26541 -10.26507 -10.26506 -10.26498 -10.26466
 Alpha  occ. eigenvalues --  -10.26445 -10.26429 -10.26428 -10.26421 -10.26401
 Alpha  occ. eigenvalues --  -10.24621 -10.24595 -10.24595 -10.24593 -10.24573
 Alpha  occ. eigenvalues --  -10.24554 -10.24488 -10.24485 -10.24482 -10.24402
 Alpha  occ. eigenvalues --  -10.24399 -10.24334 -10.24310 -10.24243 -10.24240
 Alpha  occ. eigenvalues --  -10.24161 -10.24158 -10.24155 -10.23998 -10.23995
 Alpha  occ. eigenvalues --  -10.23989 -10.23901 -10.23869 -10.23841 -10.23770
 Alpha  occ. eigenvalues --  -10.23744 -10.23707 -10.23621 -10.23617 -10.23611
 Alpha  occ. eigenvalues --  -10.20779 -10.20774 -10.20761 -10.20760 -10.20756
 Alpha  occ. eigenvalues --  -10.20752 -10.20458 -10.20441 -10.20428 -10.20427
 Alpha  occ. eigenvalues --  -10.20423 -10.20408  -0.97728  -0.97606  -0.97592
 Alpha  occ. eigenvalues --   -0.97584  -0.97510  -0.97491  -0.95441  -0.95406
 Alpha  occ. eigenvalues --   -0.95374  -0.95079  -0.95060  -0.95039  -0.90466
 Alpha  occ. eigenvalues --   -0.89934  -0.89893  -0.89854  -0.84006  -0.83997
 Alpha  occ. eigenvalues --   -0.83693  -0.83462  -0.83143  -0.81714  -0.80724
 Alpha  occ. eigenvalues --   -0.80688  -0.80593  -0.79281  -0.78851  -0.78328
 Alpha  occ. eigenvalues --   -0.78167  -0.78140  -0.72837  -0.72530  -0.72233
 Alpha  occ. eigenvalues --   -0.72091  -0.72081  -0.72036  -0.71353  -0.71344
 Alpha  occ. eigenvalues --   -0.71337  -0.71328  -0.71324  -0.71311  -0.68211
 Alpha  occ. eigenvalues --   -0.68153  -0.68133  -0.68054  -0.67738  -0.67309
 Alpha  occ. eigenvalues --   -0.65879  -0.65830  -0.65608  -0.64767  -0.64130
 Alpha  occ. eigenvalues --   -0.62883  -0.60929  -0.60844  -0.60803  -0.59661
 Alpha  occ. eigenvalues --   -0.58916  -0.58080  -0.56359  -0.56283  -0.56186
 Alpha  occ. eigenvalues --   -0.55385  -0.54910  -0.54464  -0.54156  -0.53976
 Alpha  occ. eigenvalues --   -0.53724  -0.53521  -0.53470  -0.53400  -0.52307
 Alpha  occ. eigenvalues --   -0.51842  -0.51566  -0.51397  -0.50878  -0.50825
 Alpha  occ. eigenvalues --   -0.50282  -0.49933  -0.49612  -0.49323  -0.49309
 Alpha  occ. eigenvalues --   -0.49240  -0.48869  -0.48802  -0.48730  -0.48241
 Alpha  occ. eigenvalues --   -0.47825  -0.47823  -0.47763  -0.47741  -0.47720
 Alpha  occ. eigenvalues --   -0.47117  -0.46479  -0.46448  -0.46417  -0.45795
 Alpha  occ. eigenvalues --   -0.45630  -0.45597  -0.45528  -0.45287  -0.45200
 Alpha  occ. eigenvalues --   -0.45083  -0.44866  -0.44807  -0.42480  -0.42454
 Alpha  occ. eigenvalues --   -0.42389  -0.42282  -0.42160  -0.42141  -0.41984
 Alpha  occ. eigenvalues --   -0.41817  -0.41734  -0.41326  -0.40936  -0.40918
 Alpha  occ. eigenvalues --   -0.40849  -0.40792  -0.40771  -0.40571  -0.40016
 Alpha  occ. eigenvalues --   -0.40000  -0.39983  -0.39672  -0.39614  -0.39594
 Alpha  occ. eigenvalues --   -0.39508  -0.39495  -0.39462  -0.39401  -0.39269
 Alpha  occ. eigenvalues --   -0.39061  -0.38346  -0.38329  -0.38235  -0.37907
 Alpha  occ. eigenvalues --   -0.37695  -0.37333  -0.37262  -0.37170  -0.37044
 Alpha  occ. eigenvalues --   -0.36823  -0.36726  -0.36673  -0.36543  -0.36106
 Alpha  occ. eigenvalues --   -0.36005  -0.35995  -0.35937  -0.35677  -0.35344
 Alpha  occ. eigenvalues --   -0.35190  -0.34789  -0.34733  -0.34661  -0.34395
 Alpha  occ. eigenvalues --   -0.34288  -0.34185  -0.33621  -0.33616  -0.30818
 Alpha  occ. eigenvalues --   -0.30806  -0.30792  -0.29730  -0.27439  -0.27338
 Alpha  occ. eigenvalues --   -0.27229  -0.27165  -0.27147  -0.27115  -0.26762
 Alpha  occ. eigenvalues --   -0.26674  -0.26642  -0.26547  -0.26482  -0.26463
 Alpha  occ. eigenvalues --   -0.26182  -0.26118  -0.26035  -0.25769  -0.25745
 Alpha  occ. eigenvalues --   -0.25674  -0.25512  -0.25491
 Alpha virt. eigenvalues --   -0.06252  -0.06203  -0.06148  -0.05842  -0.05770
 Alpha virt. eigenvalues --   -0.05667  -0.05540  -0.05511  -0.02158  -0.02008
 Alpha virt. eigenvalues --   -0.01851  -0.01322   0.04388   0.04430   0.04483

 Mulliken charges:
               1
     1  C    0.337903
     2  C   -0.158848
     3  C   -0.347620
     4  C    0.337193
     5  H    0.119452
     6  C   -0.348675
     7  C    0.337661
     8  H    0.119181
     9  C   -0.348569
    10  C   -0.158309
    11  H    0.119528
    12  C   -0.158222
    13  H    0.104246
    14  H    0.104308
    15  H    0.104333
    16  C    0.343793
    17  C   -0.182891
    18  C   -0.345409
    19  C    0.337169
    20  H    0.146133
    21  C   -0.356985
    22  C    0.338738
    23  H    0.119639
    24  C   -0.339638
    25  C   -0.148288
    26  H    0.121393
    27  C   -0.158875
    28  H    0.104229
    29  H    0.086836
    30  H    0.103760
    31  C    0.344063
    32  C   -0.184566
    33  C   -0.354302
    34  C    0.339340
    35  H    0.145641
    36  C   -0.350208
    37  C    0.347610
    38  H    0.121590
    39  C   -0.336241
    40  C   -0.175931
    41  H    0.148513
    42  C   -0.147147
    43  H    0.087293
    44  H    0.086348
    45  H    0.103913
    46  C    0.349705
    47  C   -0.176658
    48  C   -0.347444
    49  C    0.349492
    50  H    0.148111
    51  C   -0.347890
    52  C    0.350065
    53  H    0.148062
    54  C   -0.348161
    55  C   -0.175972
    56  H    0.147798
    57  C   -0.176624
    58  H    0.086832
    59  H    0.086834
    60  H    0.086941
    61  C    0.156335
    62  C   -0.078337
    63  N   -0.202456
    64  C   -0.436775
    65  C   -0.363508
    66  N   -0.202637
    67  H    0.084872
    68  H    0.126855
    69  H    0.129610
    70  H    0.125155
    71  H    0.127606
    72  H    0.145769
    73  H    0.134679
    74  H    0.136224
    75  C    0.156516
    76  C   -0.078804
    77  N   -0.202463
    78  C   -0.436930
    79  C   -0.363758
    80  N   -0.202149
    81  H    0.085045
    82  H    0.127084
    83  H    0.129650
    84  H    0.125275
    85  H    0.127654
    86  H    0.134881
    87  H    0.136309
    88  H    0.145739
    89  C    0.156860
    90  C   -0.078156
    91  N   -0.202925
    92  C   -0.436763
    93  C   -0.363744
    94  N   -0.202237
    95  H    0.085414
    96  H    0.127109
    97  H    0.125191
    98  H    0.127718
    99  H    0.129701
   100  H    0.136475
   101  H    0.145494
   102  H    0.134914
   103  C    0.157811
   104  C   -0.077980
   105  N   -0.202485
   106  C   -0.437184
   107  C   -0.363729
   108  N   -0.202942
   109  H    0.085476
   110  H    0.126864
   111  H    0.127638
   112  H    0.129614
   113  H    0.125179
   114  H    0.145444
   115  H    0.134910
   116  H    0.136543
   117  C    0.157595
   118  C   -0.077152
   119  N   -0.203189
   120  C   -0.437804
   121  C   -0.363984
   122  N   -0.202363
   123  H    0.085299
   124  H    0.127093
   125  H    0.125424
   126  H    0.127816
   127  H    0.129737
   128  H    0.135050
   129  H    0.136562
   130  H    0.145782
   131  C    0.157835
   132  C   -0.077566
   133  N   -0.202992
   134  C   -0.437786
   135  C   -0.363784
   136  N   -0.202591
   137  H    0.085649
   138  H    0.127000
   139  H    0.129704
   140  H    0.125376
   141  H    0.127903
   142  H    0.135064
   143  H    0.136828
   144  H    0.145671
 Sum of Mulliken charges =   0.00000

 Dipole moment (field-independent basis, Debye):
    X=             -0.1601    Y=              0.4580    Z=              0.1517  Tot=              0.5083
 Quadrupole moment (field-independent basis, Debye-Ang):
   XX=           -409.3979   YY=           -408.4520   ZZ=           -407.5448
   XY=              0.6449   XZ=             -0.0274   YZ=              0.6717

 Normal termination of Gaussian 16 at Mon Oct 18 01:37:55 2021.
