 Gaussian 16, Revision C.01,
 Gaussian 16:  ES64L-G16RevC.01  3-Jul-2019

 ----------------------------------------------------------------------
 #P PBE1PBE/Def2TZVP SP SCF=(YQC,MaxCycle=900) int=(Grid=Superfinegrid)
  EmpiricalDispersion=GD3 SCRF=(PCM,Solvent=Chloroform)
 ----------------------------------------------------------------------

 -------------------------
 _4_alde1_6_ami2_1_opt_cfm
 -------------------------
 Symbolic Z-matrix:
 Charge =  0 Multiplicity = 1

                         Standard orientation:
 ---------------------------------------------------------------------
 Center     Atomic      Atomic             Coordinates (Angstroms)
 Number     Number       Type             X           Y           Z
 ---------------------------------------------------------------------
      1          6           0        2.904012   -2.914415   -0.809084
      2          6           0        2.276315   -4.089524   -1.404837
      3          6           0        3.073170   -2.822056    0.572112
      4          6           0        3.705551   -1.721401    1.137238
      5          1           0        2.713348   -3.634207    1.185329
      6          6           0        4.163626   -0.697449    0.308719
      7          6           0        4.002615   -0.774570   -1.069319
      8          1           0        4.658093    0.146139    0.766035
      9          6           0        3.365861   -1.885863   -1.621024
     10          6           0        4.523618    0.286356   -1.925208
     11          1           0        3.256149   -1.930284   -2.693953
     12          6           0        3.909870   -1.659234    2.580793
     13          1           0        4.851982    1.186302   -1.391870
     14          1           0        2.038390   -3.992172   -2.470576
     15          1           0        3.369568   -2.422161    3.153570
     16          6           0       -2.126348   -3.642909   -0.039023
     17          6           0       -1.185749   -4.723915    0.219488
     18          6           0       -2.372779   -3.213374   -1.343083
     19          6           0       -3.296671   -2.206882   -1.595521
     20          1           0       -1.838208   -3.691973   -2.149425
     21          6           0       -3.974257   -1.618974   -0.527794
     22          6           0       -3.741274   -2.036767    0.776757
     23          1           0       -4.692967   -0.843509   -0.745157
     24          6           0       -2.809485   -3.046645    1.014290
     25          6           0       -4.488841   -1.438728    1.878367
     26          1           0       -2.646249   -3.361618    2.033631
     27          6           0       -3.569170   -1.793437   -2.968341
     28          1           0       -5.058724   -0.540966    1.611574
     29          1           0       -0.912488   -4.878557    1.275047
     30          1           0       -2.871325   -2.191252   -3.714477
     31          6           0        0.643165    2.215742   -3.511739
     32          6           0        1.731615    1.593819   -4.252636
     33          6           0        0.898937    3.241418   -2.601716
     34          6           0       -0.141330    3.859798   -1.918895
     35          1           0        1.922347    3.550423   -2.453216
     36          6           0       -1.451285    3.438086   -2.143403
     37          6           0       -1.722873    2.418769   -3.048477
     38          1           0       -2.246207    3.934692   -1.608394
     39          6           0       -0.667941    1.807571   -3.725799
     40          6           0       -3.099120    2.016592   -3.303362
     41          1           0       -0.896812    1.021680   -4.429163
     42          6           0        0.141065    4.956035   -0.997704
     43          1           0       -3.850204    2.408017   -2.599583
     44          1           0        1.470340    0.681810   -4.811756
     45          1           0        1.202297    5.092695   -0.759030
     46          6           0        1.059542    1.753427    3.771852
     47          6           0        2.500458    1.654830    3.959146
     48          6           0        0.214648    0.737840    4.218768
     49          6           0       -1.163330    0.846161    4.073135
     50          1           0        0.656638   -0.125191    4.692644
     51          6           0       -1.698378    1.980411    3.463061
     52          6           0       -0.869548    3.001043    3.012418
     53          1           0       -2.770671    2.051252    3.363563
     54          6           0        0.511109    2.877500    3.165668
     55          6           0       -1.444953    4.195409    2.409897
     56          1           0        1.139764    3.681871    2.815765
     57          6           0       -2.035544   -0.205494    4.577110
     58          1           0       -2.515200    4.135611    2.157495
     59          1           0        3.105411    2.399223    3.418214
     60          1           0       -1.535659   -1.141248    4.872317
     61          6           0        1.471979   -6.330429   -1.224886
     62          6           0        0.166129   -6.513388   -0.411140
     63          7           0        2.070558   -5.125537   -0.719199
     64          6           0        1.146998   -6.360683   -2.721103
     65          6           0        2.438829   -7.467701   -0.871599
     66          7           0       -0.744518   -5.457531   -0.705951
     67          1           0        0.414880   -6.569682    0.660850
     68          1           0       -0.302076   -7.451787   -0.723305
     69          1           0        3.351461   -7.368111   -1.454681
     70          1           0        1.986251   -8.432617   -1.085180
     71          1           0        2.698178   -7.419373    0.182504
     72          1           0        0.391754   -5.615611   -2.956041
     73          1           0        0.756773   -7.340248   -2.983930
     74          1           0        2.042415   -6.175704   -3.311601
     75          6           0        5.112373    1.111261   -4.087028
     76          6           0        3.925963    1.457347   -5.021886
     77          7           0        4.601675    0.127442   -3.171969
     78          6           0        5.667493    2.399233   -3.472063
     79          6           0        6.199990    0.406776   -4.907850
     80          7           0        2.889232    2.092318   -4.278350
     81          1           0        3.583409    0.537891   -5.523561
     82          1           0        4.279286    2.169689   -5.773406
     83          1           0        7.052000    0.180810   -4.270856
     84          1           0        6.529188    1.040412   -5.727336
     85          1           0        5.814845   -0.526499   -5.309460
     86          1           0        6.071349    3.028463   -4.260725
     87          1           0        6.465526    2.174321   -2.766942
     88          1           0        4.875354    2.946118   -2.967854
     89          6           0        4.946175   -0.674320    4.492780
     90          6           0        4.428954    0.732978    4.884309
     91          7           0        4.679283   -0.799791    3.085876
     92          6           0        4.308951   -1.722827    5.409320
     93          6           0        6.472535   -0.700298    4.642184
     94          7           0        3.014444    0.793181    4.722192
     95          1           0        4.955499    1.490592    4.281938
     96          1           0        4.648937    0.895708    5.943609
     97          1           0        6.759787   -0.454034    5.661169
     98          1           0        6.923609    0.015268    3.960178
     99          1           0        6.848376   -1.691157    4.398138
    100          1           0        4.611147   -2.725511    5.112620
    101          1           0        3.225801   -1.641182    5.376914
    102          1           0        4.636085   -1.552434    6.431447
    103          6           0       -4.903070   -0.610643   -4.555791
    104          6           0       -4.769767    0.932632   -4.511929
    105          7           0       -4.557004   -1.059471   -3.234875
    106          6           0       -4.060923   -1.160403   -5.710620
    107          6           0       -6.379168   -0.975249   -4.758063
    108          7           0       -3.409862    1.297181   -4.290672
    109          1           0       -5.445175    1.331151   -3.737750
    110          1           0       -5.065017    1.328735   -5.488182
    111          1           0       -6.966873   -0.621150   -3.915554
    112          1           0       -6.484938   -2.055721   -4.820769
    113          1           0       -6.759861   -0.528890   -5.673069
    114          1           0       -3.033682   -0.816920   -5.622979
    115          1           0       -4.464625   -0.799449   -6.652797
    116          1           0       -4.085523   -2.248559   -5.718536
    117          6           0       -5.190303   -1.447998    4.160215
    118          6           0       -4.097850   -1.090420    5.199704
    119          7           0       -4.477561   -1.962951    3.023158
    120          6           0       -6.079966   -0.225346    3.917418
    121          6           0       -6.028760   -2.612036    4.702780
    122          7           0       -3.278799   -0.037214    4.699064
    123          1           0       -3.519404   -1.996986    5.440144
    124          1           0       -4.592604   -0.725716    6.104668
    125          1           0       -6.475964   -2.346772    5.657294
    126          1           0       -5.402705   -3.490538    4.832620
    127          1           0       -6.819420   -2.855137    3.996829
    128          1           0       -6.603998    0.025234    4.835829
    129          1           0       -6.817819   -0.435460    3.145342
    130          1           0       -5.473866    0.627430    3.623637
    131          6           0       -0.600603    6.783804    0.346411
    132          6           0       -1.367897    6.389840    1.634068
    133          7           0       -0.788608    5.682678   -0.558093
    134          6           0        0.845202    7.138550    0.705417
    135          6           0       -1.296755    7.989774   -0.296483
    136          7           0       -0.765671    5.240869    2.224156
    137          1           0       -2.429471    6.229520    1.385983
    138          1           0       -1.283272    7.213988    2.348467
    139          1           0       -0.750717    8.298103   -1.184904
    140          1           0       -1.336918    8.822580    0.400793
    141          1           0       -2.307294    7.720439   -0.591137
    142          1           0        0.851434    8.021830    1.338483
    143          1           0        1.421316    7.353427   -0.192643
    144          1           0        1.307897    6.321023    1.251686
 ---------------------------------------------------------------------

 SCF Done:  E(RPBE1PBE) =  -2984.30008250     a.u. after    6 cycles
 SCF Done:  E(RPBE1PBE) =  -2984.30012480     A.U. after    9 cycles

 The electronic state is 1-A.
 Alpha  occ. eigenvalues --  -14.37895 -14.37881 -14.37876 -14.37840 -14.37826
 Alpha  occ. eigenvalues --  -14.37777 -14.37591 -14.37538 -14.37527 -14.37492
 Alpha  occ. eigenvalues --  -14.37486 -14.37475 -10.26745 -10.26732 -10.26726
 Alpha  occ. eigenvalues --  -10.26687 -10.26681 -10.26629 -10.26533 -10.26474
 Alpha  occ. eigenvalues --  -10.26471 -10.26445 -10.26429 -10.26425 -10.26417
 Alpha  occ. eigenvalues --  -10.26414 -10.26397 -10.26396 -10.26384 -10.26361
 Alpha  occ. eigenvalues --  -10.24613 -10.24581 -10.24578 -10.24577 -10.24550
 Alpha  occ. eigenvalues --  -10.24526 -10.24396 -10.24392 -10.24389 -10.24297
 Alpha  occ. eigenvalues --  -10.24295 -10.24230 -10.24194 -10.24127 -10.24124
 Alpha  occ. eigenvalues --  -10.24033 -10.24030 -10.24027 -10.23913 -10.23910
 Alpha  occ. eigenvalues --  -10.23904 -10.23806 -10.23774 -10.23743 -10.23664
 Alpha  occ. eigenvalues --  -10.23634 -10.23597 -10.23501 -10.23496 -10.23490
 Alpha  occ. eigenvalues --  -10.20779 -10.20769 -10.20750 -10.20749 -10.20749
 Alpha  occ. eigenvalues --  -10.20737 -10.20477 -10.20453 -10.20436 -10.20435
 Alpha  occ. eigenvalues --  -10.20428 -10.20408  -0.97657  -0.97538  -0.97518
 Alpha  occ. eigenvalues --   -0.97508  -0.97435  -0.97409  -0.95363  -0.95322
 Alpha  occ. eigenvalues --   -0.95283  -0.95004  -0.94978  -0.94951  -0.90360
 Alpha  occ. eigenvalues --   -0.89837  -0.89785  -0.89735  -0.83942  -0.83931
 Alpha  occ. eigenvalues --   -0.83629  -0.83401  -0.83079  -0.81664  -0.80636
 Alpha  occ. eigenvalues --   -0.80597  -0.80497  -0.79202  -0.78777  -0.78241
 Alpha  occ. eigenvalues --   -0.78079  -0.78048  -0.72799  -0.72481  -0.72173
 Alpha  occ. eigenvalues --   -0.72045  -0.72032  -0.71982  -0.71352  -0.71338
 Alpha  occ. eigenvalues --   -0.71329  -0.71320  -0.71314  -0.71299  -0.68129
 Alpha  occ. eigenvalues --   -0.68068  -0.68039  -0.67976  -0.67665  -0.67240
 Alpha  occ. eigenvalues --   -0.65811  -0.65759  -0.65533  -0.64691  -0.64067
 Alpha  occ. eigenvalues --   -0.62829  -0.60860  -0.60768  -0.60729  -0.59605
 Alpha  occ. eigenvalues --   -0.58854  -0.58012  -0.56309  -0.56233  -0.56130
 Alpha  occ. eigenvalues --   -0.55323  -0.54855  -0.54398  -0.54095  -0.53908
 Alpha  occ. eigenvalues --   -0.53662  -0.53441  -0.53387  -0.53322  -0.52246
 Alpha  occ. eigenvalues --   -0.51783  -0.51509  -0.51346  -0.50840  -0.50784
 Alpha  occ. eigenvalues --   -0.50246  -0.49891  -0.49565  -0.49275  -0.49258
 Alpha  occ. eigenvalues --   -0.49194  -0.48815  -0.48749  -0.48683  -0.48197
 Alpha  occ. eigenvalues --   -0.47791  -0.47787  -0.47722  -0.47700  -0.47682
 Alpha  occ. eigenvalues --   -0.47056  -0.46419  -0.46384  -0.46347  -0.45716
 Alpha  occ. eigenvalues --   -0.45552  -0.45519  -0.45456  -0.45213  -0.45120
 Alpha  occ. eigenvalues --   -0.45005  -0.44786  -0.44734  -0.42422  -0.42388
 Alpha  occ. eigenvalues --   -0.42306  -0.42195  -0.42123  -0.42098  -0.41908
 Alpha  occ. eigenvalues --   -0.41741  -0.41664  -0.41256  -0.40909  -0.40894
 Alpha  occ. eigenvalues --   -0.40819  -0.40772  -0.40747  -0.40542  -0.39977
 Alpha  occ. eigenvalues --   -0.39962  -0.39941  -0.39652  -0.39608  -0.39586
 Alpha  occ. eigenvalues --   -0.39501  -0.39479  -0.39455  -0.39394  -0.39238
 Alpha  occ. eigenvalues --   -0.39024  -0.38295  -0.38277  -0.38175  -0.37842
 Alpha  occ. eigenvalues --   -0.37637  -0.37258  -0.37188  -0.37097  -0.36991
 Alpha  occ. eigenvalues --   -0.36764  -0.36653  -0.36596  -0.36488  -0.36068
 Alpha  occ. eigenvalues --   -0.35953  -0.35941  -0.35877  -0.35644  -0.35300
 Alpha  occ. eigenvalues --   -0.35157  -0.34742  -0.34680  -0.34607  -0.34330
 Alpha  occ. eigenvalues --   -0.34229  -0.34131  -0.33564  -0.33559  -0.30743
 Alpha  occ. eigenvalues --   -0.30724  -0.30701  -0.29658  -0.27367  -0.27257
 Alpha  occ. eigenvalues --   -0.27141  -0.27094  -0.27071  -0.27033  -0.26663
 Alpha  occ. eigenvalues --   -0.26582  -0.26554  -0.26448  -0.26379  -0.26363
 Alpha  occ. eigenvalues --   -0.26078  -0.26013  -0.25924  -0.25668  -0.25639
 Alpha  occ. eigenvalues --   -0.25562  -0.25401  -0.25376
 Alpha virt. eigenvalues --   -0.06153  -0.06102  -0.06039  -0.05738  -0.05664
 Alpha virt. eigenvalues --   -0.05554  -0.05426  -0.05393  -0.02083  -0.01924
 Alpha virt. eigenvalues --   -0.01757  -0.01237   0.04367   0.04412   0.04477

 Mulliken charges:
               1
     1  C    0.340150
     2  C   -0.157540
     3  C   -0.344955
     4  C    0.339217
     5  H    0.117722
     6  C   -0.346106
     7  C    0.339618
     8  H    0.117477
     9  C   -0.345948
    10  C   -0.156855
    11  H    0.117837
    12  C   -0.156929
    13  H    0.100232
    14  H    0.100320
    15  H    0.100384
    16  C    0.346187
    17  C   -0.180995
    18  C   -0.342401
    19  C    0.339182
    20  H    0.143080
    21  C   -0.354466
    22  C    0.340701
    23  H    0.118058
    24  C   -0.336854
    25  C   -0.147096
    26  H    0.119744
    27  C   -0.157654
    28  H    0.100293
    29  H    0.082618
    30  H    0.099760
    31  C    0.346083
    32  C   -0.182716
    33  C   -0.351373
    34  C    0.341271
    35  H    0.142825
    36  C   -0.347486
    37  C    0.350087
    38  H    0.120018
    39  C   -0.333066
    40  C   -0.174188
    41  H    0.145483
    42  C   -0.146110
    43  H    0.083113
    44  H    0.082118
    45  H    0.099900
    46  C    0.351853
    47  C   -0.174923
    48  C   -0.344231
    49  C    0.351453
    50  H    0.145267
    51  C   -0.344747
    52  C    0.352316
    53  H    0.145242
    54  C   -0.345047
    55  C   -0.174387
    56  H    0.144835
    57  C   -0.174931
    58  H    0.082620
    59  H    0.082591
    60  H    0.082793
    61  C    0.153064
    62  C   -0.075362
    63  N   -0.199627
    64  C   -0.432952
    65  C   -0.359754
    66  N   -0.200342
    67  H    0.082491
    68  H    0.124243
    69  H    0.128405
    70  H    0.122727
    71  H    0.127671
    72  H    0.145442
    73  H    0.132405
    74  H    0.134647
    75  C    0.153210
    76  C   -0.075819
    77  N   -0.199665
    78  C   -0.433078
    79  C   -0.360041
    80  N   -0.199780
    81  H    0.082672
    82  H    0.124474
    83  H    0.128474
    84  H    0.122839
    85  H    0.127734
    86  H    0.132591
    87  H    0.134766
    88  H    0.145367
    89  C    0.153508
    90  C   -0.075155
    91  N   -0.200100
    92  C   -0.432990
    93  C   -0.360006
    94  N   -0.199876
    95  H    0.083029
    96  H    0.124542
    97  H    0.122762
    98  H    0.127806
    99  H    0.128550
   100  H    0.134969
   101  H    0.145171
   102  H    0.132657
   103  C    0.154303
   104  C   -0.074969
   105  N   -0.199680
   106  C   -0.433440
   107  C   -0.359970
   108  N   -0.200600
   109  H    0.083092
   110  H    0.124288
   111  H    0.127705
   112  H    0.128456
   113  H    0.122776
   114  H    0.145239
   115  H    0.132670
   116  H    0.135025
   117  C    0.154258
   118  C   -0.074266
   119  N   -0.200354
   120  C   -0.433924
   121  C   -0.360323
   122  N   -0.199987
   123  H    0.082983
   124  H    0.124526
   125  H    0.123013
   126  H    0.127986
   127  H    0.128553
   128  H    0.132807
   129  H    0.135019
   130  H    0.145447
   131  C    0.154298
   132  C   -0.074628
   133  N   -0.200063
   134  C   -0.433962
   135  C   -0.359965
   136  N   -0.200257
   137  H    0.083322
   138  H    0.124447
   139  H    0.128527
   140  H    0.122986
   141  H    0.128028
   142  H    0.132844
   143  H    0.135308
   144  H    0.145372
 Sum of Mulliken charges =   0.00000

 Dipole moment (field-independent basis, Debye):
    X=             -0.1657    Y=              0.4378    Z=              0.1575  Tot=              0.4939
 Quadrupole moment (field-independent basis, Debye-Ang):
   XX=           -410.7636   YY=           -409.9360   ZZ=           -409.1592
   XY=              0.5382   XZ=             -0.0340   YZ=              0.5585

 Normal termination of Gaussian 16 at Mon Oct 18 04:05:38 2021.
