 Gaussian 16, Revision C.01,
 Gaussian 16:  ES64L-G16RevC.01  3-Jul-2019

 ---------------------------------------------------------------------
 #P MP2/aug-cc-pVDZ SP SCF=(YQC,MaxCycle=900) int=(Grid=Superfinegrid)
 ---------------------------------------------------------------------

 -----------------------------
 _4_alde1_6_ami2_1_opt_gas_mp2
 -----------------------------
 Symbolic Z-matrix:
 Charge =  0 Multiplicity = 1

                         Standard orientation:
 ---------------------------------------------------------------------
 Center     Atomic      Atomic             Coordinates (Angstroms)
 Number     Number       Type             X           Y           Z
 ---------------------------------------------------------------------
      1          6           0        2.904012   -2.914415   -0.809084
      2          6           0        2.276315   -4.089524   -1.404837
      3          6           0        3.073170   -2.822056    0.572112
      4          6           0        3.705551   -1.721401    1.137238
      5          1           0        2.713348   -3.634207    1.185329
      6          6           0        4.163626   -0.697449    0.308719
      7          6           0        4.002615   -0.774570   -1.069319
      8          1           0        4.658093    0.146139    0.766035
      9          6           0        3.365861   -1.885863   -1.621024
     10          6           0        4.523618    0.286356   -1.925208
     11          1           0        3.256149   -1.930284   -2.693953
     12          6           0        3.909870   -1.659234    2.580793
     13          1           0        4.851982    1.186302   -1.391870
     14          1           0        2.038390   -3.992172   -2.470576
     15          1           0        3.369568   -2.422161    3.153570
     16          6           0       -2.126348   -3.642909   -0.039023
     17          6           0       -1.185749   -4.723915    0.219488
     18          6           0       -2.372779   -3.213374   -1.343083
     19          6           0       -3.296671   -2.206882   -1.595521
     20          1           0       -1.838208   -3.691973   -2.149425
     21          6           0       -3.974257   -1.618974   -0.527794
     22          6           0       -3.741274   -2.036767    0.776757
     23          1           0       -4.692967   -0.843509   -0.745157
     24          6           0       -2.809485   -3.046645    1.014290
     25          6           0       -4.488841   -1.438728    1.878367
     26          1           0       -2.646249   -3.361618    2.033631
     27          6           0       -3.569170   -1.793437   -2.968341
     28          1           0       -5.058724   -0.540966    1.611574
     29          1           0       -0.912488   -4.878557    1.275047
     30          1           0       -2.871325   -2.191252   -3.714477
     31          6           0        0.643165    2.215742   -3.511739
     32          6           0        1.731615    1.593819   -4.252636
     33          6           0        0.898937    3.241418   -2.601716
     34          6           0       -0.141330    3.859798   -1.918895
     35          1           0        1.922347    3.550423   -2.453216
     36          6           0       -1.451285    3.438086   -2.143403
     37          6           0       -1.722873    2.418769   -3.048477
     38          1           0       -2.246207    3.934692   -1.608394
     39          6           0       -0.667941    1.807571   -3.725799
     40          6           0       -3.099120    2.016592   -3.303362
     41          1           0       -0.896812    1.021680   -4.429163
     42          6           0        0.141065    4.956035   -0.997704
     43          1           0       -3.850204    2.408017   -2.599583
     44          1           0        1.470340    0.681810   -4.811756
     45          1           0        1.202297    5.092695   -0.759030
     46          6           0        1.059542    1.753427    3.771852
     47          6           0        2.500458    1.654830    3.959146
     48          6           0        0.214648    0.737840    4.218768
     49          6           0       -1.163330    0.846161    4.073135
     50          1           0        0.656638   -0.125191    4.692644
     51          6           0       -1.698378    1.980411    3.463061
     52          6           0       -0.869548    3.001043    3.012418
     53          1           0       -2.770671    2.051252    3.363563
     54          6           0        0.511109    2.877500    3.165668
     55          6           0       -1.444953    4.195409    2.409897
     56          1           0        1.139764    3.681871    2.815765
     57          6           0       -2.035544   -0.205494    4.577110
     58          1           0       -2.515200    4.135611    2.157495
     59          1           0        3.105411    2.399223    3.418214
     60          1           0       -1.535659   -1.141248    4.872317
     61          6           0        1.471979   -6.330429   -1.224886
     62          6           0        0.166129   -6.513388   -0.411140
     63          7           0        2.070558   -5.125537   -0.719199
     64          6           0        1.146998   -6.360683   -2.721103
     65          6           0        2.438829   -7.467701   -0.871599
     66          7           0       -0.744518   -5.457531   -0.705951
     67          1           0        0.414880   -6.569682    0.660850
     68          1           0       -0.302076   -7.451787   -0.723305
     69          1           0        3.351461   -7.368111   -1.454681
     70          1           0        1.986251   -8.432617   -1.085180
     71          1           0        2.698178   -7.419373    0.182504
     72          1           0        0.391754   -5.615611   -2.956041
     73          1           0        0.756773   -7.340248   -2.983930
     74          1           0        2.042415   -6.175704   -3.311601
     75          6           0        5.112373    1.111261   -4.087028
     76          6           0        3.925963    1.457347   -5.021886
     77          7           0        4.601675    0.127442   -3.171969
     78          6           0        5.667493    2.399233   -3.472063
     79          6           0        6.199990    0.406776   -4.907850
     80          7           0        2.889232    2.092318   -4.278350
     81          1           0        3.583409    0.537891   -5.523561
     82          1           0        4.279286    2.169689   -5.773406
     83          1           0        7.052000    0.180810   -4.270856
     84          1           0        6.529188    1.040412   -5.727336
     85          1           0        5.814845   -0.526499   -5.309460
     86          1           0        6.071349    3.028463   -4.260725
     87          1           0        6.465526    2.174321   -2.766942
     88          1           0        4.875354    2.946118   -2.967854
     89          6           0        4.946175   -0.674320    4.492780
     90          6           0        4.428954    0.732978    4.884309
     91          7           0        4.679283   -0.799791    3.085876
     92          6           0        4.308951   -1.722827    5.409320
     93          6           0        6.472535   -0.700298    4.642184
     94          7           0        3.014444    0.793181    4.722192
     95          1           0        4.955499    1.490592    4.281938
     96          1           0        4.648937    0.895708    5.943609
     97          1           0        6.759787   -0.454034    5.661169
     98          1           0        6.923609    0.015268    3.960178
     99          1           0        6.848376   -1.691157    4.398138
    100          1           0        4.611147   -2.725511    5.112620
    101          1           0        3.225801   -1.641182    5.376914
    102          1           0        4.636085   -1.552434    6.431447
    103          6           0       -4.903070   -0.610643   -4.555791
    104          6           0       -4.769767    0.932632   -4.511929
    105          7           0       -4.557004   -1.059471   -3.234875
    106          6           0       -4.060923   -1.160403   -5.710620
    107          6           0       -6.379168   -0.975249   -4.758063
    108          7           0       -3.409862    1.297181   -4.290672
    109          1           0       -5.445175    1.331151   -3.737750
    110          1           0       -5.065017    1.328735   -5.488182
    111          1           0       -6.966873   -0.621150   -3.915554
    112          1           0       -6.484938   -2.055721   -4.820769
    113          1           0       -6.759861   -0.528890   -5.673069
    114          1           0       -3.033682   -0.816920   -5.622979
    115          1           0       -4.464625   -0.799449   -6.652797
    116          1           0       -4.085523   -2.248559   -5.718536
    117          6           0       -5.190303   -1.447998    4.160215
    118          6           0       -4.097850   -1.090420    5.199704
    119          7           0       -4.477561   -1.962951    3.023158
    120          6           0       -6.079966   -0.225346    3.917418
    121          6           0       -6.028760   -2.612036    4.702780
    122          7           0       -3.278799   -0.037214    4.699064
    123          1           0       -3.519404   -1.996986    5.440144
    124          1           0       -4.592604   -0.725716    6.104668
    125          1           0       -6.475964   -2.346772    5.657294
    126          1           0       -5.402705   -3.490538    4.832620
    127          1           0       -6.819420   -2.855137    3.996829
    128          1           0       -6.603998    0.025234    4.835829
    129          1           0       -6.817819   -0.435460    3.145342
    130          1           0       -5.473866    0.627430    3.623637
    131          6           0       -0.600603    6.783804    0.346411
    132          6           0       -1.367897    6.389840    1.634068
    133          7           0       -0.788608    5.682678   -0.558093
    134          6           0        0.845202    7.138550    0.705417
    135          6           0       -1.296755    7.989774   -0.296483
    136          7           0       -0.765671    5.240869    2.224156
    137          1           0       -2.429471    6.229520    1.385983
    138          1           0       -1.283272    7.213988    2.348467
    139          1           0       -0.750717    8.298103   -1.184904
    140          1           0       -1.336918    8.822580    0.400793
    141          1           0       -2.307294    7.720439   -0.591137
    142          1           0        0.851434    8.021830    1.338483
    143          1           0        1.421316    7.353427   -0.192643
    144          1           0        1.307897    6.321023    1.251686
 ---------------------------------------------------------------------

 SCF Done:  E(RHF) =  -2967.63204620     a.u. after    7 cycles
 SCF Done:  E(RHF) =  -2967.63211690     A.U. after   28 cycles
 E2 =    -0.1045111339D+02 EUMP2 =    -0.29780832302920D+04

 The electronic state is 1-A.
 Alpha  occ. eigenvalues --  -15.55984 -15.55955 -15.55941 -15.55881 -15.55850
 Alpha  occ. eigenvalues --  -15.55760 -15.55635 -15.55546 -15.55519 -15.55455
 Alpha  occ. eigenvalues --  -15.55442 -15.55416 -11.28575 -11.28543 -11.28529
 Alpha  occ. eigenvalues --  -11.28471 -11.28449 -11.28359 -11.28295 -11.28204
 Alpha  occ. eigenvalues --  -11.28186 -11.28122 -11.28109 -11.28079 -11.26678
 Alpha  occ. eigenvalues --  -11.26628 -11.26587 -11.26578 -11.26547 -11.26501
 Alpha  occ. eigenvalues --  -11.25427 -11.25378 -11.25347 -11.25346 -11.25295
 Alpha  occ. eigenvalues --  -11.25243 -11.25057 -11.25017 -11.25014 -11.24886
 Alpha  occ. eigenvalues --  -11.24833 -11.24813 -11.24808 -11.24807 -11.24765
 Alpha  occ. eigenvalues --  -11.24689 -11.24657 -11.24642 -11.24637 -11.24604
 Alpha  occ. eigenvalues --  -11.24575 -11.24487 -11.24486 -11.24443 -11.24437
 Alpha  occ. eigenvalues --  -11.24434 -11.24396 -11.24286 -11.24283 -11.24230
 Alpha  occ. eigenvalues --  -11.21614 -11.21577 -11.21542 -11.21533 -11.21512
 Alpha  occ. eigenvalues --  -11.21491 -11.21480 -11.21453 -11.21402 -11.21402
 Alpha  occ. eigenvalues --  -11.21377 -11.21327  -1.26224  -1.26067  -1.26025
 Alpha  occ. eigenvalues --   -1.26009  -1.25905  -1.25853  -1.23592  -1.23521
 Alpha  occ. eigenvalues --   -1.23451  -1.23144  -1.23089  -1.23034  -1.17265
 Alpha  occ. eigenvalues --   -1.16668  -1.16573  -1.16480  -1.09218  -1.09197
 Alpha  occ. eigenvalues --   -1.08840  -1.08579  -1.08185  -1.06454  -1.05368
 Alpha  occ. eigenvalues --   -1.05305  -1.05163  -1.03611  -1.03146  -1.02503
 Alpha  occ. eigenvalues --   -1.02307  -1.02257  -0.95219  -0.94869  -0.94540
 Alpha  occ. eigenvalues --   -0.94478  -0.94454  -0.94381  -0.94027  -0.93996
 Alpha  occ. eigenvalues --   -0.93969  -0.93967  -0.93943  -0.93902  -0.89342
 Alpha  occ. eigenvalues --   -0.89255  -0.89203  -0.89103  -0.88654  -0.88013
 Alpha  occ. eigenvalues --   -0.86499  -0.86427  -0.86064  -0.84926  -0.84132
 Alpha  occ. eigenvalues --   -0.82498  -0.80020  -0.79879  -0.79828  -0.78380
 Alpha  occ. eigenvalues --   -0.77373  -0.76168  -0.74775  -0.74657  -0.74530
 Alpha  occ. eigenvalues --   -0.73335  -0.72690  -0.71841  -0.71619  -0.71470
 Alpha  occ. eigenvalues --   -0.71124  -0.70550  -0.70336  -0.70090  -0.68755
 Alpha  occ. eigenvalues --   -0.68208  -0.67902  -0.67678  -0.66743  -0.66718
 Alpha  occ. eigenvalues --   -0.66480  -0.65897  -0.65505  -0.65260  -0.65204
 Alpha  occ. eigenvalues --   -0.65004  -0.64533  -0.64412  -0.64398  -0.63819
 Alpha  occ. eigenvalues --   -0.62632  -0.62600  -0.62527  -0.62456  -0.62443
 Alpha  occ. eigenvalues --   -0.61791  -0.61710  -0.61630  -0.61555  -0.60870
 Alpha  occ. eigenvalues --   -0.60687  -0.60618  -0.60464  -0.60154  -0.60116
 Alpha  occ. eigenvalues --   -0.59912  -0.59649  -0.59504  -0.56354  -0.56235
 Alpha  occ. eigenvalues --   -0.56193  -0.56172  -0.56097  -0.56055  -0.55020
 Alpha  occ. eigenvalues --   -0.54986  -0.54906  -0.54855  -0.54810  -0.54577
 Alpha  occ. eigenvalues --   -0.54217  -0.54188  -0.54132  -0.53730  -0.53649
 Alpha  occ. eigenvalues --   -0.53623  -0.53535  -0.53453  -0.53438  -0.53333
 Alpha  occ. eigenvalues --   -0.53266  -0.53228  -0.53076  -0.52868  -0.52556
 Alpha  occ. eigenvalues --   -0.52313  -0.51942  -0.51906  -0.51713  -0.51264
 Alpha  occ. eigenvalues --   -0.51150  -0.50802  -0.50612  -0.50558  -0.49695
 Alpha  occ. eigenvalues --   -0.49347  -0.49078  -0.49033  -0.48833  -0.48685
 Alpha  occ. eigenvalues --   -0.48269  -0.48112  -0.48074  -0.47880  -0.47619
 Alpha  occ. eigenvalues --   -0.47576  -0.45653  -0.45585  -0.45550  -0.44492
 Alpha  occ. eigenvalues --   -0.44480  -0.44474  -0.43698  -0.43693  -0.40676
 Alpha  occ. eigenvalues --   -0.40497  -0.40327  -0.40270  -0.40208  -0.40133
 Alpha  occ. eigenvalues --   -0.39867  -0.39789  -0.39760  -0.39438  -0.39320
 Alpha  occ. eigenvalues --   -0.39300  -0.39115  -0.39041  -0.39011  -0.38840
 Alpha  occ. eigenvalues --   -0.32206  -0.32176  -0.32063  -0.31973  -0.31882
 Alpha  occ. eigenvalues --   -0.31810  -0.31665  -0.31635
 Alpha virt. eigenvalues --    0.03013   0.03115   0.03168   0.03203   0.03729
 Alpha virt. eigenvalues --    0.03784   0.03885   0.04007   0.04045   0.04621
 Alpha virt. eigenvalues --    0.04718   0.04743   0.04777   0.04825   0.04891

 Mulliken charges:
               1
     1  C    1.139422
     2  C    0.414781
     3  C    0.027364
     4  C    1.225367
     5  H   -1.024554
     6  C   -0.081189
     7  C    1.221426
     8  H   -1.022890
     9  C    0.034554
    10  C    0.430389
    11  H   -1.009711
    12  C    0.380181
    13  H   -0.908748
    14  H   -0.920151
    15  H   -0.904120
    16  C    1.024091
    17  C    0.788075
    18  C    0.192872
    19  C    0.759748
    20  H   -0.894238
    21  C    0.201956
    22  C    0.992697
    23  H   -1.009026
    24  C    0.208708
    25  C    0.506138
    26  H   -1.000009
    27  C    0.470565
    28  H   -0.942892
    29  H   -0.688113
    30  H   -0.926366
    31  C    1.005524
    32  C    0.828890
    33  C    0.010363
    34  C    0.809537
    35  H   -0.891939
    36  C    0.185851
    37  C    0.865419
    38  H   -0.998252
    39  C    0.391582
    40  C    0.787045
    41  H   -0.891284
    42  C    0.499017
    43  H   -0.706202
    44  H   -0.686861
    45  H   -0.931637
    46  C    0.744355
    47  C    0.813564
    48  C    0.223877
    49  C    0.721244
    50  H   -0.885882
    51  C    0.311312
    52  C    0.867138
    53  H   -0.894082
    54  C    0.263538
    55  C    0.835459
    56  H   -0.892774
    57  C    0.820751
    58  H   -0.702567
    59  H   -0.703918
    60  H   -0.700830
    61  C   -3.783422
    62  C    1.512103
    63  N    0.028083
    64  C    1.571562
    65  C    1.798990
    66  N   -0.479694
    67  H   -0.204614
    68  H   -0.226762
    69  H   -0.042275
    70  H   -0.016812
    71  H   -0.044615
    72  H    0.065620
    73  H   -0.148001
    74  H    0.057781
    75  C   -3.820208
    76  C    1.477114
    77  N    0.038586
    78  C    1.577776
    79  C    1.816689
    80  N   -0.492219
    81  H   -0.205833
    82  H   -0.229591
    83  H   -0.043216
    84  H   -0.017139
    85  H   -0.046469
    86  H   -0.146746
    87  H    0.057506
    88  H    0.069551
    89  C   -3.786561
    90  C    1.505545
    91  N    0.040513
    92  C    1.579139
    93  C    1.797813
    94  N   -0.498941
    95  H   -0.195716
    96  H   -0.228027
    97  H   -0.017443
    98  H   -0.048917
    99  H   -0.044067
   100  H    0.053536
   101  H    0.064945
   102  H   -0.146051
   103  C   -3.881146
   104  C    1.573016
   105  N    0.050601
   106  C    1.564427
   107  C    1.786148
   108  N   -0.495791
   109  H   -0.194405
   110  H   -0.221143
   111  H   -0.046615
   112  H   -0.041403
   113  H   -0.017335
   114  H    0.073560
   115  H   -0.143109
   116  H    0.056503
   117  C   -3.769290
   118  C    1.514704
   119  N   -0.003159
   120  C    1.563804
   121  C    1.739453
   122  N   -0.510741
   123  H   -0.193799
   124  H   -0.224908
   125  H   -0.014037
   126  H   -0.045898
   127  H   -0.040651
   128  H   -0.146071
   129  H    0.062476
   130  H    0.074208
   131  C   -3.865817
   132  C    1.518069
   133  N    0.002421
   134  C    1.552646
   135  C    1.770608
   136  N   -0.510810
   137  H   -0.195631
   138  H   -0.223577
   139  H   -0.040336
   140  H   -0.012715
   141  H   -0.046582
   142  H   -0.141331
   143  H    0.062548
   144  H    0.077025
 Sum of Mulliken charges =   0.00000

 Dipole moment (field-independent basis, Debye):
    X=             -0.1703    Y=              0.3365    Z=              0.1658  Tot=              0.4120
 Quadrupole moment (field-independent basis, Debye-Ang):
   XX=           -427.8295   YY=           -427.0939   ZZ=           -426.4989
   XY=              0.2293   XZ=             -0.0235   YZ=              0.2167

 Normal termination of Gaussian 16 at Thu Oct 28 18:00:39 2021.
