 Gaussian 16, Revision C.01,
 Gaussian 16:  ES64L-G16RevC.01  3-Jul-2019

 ----------------------------------------------------------------------
 #P PBE1PBE/Def2TZVP SP SCF=(YQC,MaxCycle=900) int=(Grid=Superfinegrid)
  EmpiricalDispersion=GD3 SCRF=(PCM,Solvent=Chloroform)
 ----------------------------------------------------------------------

 -------------------------
 _4_alde1_6_ami1_1_opt_cfm
 -------------------------
 Symbolic Z-matrix:
 Charge =  0 Multiplicity = 1

                         Standard orientation:
 ---------------------------------------------------------------------
 Center     Atomic      Atomic             Coordinates (Angstroms)
 Number     Number       Type             X           Y           Z
 ---------------------------------------------------------------------
      1          6           0       -1.972401   -3.525283   -1.018609
      2          6           0       -2.879673   -3.959786    0.034870
      3          6           0       -0.651736   -3.972515   -1.044592
      4          6           0        0.200422   -3.604394   -2.078816
      5          1           0       -0.315616   -4.624238   -0.252561
      6          6           0       -0.272978   -2.769320   -3.090333
      7          6           0       -1.586610   -2.316021   -3.077724
      8          1           0        0.400416   -2.500146   -3.889828
      9          6           0       -2.430203   -2.693621   -2.033480
     10          6           0       -2.085268   -1.492232   -4.170655
     11          1           0       -3.449483   -2.338738   -2.044170
     12          6           0        1.559775   -4.125665   -2.125050
     13          1           0       -1.320648   -1.071694   -4.842370
     14          1           0       -3.832728   -3.412524    0.103761
     15          1           0        1.921621   -4.605207   -1.202131
     16          6           0       -1.258743   -1.811529    3.533032
     17          6           0       -1.479042   -3.240742    3.357875
     18          6           0       -2.301811   -0.905665    3.342512
     19          6           0       -2.109264    0.452757    3.562968
     20          1           0       -3.263946   -1.288600    3.037786
     21          6           0       -0.854589    0.908821    3.966404
     22          6           0        0.194119    0.017882    4.160317
     23          1           0       -0.725317    1.966140    4.140715
     24          6           0       -0.014010   -1.342548    3.935206
     25          6           0        1.482831    0.500207    4.638217
     26          1           0        0.809561   -2.020945    4.098497
     27          6           0       -3.222041    1.381286    3.417113
     28          1           0        1.632325    1.590454    4.597772
     29          1           0       -0.572966   -3.865724    3.325815
     30          1           0       -4.113554    0.985647    2.905821
     31          6           0       -2.630668    2.400260   -2.162146
     32          6           0       -3.604121    1.605974   -2.899077
     33          6           0       -1.424189    2.770733   -2.755220
     34          6           0       -0.517896    3.575099   -2.074742
     35          1           0       -1.221782    2.432108   -3.759983
     36          6           0       -0.819256    4.001876   -0.781793
     37          6           0       -2.017647    3.640658   -0.177932
     38          1           0       -0.107464    4.632702   -0.271269
     39          6           0       -2.917288    2.833078   -0.873010
     40          6           0       -2.346343    4.140836    1.150076
     41          1           0       -3.846628    2.569081   -0.391697
     42          6           0        0.711834    4.002937   -2.727572
     43          1           0       -1.515140    4.596037    1.711068
     44          1           0       -4.430699    1.186767   -2.304256
     45          1           0        0.973364    3.469885   -3.655070
     46          6           0        3.926333   -0.490331   -1.306156
     47          6           0        4.007688   -1.399520   -2.441240
     48          6           0        4.044681   -0.972156   -0.002777
     49          6           0        4.023513   -0.100373    1.079223
     50          1           0        4.170853   -2.034433    0.141426
     51          6           0        3.869399    1.266960    0.852567
     52          6           0        3.750344    1.761651   -0.440639
     53          1           0        3.863295    1.930075    1.704233
     54          6           0        3.773396    0.874696   -1.516602
     55          6           0        3.649036    3.196952   -0.666875
     56          1           0        3.687679    1.277273   -2.514450
     57          6           0        4.206792   -0.609941    2.431415
     58          1           0        3.435031    3.809185    0.223148
     59          1           0        3.706466   -0.980683   -3.414196
     60          1           0        4.118803   -1.701332    2.549301
     61          6           0       -3.528525   -5.354347    1.792279
     62          6           0       -2.822504   -5.139922    3.152875
     63          7           0       -2.600094   -4.929012    0.789030
     64          1           0       -4.437653   -4.727341    1.783019
     65          6           0       -3.931129   -6.815704    1.506700
     66          7           0       -2.638956   -3.726647    3.289443
     67          1           0       -1.851329   -5.664226    3.113762
     68          6           0       -3.616007   -5.656145    4.370676
     69          1           0       -4.620258   -7.137056    2.293700
     70          6           0       -2.722214   -7.746254    1.480948
     71          6           0       -4.674947   -6.884109    0.172789
     72          1           0       -3.771843   -6.731602    4.242185
     73          6           0       -4.967517   -4.961323    4.507790
     74          6           0       -2.787917   -5.448574    5.639043
     75          1           0       -4.014963   -6.596663   -0.642780
     76          1           0       -5.533585   -6.215432    0.174165
     77          1           0       -5.029155   -7.896372   -0.008744
     78          1           0       -3.024716   -8.740726    1.159689
     79          1           0       -2.269473   -7.830384    2.465362
     80          1           0       -1.981078   -7.362411    0.785634
     81          1           0       -2.631854   -4.387194    5.818701
     82          1           0       -1.815976   -5.930188    5.549209
     83          1           0       -3.302682   -5.873212    6.497871
     84          1           0       -5.446536   -5.258906    5.438112
     85          1           0       -5.629263   -5.222504    3.686209
     86          1           0       -4.825063   -3.884262    4.514499
     87          6           0       -3.777532   -0.525622   -5.457321
     88          6           0       -4.512994    0.691325   -4.846132
     89          7           0       -3.318357   -1.311551   -4.352265
     90          1           0       -2.929053   -0.141916   -6.051029
     91          6           0       -4.656389   -1.411701   -6.363854
     92          7           0       -3.519927    1.448145   -4.145783
     93          1           0       -5.280843    0.306043   -4.152171
     94          6           0       -5.195913    1.608689   -5.881311
     95          1           0       -5.021393   -0.793893   -7.189984
     96          6           0       -5.844229   -2.000246   -5.608342
     97          6           0       -3.802773   -2.533344   -6.955988
     98          1           0       -5.934141    1.013081   -6.426773
     99          6           0       -4.193997    2.201055   -6.867982
    100          6           0       -5.939592    2.728169   -5.152542
    101          1           0       -4.390543   -3.124394   -7.654605
    102          1           0       -3.440433   -3.188780   -6.167073
    103          1           0       -2.945002   -2.126400   -7.488164
    104          1           0       -6.371720   -2.711787   -6.240127
    105          1           0       -6.545195   -1.224589   -5.311564
    106          1           0       -5.492087   -2.514056   -4.718265
    107          1           0       -5.236568    3.362272   -4.616871
    108          1           0       -6.649729    2.318369   -4.436706
    109          1           0       -6.486448    3.341922   -5.864638
    110          1           0       -4.686593    2.932946   -7.504486
    111          1           0       -3.766043    1.430842   -7.504160
    112          1           0       -3.392115    2.691648   -6.323404
    113          6           0        3.575581   -4.618318   -3.196098
    114          6           0        4.537535   -3.434289   -3.457364
    115          7           0        2.255850   -4.063921   -3.172871
    116          1           0        3.839357   -5.055778   -2.216880
    117          6           0        3.627295   -5.728964   -4.265286
    118          7           0        4.436049   -2.577153   -2.315128
    119          1           0        4.195001   -2.918706   -4.372014
    120          6           0        6.013802   -3.841643   -3.641078
    121          1           0        4.646260   -6.127110   -4.290973
    122          6           0        3.252440   -5.206952   -5.649200
    123          6           0        2.687780   -6.865062   -3.860519
    124          1           0        6.074574   -4.515798   -4.501002
    125          6           0        6.570117   -4.544394   -2.406278
    126          6           0        6.846017   -2.598727   -3.957490
    127          1           0        2.937534   -7.238655   -2.869289
    128          1           0        2.767004   -7.688315   -4.566940
    129          1           0        1.657288   -6.516971   -3.848563
    130          1           0        3.997081   -4.508078   -6.020979
    131          1           0        2.291380   -4.702706   -5.600953
    132          1           0        3.181240   -6.034100   -6.352366
    133          1           0        7.877028   -2.878512   -4.161497
    134          1           0        6.833904   -1.911617   -3.114317
    135          1           0        6.451991   -2.081538   -4.830246
    136          1           0        6.401765   -3.927105   -1.528331
    137          1           0        7.639419   -4.708741   -2.521474
    138          1           0        6.092688   -5.508707   -2.253913
    139          6           0       -4.298063    3.425876    3.757138
    140          6           0       -3.817897    4.620997    2.898783
    141          7           0       -3.173618    2.549115    3.886034
    142          1           0       -5.124823    2.933722    3.215177
    143          6           0       -4.789690    3.811197    5.167410
    144          7           0       -3.520115    4.088610    1.603630
    145          1           0       -2.911745    5.034611    3.375691
    146          6           0       -4.856066    5.751178    2.742837
    147          1           0       -5.632061    4.500721    5.055764
    148          6           0       -3.693297    4.480076    5.991326
    149          6           0       -5.297063    2.560502    5.885617
    150          1           0       -5.094162    6.132273    3.740607
    151          6           0       -6.134736    5.262734    2.068777
    152          6           0       -4.241214    6.895075    1.936145
    153          1           0       -4.481769    1.857324    6.040865
    154          1           0       -6.072124    2.067304    5.302125
    155          1           0       -5.714238    2.826354    6.854299
    156          1           0       -2.809366    3.848664    6.003354
    157          1           0       -4.034021    4.628496    7.013721
    158          1           0       -3.426479    5.449161    5.578077
    159          1           0       -4.935525    7.730409    1.878960
    160          1           0       -4.013240    6.564380    0.925263
    161          1           0       -3.321365    7.245105    2.400786
    162          1           0       -6.793497    6.104406    1.865772
    163          1           0       -6.668533    4.558361    2.701276
    164          1           0       -5.888724    4.774389    1.130009
    165          6           0        3.592805    0.225464    5.600355
    166          6           0        4.697837   -0.382778    4.703225
    167          7           0        2.350072   -0.284571    5.105204
    168          1           0        3.641176    1.323721    5.494844
    169          6           0        3.715662   -0.134885    7.095063
    170          7           0        4.488711    0.153708    3.392435
    171          1           0        4.568863   -1.479582    4.708272
    172          6           0        6.136127   -0.050476    5.150583
    173          1           0        4.679596    0.237581    7.455086
    174          6           0        3.635729   -1.640829    7.327729
    175          6           0        2.613159    0.576841    7.879315
    176          1           0        6.275331   -0.443254    6.162367
    177          6           0        6.401636    1.452006    5.149488
    178          6           0        7.129007   -0.759766    4.229482
    179          1           0        2.652238    1.651611    7.712466
    180          1           0        2.729647    0.391006    8.944684
    181          1           0        1.635275    0.214783    7.569498
    182          1           0        4.498149   -2.150278    6.906260
    183          1           0        2.735083   -2.034133    6.864654
    184          1           0        3.603988   -1.851513    8.394583
    185          1           0        8.146949   -0.594467    4.575243
    186          1           0        7.041680   -0.378102    3.214602
    187          1           0        6.942616   -1.831917    4.212469
    188          1           0        6.148417    1.866541    4.177618
    189          1           0        7.453294    1.644385    5.351132
    190          1           0        5.811981    1.956343    5.910369
    191          6           0        2.589024    5.372209   -2.960770
    192          6           0        3.765306    5.119564   -1.987137
    193          7           0        1.404692    4.952231   -2.274851
    194          1           0        2.762674    4.760178   -3.863547
    195          6           0        2.419102    6.845282   -3.385777
    196          7           0        3.836579    3.701272   -1.805523
    197          1           0        3.530107    5.629886   -1.036459
    198          6           0        5.131934    5.622916   -2.495219
    199          1           0        3.339350    7.161625   -3.886305
    200          6           0        2.152868    7.756839   -2.191548
    201          6           0        1.274271    6.952286   -4.393499
    202          1           0        5.057389    6.703139   -2.653819
    203          6           0        5.540293    4.946422   -3.800479
    204          6           0        6.192683    5.376709   -1.422001
    205          1           0        0.332886    6.671008   -3.926815
    206          1           0        1.446735    6.297368   -5.245398
    207          1           0        1.188554    7.973386   -4.758110
    208          1           0        1.310313    7.375070   -1.621739
    209          1           0        1.918738    8.762112   -2.535375
    210          1           0        3.020243    7.814237   -1.539307
    211          1           0        6.317577    4.309539   -1.252339
    212          1           0        5.907326    5.844818   -0.481883
    213          1           0        7.147994    5.791696   -1.735319
    214          1           0        4.882277    5.234883   -4.615828
    215          1           0        5.498225    3.867394   -3.680877
    216          1           0        6.556031    5.231826   -4.065944
 ---------------------------------------------------------------------

 SCF Done:  E(RPBE1PBE) =  -3927.03335649     a.u. after    6 cycles
 SCF Done:  E(RPBE1PBE) =  -3927.03339594     A.U. after    7 cycles

 The electronic state is 1-A.
 Alpha  occ. eigenvalues --  -14.37531 -14.37530 -14.37529 -14.37528 -14.37528
 Alpha  occ. eigenvalues --  -14.37527 -14.37527 -14.37527 -14.37525 -14.37524
 Alpha  occ. eigenvalues --  -14.37522 -14.37521 -10.26519 -10.26519 -10.26518
 Alpha  occ. eigenvalues --  -10.26517 -10.26516 -10.26516 -10.26516 -10.26515
 Alpha  occ. eigenvalues --  -10.26514 -10.26513 -10.26513 -10.26511 -10.24904
 Alpha  occ. eigenvalues --  -10.24904 -10.24900 -10.24900 -10.24900 -10.24899
 Alpha  occ. eigenvalues --  -10.24882 -10.24882 -10.24878 -10.24878 -10.24878
 Alpha  occ. eigenvalues --  -10.24877 -10.24255 -10.24255 -10.24252 -10.24252
 Alpha  occ. eigenvalues --  -10.24251 -10.24251 -10.24251 -10.24250 -10.24249
 Alpha  occ. eigenvalues --  -10.24249 -10.24246 -10.24246 -10.23762 -10.23762
 Alpha  occ. eigenvalues --  -10.23761 -10.23761 -10.23759 -10.23758 -10.23756
 Alpha  occ. eigenvalues --  -10.23755 -10.23755 -10.23754 -10.23751 -10.23749
 Alpha  occ. eigenvalues --  -10.22515 -10.22514 -10.22514 -10.22513 -10.22512
 Alpha  occ. eigenvalues --  -10.22511 -10.22511 -10.22511 -10.22510 -10.22510
 Alpha  occ. eigenvalues --  -10.22509 -10.22509 -10.20186 -10.20186 -10.20186
 Alpha  occ. eigenvalues --  -10.20185 -10.20184 -10.20183 -10.20182 -10.20182
 Alpha  occ. eigenvalues --  -10.20182 -10.20181 -10.20181 -10.20180 -10.19940
 Alpha  occ. eigenvalues --  -10.19940 -10.19939 -10.19938 -10.19937 -10.19936
 Alpha  occ. eigenvalues --  -10.19936 -10.19936 -10.19936 -10.19934 -10.19931
 Alpha  occ. eigenvalues --  -10.19931  -0.97849  -0.97731  -0.97731  -0.97729
 Alpha  occ. eigenvalues --   -0.97662  -0.97661  -0.95372  -0.95370  -0.95369
 Alpha  occ. eigenvalues --   -0.95035  -0.95032  -0.95031  -0.90456  -0.89890
 Alpha  occ. eigenvalues --   -0.89888  -0.89885  -0.84897  -0.84895  -0.84491
 Alpha  occ. eigenvalues --   -0.84491  -0.84490  -0.83548  -0.82279  -0.82277
 Alpha  occ. eigenvalues --   -0.82276  -0.81666  -0.81664  -0.81663  -0.80001
 Alpha  occ. eigenvalues --   -0.80000  -0.79811  -0.79811  -0.79810  -0.79435
 Alpha  occ. eigenvalues --   -0.79433  -0.79432  -0.75187  -0.74496  -0.74496
 Alpha  occ. eigenvalues --   -0.74495  -0.74151  -0.74150  -0.70383  -0.70382
 Alpha  occ. eigenvalues --   -0.70380  -0.70377  -0.70375  -0.70375  -0.70088
 Alpha  occ. eigenvalues --   -0.70088  -0.70086  -0.70085  -0.70083  -0.70082
 Alpha  occ. eigenvalues --   -0.69210  -0.69209  -0.69207  -0.69108  -0.69106
 Alpha  occ. eigenvalues --   -0.69106  -0.66536  -0.66536  -0.65995  -0.65995
 Alpha  occ. eigenvalues --   -0.65994  -0.64257  -0.63889  -0.63887  -0.63887
 Alpha  occ. eigenvalues --   -0.62519  -0.62517  -0.62515  -0.60034  -0.60033
 Alpha  occ. eigenvalues --   -0.59741  -0.59740  -0.59739  -0.58755  -0.57985
 Alpha  occ. eigenvalues --   -0.57984  -0.57983  -0.56728  -0.56727  -0.56726
 Alpha  occ. eigenvalues --   -0.55676  -0.55675  -0.55675  -0.55072  -0.55071
 Alpha  occ. eigenvalues --   -0.54880  -0.54879  -0.54878  -0.53705  -0.53385
 Alpha  occ. eigenvalues --   -0.53384  -0.53383  -0.51990  -0.51988  -0.51986
 Alpha  occ. eigenvalues --   -0.51520  -0.50878  -0.50877  -0.50876  -0.50230
 Alpha  occ. eigenvalues --   -0.50229  -0.50229  -0.50008  -0.50007  -0.49774
 Alpha  occ. eigenvalues --   -0.49613  -0.49612  -0.49610  -0.48630  -0.48629
 Alpha  occ. eigenvalues --   -0.48236  -0.48127  -0.48127  -0.48126  -0.46866
 Alpha  occ. eigenvalues --   -0.46866  -0.46865  -0.46731  -0.46730  -0.46286
 Alpha  occ. eigenvalues --   -0.46285  -0.46283  -0.45568  -0.44913  -0.44910
 Alpha  occ. eigenvalues --   -0.44909  -0.44806  -0.44804  -0.44803  -0.44715
 Alpha  occ. eigenvalues --   -0.44713  -0.44712  -0.43945  -0.43944  -0.43942
 Alpha  occ. eigenvalues --   -0.43379  -0.43377  -0.43376  -0.43201  -0.43013
 Alpha  occ. eigenvalues --   -0.43012  -0.42926  -0.42926  -0.42925  -0.42568
 Alpha  occ. eigenvalues --   -0.42461  -0.42460  -0.42459  -0.42422  -0.42421
 Alpha  occ. eigenvalues --   -0.41715  -0.41713  -0.41711  -0.41686  -0.40389
 Alpha  occ. eigenvalues --   -0.40387  -0.40387  -0.40319  -0.40318  -0.40317
 Alpha  occ. eigenvalues --   -0.39933  -0.39931  -0.39709  -0.39708  -0.39706
 Alpha  occ. eigenvalues --   -0.39438  -0.39083  -0.39081  -0.39081  -0.39025
 Alpha  occ. eigenvalues --   -0.39023  -0.39023  -0.38720  -0.38719  -0.38479
 Alpha  occ. eigenvalues --   -0.38479  -0.38477  -0.38059  -0.38058  -0.38057
 Alpha  occ. eigenvalues --   -0.38055  -0.38054  -0.37693  -0.37692  -0.37690
 Alpha  occ. eigenvalues --   -0.37663  -0.36664  -0.36555  -0.36555  -0.36554
 Alpha  occ. eigenvalues --   -0.36344  -0.36343  -0.36034  -0.36032  -0.36031
 Alpha  occ. eigenvalues --   -0.34863  -0.34863  -0.34861  -0.34860  -0.34836
 Alpha  occ. eigenvalues --   -0.34835  -0.34720  -0.34718  -0.34716  -0.34691
 Alpha  occ. eigenvalues --   -0.34689  -0.34688  -0.34640  -0.34638  -0.34637
 Alpha  occ. eigenvalues --   -0.34177  -0.34175  -0.34174  -0.34171  -0.34170
 Alpha  occ. eigenvalues --   -0.34170  -0.33801  -0.33800  -0.32949  -0.32859
 Alpha  occ. eigenvalues --   -0.32859  -0.32858  -0.32497  -0.32496  -0.32496
 Alpha  occ. eigenvalues --   -0.32334  -0.32333  -0.32333  -0.31870  -0.31869
 Alpha  occ. eigenvalues --   -0.30117  -0.30114  -0.30112  -0.29168  -0.27326
 Alpha  occ. eigenvalues --   -0.27206  -0.27205  -0.27201  -0.27065  -0.27062
 Alpha  occ. eigenvalues --   -0.26728  -0.26726  -0.26726  -0.26562  -0.26560
 Alpha  occ. eigenvalues --   -0.26559  -0.25887  -0.25885  -0.25884  -0.25585
 Alpha  occ. eigenvalues --   -0.25584  -0.25583  -0.25468  -0.25467
 Alpha virt. eigenvalues --   -0.06083  -0.06082  -0.06081  -0.05636  -0.05635
 Alpha virt. eigenvalues --   -0.05634  -0.05556  -0.05555  -0.01912  -0.01910
 Alpha virt. eigenvalues --   -0.01909  -0.01369   0.03815   0.03817   0.03819

 Mulliken charges:
               1
     1  C    0.368547
     2  C   -0.185266
     3  C   -0.344736
     4  C    0.368523
     5  H    0.127712
     6  C   -0.345322
     7  C    0.368312
     8  H    0.127594
     9  C   -0.345291
    10  C   -0.185200
    11  H    0.127747
    12  C   -0.185390
    13  H    0.086538
    14  H    0.086502
    15  H    0.086455
    16  C    0.368815
    17  C   -0.184846
    18  C   -0.345129
    19  C    0.368180
    20  H    0.127673
    21  C   -0.344747
    22  C    0.368182
    23  H    0.127539
    24  C   -0.345147
    25  C   -0.185087
    26  H    0.127545
    27  C   -0.185391
    28  H    0.086492
    29  H    0.086466
    30  H    0.086667
    31  C    0.368158
    32  C   -0.185040
    33  C   -0.345076
    34  C    0.367841
    35  H    0.127998
    36  C   -0.345231
    37  C    0.368344
    38  H    0.127982
    39  C   -0.344872
    40  C   -0.184895
    41  H    0.127671
    42  C   -0.184934
    43  H    0.086622
    44  H    0.086482
    45  H    0.086348
    46  C    0.368301
    47  C   -0.184957
    48  C   -0.345342
    49  C    0.367823
    50  H    0.127898
    51  C   -0.344928
    52  C    0.368458
    53  H    0.127700
    54  C   -0.345251
    55  C   -0.184996
    56  H    0.127831
    57  C   -0.184690
    58  H    0.086414
    59  H    0.086575
    60  H    0.086542
    61  C    0.094925
    62  C    0.094667
    63  N   -0.249799
    64  H    0.086733
    65  C   -0.019995
    66  N   -0.250106
    67  H    0.086723
    68  C   -0.020031
    69  H    0.090888
    70  C   -0.421957
    71  C   -0.395435
    72  H    0.091028
    73  C   -0.421800
    74  C   -0.395469
    75  H    0.129609
    76  H    0.118355
    77  H    0.128995
    78  H    0.124425
    79  H    0.126755
    80  H    0.134297
    81  H    0.129536
    82  H    0.118397
    83  H    0.129011
    84  H    0.124471
    85  H    0.126711
    86  H    0.134078
    87  C    0.094988
    88  C    0.094565
    89  N   -0.249602
    90  H    0.086740
    91  C   -0.020035
    92  N   -0.249966
    93  H    0.086664
    94  C   -0.020090
    95  H    0.090996
    96  C   -0.421942
    97  C   -0.395383
    98  H    0.090995
    99  C   -0.421970
   100  C   -0.395234
   101  H    0.128991
   102  H    0.129514
   103  H    0.118428
   104  H    0.124474
   105  H    0.126783
   106  H    0.134052
   107  H    0.129514
   108  H    0.118362
   109  H    0.129010
   110  H    0.124495
   111  H    0.126849
   112  H    0.134040
   113  C    0.094891
   114  C    0.095268
   115  N   -0.249748
   116  H    0.086692
   117  C   -0.020051
   118  N   -0.250058
   119  H    0.086747
   120  C   -0.020153
   121  H    0.090952
   122  C   -0.421910
   123  C   -0.395316
   124  H    0.091012
   125  C   -0.421947
   126  C   -0.395354
   127  H    0.118380
   128  H    0.128994
   129  H    0.129528
   130  H    0.126797
   131  H    0.134042
   132  H    0.124455
   133  H    0.128987
   134  H    0.129486
   135  H    0.118424
   136  H    0.134072
   137  H    0.124484
   138  H    0.126774
   139  C    0.094433
   140  C    0.094885
   141  N   -0.249862
   142  H    0.086828
   143  C   -0.019839
   144  N   -0.250019
   145  H    0.086710
   146  C   -0.020143
   147  H    0.091018
   148  C   -0.422025
   149  C   -0.395360
   150  H    0.091014
   151  C   -0.422101
   152  C   -0.395251
   153  H    0.129506
   154  H    0.118426
   155  H    0.129057
   156  H    0.133994
   157  H    0.124518
   158  H    0.126847
   159  H    0.129007
   160  H    0.129504
   161  H    0.118409
   162  H    0.124470
   163  H    0.126835
   164  H    0.134217
   165  C    0.094713
   166  C    0.095054
   167  N   -0.249717
   168  H    0.086674
   169  C   -0.020134
   170  N   -0.250080
   171  H    0.086607
   172  C   -0.020168
   173  H    0.090967
   174  C   -0.421929
   175  C   -0.395261
   176  H    0.090977
   177  C   -0.421839
   178  C   -0.395250
   179  H    0.118353
   180  H    0.128995
   181  H    0.129549
   182  H    0.126841
   183  H    0.134059
   184  H    0.124484
   185  H    0.128980
   186  H    0.129454
   187  H    0.118429
   188  H    0.134054
   189  H    0.124469
   190  H    0.126798
   191  C    0.095406
   192  C    0.094854
   193  N   -0.249644
   194  H    0.086402
   195  C   -0.020185
   196  N   -0.249981
   197  H    0.086757
   198  C   -0.020330
   199  H    0.090926
   200  C   -0.421913
   201  C   -0.395390
   202  H    0.090992
   203  C   -0.421878
   204  C   -0.395149
   205  H    0.129553
   206  H    0.118371
   207  H    0.129001
   208  H    0.134398
   209  H    0.124434
   210  H    0.126636
   211  H    0.129466
   212  H    0.118377
   213  H    0.129006
   214  H    0.126902
   215  H    0.133944
   216  H    0.124480
 Sum of Mulliken charges =  -0.00000

 Dipole moment (field-independent basis, Debye):
    X=             -0.0066    Y=             -0.0012    Z=              0.0034  Tot=              0.0075
 Quadrupole moment (field-independent basis, Debye-Ang):
   XX=           -573.4640   YY=           -573.3356   ZZ=           -573.4313
   XY=             -0.0280   XZ=              0.0138   YZ=              0.0116

 Normal termination of Gaussian 16 at Mon Oct 18 09:26:51 2021.
