 Gaussian 16, Revision C.01,
 Gaussian 16:  ES64L-G16RevC.01  3-Jul-2019

 ----------------------------------------------------------------------
 #P PBE1PBE/Def2TZVP SP SCF=(YQC,MaxCycle=900) int=(Grid=Superfinegrid)
  EmpiricalDispersion=GD3 SCRF=(PCM,Solvent=Dichloromethane)
 ----------------------------------------------------------------------

 -------------------------
 _4_alde1_6_ami4_1_opt_dcm
 -------------------------
 Symbolic Z-matrix:
 Charge =  0 Multiplicity = 1

                         Standard orientation:
 ---------------------------------------------------------------------
 Center     Atomic      Atomic             Coordinates (Angstroms)
 Number     Number       Type             X           Y           Z
 ---------------------------------------------------------------------
      1          6           0        1.568266    2.145484   -3.481721
      2          6           0        0.724245    1.874099   -4.636967
      3          6           0        2.668235    1.334750   -3.200886
      4          6           0        3.488103    1.605408   -2.111667
      5          1           0        2.870003    0.501381   -3.856503
      6          6           0        3.197297    2.695358   -1.290896
      7          6           0        2.104892    3.511859   -1.558347
      8          1           0        3.847780    2.891889   -0.452333
      9          6           0        1.291019    3.227942   -2.655161
     10          6           0        1.825670    4.660222   -0.707433
     11          1           0        0.449766    3.875724   -2.849074
     12          6           0        4.646595    0.764942   -1.843301
     13          1           0        2.423406    4.728241    0.214721
     14          1           0       -0.200148    2.468560   -4.703343
     15          1           0        4.720931   -0.153031   -2.446534
     16          6           0       -1.586744   -2.092260   -3.505736
     17          6           0       -0.748698   -1.803276   -4.661050
     18          6           0       -2.685160   -1.285866   -3.206813
     19          6           0       -3.499205   -1.573081   -2.117491
     20          1           0       -2.890209   -0.442615   -3.848500
     21          6           0       -3.204281   -2.675449   -1.314988
     22          6           0       -2.113227   -3.487753   -1.600478
     23          1           0       -3.850224   -2.884831   -0.476081
     24          6           0       -1.305139   -3.187094   -2.697271
     25          6           0       -1.829598   -4.648925   -0.768627
     26          1           0       -0.465009   -3.831894   -2.905441
     27          6           0       -4.656361   -0.736860   -1.830199
     28          1           0       -2.422501   -4.730918    0.155429
     29          1           0        0.175208   -2.396544   -4.741298
     30          1           0       -4.733610    0.190285   -2.418977
     31          6           0       -2.121413    3.477754    1.611671
     32          6           0       -1.847665    4.640179    0.778399
     33          6           0       -1.306138    3.180906    2.704045
     34          6           0       -1.578306    2.084751    3.513985
     35          1           0       -0.468000    3.829673    2.907864
     36          6           0       -2.674476    1.273141    3.220822
     37          6           0       -3.495499    1.556519    2.135846
     38          1           0       -2.872180    0.428880    3.863553
     39          6           0       -3.209960    2.660215    1.331764
     40          6           0       -4.650154    0.714782    1.854611
     41          1           0       -3.861397    2.866490    0.496249
     42          6           0       -0.732898    1.799655    4.665007
     43          1           0       -4.720122   -0.212668    2.443799
     44          1           0       -2.445762    4.719412   -0.142570
     45          1           0        0.188606    2.397433    4.740470
     46          6           0        3.506663   -1.588727    2.093387
     47          6           0        4.659842   -0.742761    1.818982
     48          6           0        3.216867   -2.680092    1.274141
     49          6           0        2.129751   -3.501869    1.547216
     50          1           0        3.863845   -2.873557    0.432226
     51          6           0        1.320262   -3.221832    2.648378
     52          6           0        1.596705   -2.138012    3.473422
     53          1           0        0.483247   -3.873582    2.846641
     54          6           0        2.691404   -1.322032    3.186939
     55          6           0        0.757437   -1.870599    4.633041
     56          1           0        2.892529   -0.487707    3.841423
     57          6           0        1.851597   -4.651484    0.697723
     58          1           0       -0.163802   -2.469473    4.704250
     59          1           0        4.732781    0.175644    2.421819
     60          1           0        2.444837   -4.716574   -0.227545
     61          6           0        0.189063    0.790598   -6.629773
     62          6           0       -0.223979   -0.689602   -6.639996
     63          7           0        1.048322    1.030670   -5.516169
     64          7           0       -1.077390   -0.946520   -5.525633
     65          1           0        0.680114   -1.319259   -6.638684
     66          1           0       -0.800466   -0.879975   -7.550320
     67          1           0       -0.715064    1.420183   -6.614165
     68          1           0        0.760747    0.994936   -7.540097
     69          6           0        0.723826    6.639253   -0.158280
     70          6           0       -0.755095    6.632568    0.259532
     71          7           0        0.971954    5.532280   -1.023755
     72          7           0       -0.997994    5.511369    1.107945
     73          1           0       -1.387770    6.629687   -0.642588
     74          1           0       -0.952746    7.538004    0.841307
     75          1           0        1.356439    6.625514    0.743653
     76          1           0        0.917115    7.554417   -0.726258
     77          6           0        6.637111    0.229757   -0.755324
     78          6           0        6.641980   -0.198067    0.720776
     79          7           0        5.519994    1.085371   -0.992435
     80          7           0        5.530275   -1.059072    0.963521
     81          1           0        6.633396    0.699745    1.359363
     82          1           0        7.554059   -0.772254    0.909861
     83          1           0        6.629466   -0.668074   -1.393974
     84          1           0        7.545389    0.808353   -0.949286
     85          6           0       -6.641017   -0.218365   -0.723919
     86          6           0       -6.638094    0.186836    0.758503
     87          7           0       -5.525248   -1.070252   -0.979757
     88          7           0       -5.525041    1.044044    1.008636
     89          1           0       -6.626240   -0.720602    1.383412
     90          1           0       -7.549059    0.758133    0.961160
     91          1           0       -6.636723    0.689133   -1.348805
     92          1           0       -7.550294   -0.793954   -0.921814
     93          6           0       -0.724944   -6.636100   -0.255668
     94          6           0        0.756192   -6.635701    0.154309
     95          7           0       -0.977578   -5.515979   -1.102774
     96          7           0        1.003655   -5.527521    1.018490
     97          1           0        1.384003   -6.618915   -0.750963
     98          1           0        0.956834   -7.549936    0.721214
     99          1           0       -1.352717   -6.636095    0.649765
    100          1           0       -0.921306   -7.542423   -0.836411
    101          6           0       -0.192549    0.688477    6.641019
    102          6           0        0.227493   -0.789792    6.628695
    103          7           0       -1.052978    0.941352    5.531210
    104          7           0        1.082131   -1.025691    5.510551
    105          1           0       -0.673638   -1.423617    6.617744
    106          1           0        0.804972   -0.991347    7.536061
    107          1           0        0.708535    1.322487    6.635082
    108          1           0       -0.765225    0.876138    7.554373
 ---------------------------------------------------------------------

 SCF Done:  E(RPBE1PBE) =  -2512.92638680     a.u. after    6 cycles
 SCF Done:  E(RPBE1PBE) =  -2512.92642223     A.U. after    7 cycles

 The electronic state is 1-A.
 Alpha  occ. eigenvalues --  -14.38145 -14.38145 -14.38145 -14.38145 -14.38145
 Alpha  occ. eigenvalues --  -14.38145 -14.38145 -14.38145 -14.38145 -14.38144
 Alpha  occ. eigenvalues --  -14.38144 -14.38144 -10.26871 -10.26870 -10.26870
 Alpha  occ. eigenvalues --  -10.26870 -10.26870 -10.26870 -10.26870 -10.26870
 Alpha  occ. eigenvalues --  -10.26870 -10.26869 -10.26869 -10.26869 -10.24952
 Alpha  occ. eigenvalues --  -10.24952 -10.24952 -10.24952 -10.24952 -10.24951
 Alpha  occ. eigenvalues --  -10.24929 -10.24929 -10.24929 -10.24929 -10.24929
 Alpha  occ. eigenvalues --  -10.24928 -10.24550 -10.24549 -10.24549 -10.24549
 Alpha  occ. eigenvalues --  -10.24546 -10.24546 -10.24545 -10.24545 -10.24545
 Alpha  occ. eigenvalues --  -10.24545 -10.24545 -10.24545 -10.24056 -10.24056
 Alpha  occ. eigenvalues --  -10.24055 -10.24055 -10.24055 -10.24054 -10.24054
 Alpha  occ. eigenvalues --  -10.24054 -10.24048 -10.24048 -10.24048 -10.24047
 Alpha  occ. eigenvalues --   -0.97668  -0.97527  -0.97527  -0.97526  -0.97440
 Alpha  occ. eigenvalues --   -0.97439  -0.95665  -0.95664  -0.95664  -0.95329
 Alpha  occ. eigenvalues --   -0.95328  -0.95328  -0.90507  -0.90029  -0.90029
 Alpha  occ. eigenvalues --   -0.90028  -0.82650  -0.82649  -0.82134  -0.82133
 Alpha  occ. eigenvalues --   -0.82133  -0.80674  -0.80673  -0.80672  -0.78383
 Alpha  occ. eigenvalues --   -0.76729  -0.76728  -0.76728  -0.76090  -0.76089
 Alpha  occ. eigenvalues --   -0.69969  -0.69968  -0.69967  -0.69931  -0.69929
 Alpha  occ. eigenvalues --   -0.69929  -0.66667  -0.66665  -0.66001  -0.66001
 Alpha  occ. eigenvalues --   -0.66001  -0.63638  -0.62999  -0.62999  -0.62999
 Alpha  occ. eigenvalues --   -0.60921  -0.60920  -0.60920  -0.56807  -0.56807
 Alpha  occ. eigenvalues --   -0.56806  -0.56288  -0.56287  -0.56166  -0.56166
 Alpha  occ. eigenvalues --   -0.56165  -0.54471  -0.53899  -0.53898  -0.53898
 Alpha  occ. eigenvalues --   -0.52568  -0.52568  -0.52567  -0.52383  -0.50726
 Alpha  occ. eigenvalues --   -0.50725  -0.50725  -0.50551  -0.50550  -0.50110
 Alpha  occ. eigenvalues --   -0.50109  -0.50109  -0.49142  -0.49140  -0.49139
 Alpha  occ. eigenvalues --   -0.48665  -0.47052  -0.46860  -0.46858  -0.46676
 Alpha  occ. eigenvalues --   -0.46675  -0.46674  -0.46488  -0.46488  -0.46488
 Alpha  occ. eigenvalues --   -0.45674  -0.45674  -0.45673  -0.45001  -0.44999
 Alpha  occ. eigenvalues --   -0.43958  -0.43957  -0.43956  -0.43915  -0.42408
 Alpha  occ. eigenvalues --   -0.42407  -0.42407  -0.41812  -0.40867  -0.40867
 Alpha  occ. eigenvalues --   -0.40866  -0.40130  -0.40129  -0.40129  -0.39682
 Alpha  occ. eigenvalues --   -0.39681  -0.39364  -0.39364  -0.39363  -0.38646
 Alpha  occ. eigenvalues --   -0.37444  -0.37443  -0.37443  -0.36706  -0.36706
 Alpha  occ. eigenvalues --   -0.36684  -0.36683  -0.36683  -0.35766  -0.35765
 Alpha  occ. eigenvalues --   -0.35765  -0.35425  -0.35424  -0.35424  -0.34824
 Alpha  occ. eigenvalues --   -0.34824  -0.31264  -0.31264  -0.31263  -0.30171
 Alpha  occ. eigenvalues --   -0.27846  -0.27771  -0.27770  -0.27769  -0.27544
 Alpha  occ. eigenvalues --   -0.27543  -0.27463  -0.27462  -0.27462  -0.27323
 Alpha  occ. eigenvalues --   -0.27323  -0.27322  -0.26464  -0.26463  -0.26463
 Alpha  occ. eigenvalues --   -0.25982  -0.25981  -0.25981  -0.25768  -0.25767
 Alpha virt. eigenvalues --   -0.06412  -0.06411  -0.06411  -0.06055  -0.06054
 Alpha virt. eigenvalues --   -0.06054  -0.05827  -0.05826  -0.02265  -0.02264
 Alpha virt. eigenvalues --   -0.02264  -0.01660   0.04794   0.04796   0.04796

 Mulliken charges:
               1
     1  C    0.359672
     2  C   -0.153708
     3  C   -0.355252
     4  C    0.359809
     5  H    0.123397
     6  C   -0.355283
     7  C    0.359709
     8  H    0.123455
     9  C   -0.354977
    10  C   -0.153630
    11  H    0.123396
    12  C   -0.153694
    13  H    0.091118
    14  H    0.091085
    15  H    0.091098
    16  C    0.359771
    17  C   -0.153714
    18  C   -0.355228
    19  C    0.359768
    20  H    0.123399
    21  C   -0.355290
    22  C    0.359621
    23  H    0.123389
    24  C   -0.355003
    25  C   -0.153598
    26  H    0.123441
    27  C   -0.153665
    28  H    0.091124
    29  H    0.091107
    30  H    0.091087
    31  C    0.359635
    32  C   -0.153605
    33  C   -0.354963
    34  C    0.359706
    35  H    0.123468
    36  C   -0.355227
    37  C    0.359803
    38  H    0.123400
    39  C   -0.355259
    40  C   -0.153668
    41  H    0.123401
    42  C   -0.153717
    43  H    0.091109
    44  H    0.091117
    45  H    0.091091
    46  C    0.359818
    47  C   -0.153626
    48  C   -0.355313
    49  C    0.359728
    50  H    0.123422
    51  C   -0.355028
    52  C    0.359710
    53  H    0.123374
    54  C   -0.355291
    55  C   -0.153746
    56  H    0.123426
    57  C   -0.153608
    58  H    0.091072
    59  H    0.091120
    60  H    0.091122
    61  C   -0.071567
    62  C   -0.071541
    63  N   -0.200572
    64  N   -0.200625
    65  H    0.079562
    66  H    0.127229
    67  H    0.079536
    68  H    0.127228
    69  C   -0.071561
    70  C   -0.071596
    71  N   -0.200647
    72  N   -0.200701
    73  H    0.079540
    74  H    0.127242
    75  H    0.079552
    76  H    0.127227
    77  C   -0.071629
    78  C   -0.071566
    79  N   -0.200617
    80  N   -0.200626
    81  H    0.079572
    82  H    0.127226
    83  H    0.079557
    84  H    0.127239
    85  C   -0.071568
    86  C   -0.071625
    87  N   -0.200563
    88  N   -0.200626
    89  H    0.079569
    90  H    0.127229
    91  H    0.079569
    92  H    0.127232
    93  C   -0.071541
    94  C   -0.071615
    95  N   -0.200670
    96  N   -0.200646
    97  H    0.079551
    98  H    0.127231
    99  H    0.079551
   100  H    0.127246
   101  C   -0.071585
   102  C   -0.071536
   103  N   -0.200569
   104  N   -0.200546
   105  H    0.079558
   106  H    0.127227
   107  H    0.079569
   108  H    0.127220
 Sum of Mulliken charges =   0.00000

 Dipole moment (field-independent basis, Debye):
    X=              0.0006    Y=             -0.0008    Z=              0.0013  Tot=              0.0016
 Quadrupole moment (field-independent basis, Debye-Ang):
   XX=           -330.9701   YY=           -330.9393   ZZ=           -331.0013
   XY=              0.0043   XZ=             -0.0010   YZ=              0.0079

 Normal termination of Gaussian 16 at Mon Oct 18 17:43:11 2021.
