 Gaussian 16, Revision C.01,
 Gaussian 16:  ES64L-G16RevC.01  3-Jul-2019

 ----------------------------------------------------------------------
 #P PBE1PBE/Def2TZVP SP SCF=(YQC,MaxCycle=900) int=(Grid=Superfinegrid)
  EmpiricalDispersion=GD3
 ----------------------------------------------------------------------

 -------------------------
 _4_alde1_6_ami4_1_opt_gas
 -------------------------
 Symbolic Z-matrix:
 Charge =  0 Multiplicity = 1

                         Standard orientation:
 ---------------------------------------------------------------------
 Center     Atomic      Atomic             Coordinates (Angstroms)
 Number     Number       Type             X           Y           Z
 ---------------------------------------------------------------------
      1          6           0        1.568266    2.145484   -3.481721
      2          6           0        0.724245    1.874099   -4.636967
      3          6           0        2.668235    1.334750   -3.200886
      4          6           0        3.488103    1.605408   -2.111667
      5          1           0        2.870003    0.501381   -3.856503
      6          6           0        3.197297    2.695358   -1.290896
      7          6           0        2.104892    3.511859   -1.558347
      8          1           0        3.847780    2.891889   -0.452333
      9          6           0        1.291019    3.227942   -2.655161
     10          6           0        1.825670    4.660222   -0.707433
     11          1           0        0.449766    3.875724   -2.849074
     12          6           0        4.646595    0.764942   -1.843301
     13          1           0        2.423406    4.728241    0.214721
     14          1           0       -0.200148    2.468560   -4.703343
     15          1           0        4.720931   -0.153031   -2.446534
     16          6           0       -1.586744   -2.092260   -3.505736
     17          6           0       -0.748698   -1.803276   -4.661050
     18          6           0       -2.685160   -1.285866   -3.206813
     19          6           0       -3.499205   -1.573081   -2.117491
     20          1           0       -2.890209   -0.442615   -3.848500
     21          6           0       -3.204281   -2.675449   -1.314988
     22          6           0       -2.113227   -3.487753   -1.600478
     23          1           0       -3.850224   -2.884831   -0.476081
     24          6           0       -1.305139   -3.187094   -2.697271
     25          6           0       -1.829598   -4.648925   -0.768627
     26          1           0       -0.465009   -3.831894   -2.905441
     27          6           0       -4.656361   -0.736860   -1.830199
     28          1           0       -2.422501   -4.730918    0.155429
     29          1           0        0.175208   -2.396544   -4.741298
     30          1           0       -4.733610    0.190285   -2.418977
     31          6           0       -2.121413    3.477754    1.611671
     32          6           0       -1.847665    4.640179    0.778399
     33          6           0       -1.306138    3.180906    2.704045
     34          6           0       -1.578306    2.084751    3.513985
     35          1           0       -0.468000    3.829673    2.907864
     36          6           0       -2.674476    1.273141    3.220822
     37          6           0       -3.495499    1.556519    2.135846
     38          1           0       -2.872180    0.428880    3.863553
     39          6           0       -3.209960    2.660215    1.331764
     40          6           0       -4.650154    0.714782    1.854611
     41          1           0       -3.861397    2.866490    0.496249
     42          6           0       -0.732898    1.799655    4.665007
     43          1           0       -4.720122   -0.212668    2.443799
     44          1           0       -2.445762    4.719412   -0.142570
     45          1           0        0.188606    2.397433    4.740470
     46          6           0        3.506663   -1.588727    2.093387
     47          6           0        4.659842   -0.742761    1.818982
     48          6           0        3.216867   -2.680092    1.274141
     49          6           0        2.129751   -3.501869    1.547216
     50          1           0        3.863845   -2.873557    0.432226
     51          6           0        1.320262   -3.221832    2.648378
     52          6           0        1.596705   -2.138012    3.473422
     53          1           0        0.483247   -3.873582    2.846641
     54          6           0        2.691404   -1.322032    3.186939
     55          6           0        0.757437   -1.870599    4.633041
     56          1           0        2.892529   -0.487707    3.841423
     57          6           0        1.851597   -4.651484    0.697723
     58          1           0       -0.163802   -2.469473    4.704250
     59          1           0        4.732781    0.175644    2.421819
     60          1           0        2.444837   -4.716574   -0.227545
     61          6           0        0.189063    0.790598   -6.629773
     62          6           0       -0.223979   -0.689602   -6.639996
     63          7           0        1.048322    1.030670   -5.516169
     64          7           0       -1.077390   -0.946520   -5.525633
     65          1           0        0.680114   -1.319259   -6.638684
     66          1           0       -0.800466   -0.879975   -7.550320
     67          1           0       -0.715064    1.420183   -6.614165
     68          1           0        0.760747    0.994936   -7.540097
     69          6           0        0.723826    6.639253   -0.158280
     70          6           0       -0.755095    6.632568    0.259532
     71          7           0        0.971954    5.532280   -1.023755
     72          7           0       -0.997994    5.511369    1.107945
     73          1           0       -1.387770    6.629687   -0.642588
     74          1           0       -0.952746    7.538004    0.841307
     75          1           0        1.356439    6.625514    0.743653
     76          1           0        0.917115    7.554417   -0.726258
     77          6           0        6.637111    0.229757   -0.755324
     78          6           0        6.641980   -0.198067    0.720776
     79          7           0        5.519994    1.085371   -0.992435
     80          7           0        5.530275   -1.059072    0.963521
     81          1           0        6.633396    0.699745    1.359363
     82          1           0        7.554059   -0.772254    0.909861
     83          1           0        6.629466   -0.668074   -1.393974
     84          1           0        7.545389    0.808353   -0.949286
     85          6           0       -6.641017   -0.218365   -0.723919
     86          6           0       -6.638094    0.186836    0.758503
     87          7           0       -5.525248   -1.070252   -0.979757
     88          7           0       -5.525041    1.044044    1.008636
     89          1           0       -6.626240   -0.720602    1.383412
     90          1           0       -7.549059    0.758133    0.961160
     91          1           0       -6.636723    0.689133   -1.348805
     92          1           0       -7.550294   -0.793954   -0.921814
     93          6           0       -0.724944   -6.636100   -0.255668
     94          6           0        0.756192   -6.635701    0.154309
     95          7           0       -0.977578   -5.515979   -1.102774
     96          7           0        1.003655   -5.527521    1.018490
     97          1           0        1.384003   -6.618915   -0.750963
     98          1           0        0.956834   -7.549936    0.721214
     99          1           0       -1.352717   -6.636095    0.649765
    100          1           0       -0.921306   -7.542423   -0.836411
    101          6           0       -0.192549    0.688477    6.641019
    102          6           0        0.227493   -0.789792    6.628695
    103          7           0       -1.052978    0.941352    5.531210
    104          7           0        1.082131   -1.025691    5.510551
    105          1           0       -0.673638   -1.423617    6.617744
    106          1           0        0.804972   -0.991347    7.536061
    107          1           0        0.708535    1.322487    6.635082
    108          1           0       -0.765225    0.876138    7.554373
 ---------------------------------------------------------------------

 SCF Done:  E(RPBE1PBE) =  -2512.90600752     a.u. after    6 cycles
 SCF Done:  E(RPBE1PBE) =  -2512.90603642     A.U. after    8 cycles

 The electronic state is 1-A.
 Alpha  occ. eigenvalues --  -14.37727 -14.37727 -14.37727 -14.37727 -14.37726
 Alpha  occ. eigenvalues --  -14.37726 -14.37726 -14.37726 -14.37726 -14.37725
 Alpha  occ. eigenvalues --  -14.37725 -14.37725 -10.26566 -10.26566 -10.26566
 Alpha  occ. eigenvalues --  -10.26566 -10.26566 -10.26565 -10.26565 -10.26565
 Alpha  occ. eigenvalues --  -10.26564 -10.26564 -10.26564 -10.26564 -10.24921
 Alpha  occ. eigenvalues --  -10.24921 -10.24921 -10.24920 -10.24920 -10.24919
 Alpha  occ. eigenvalues --  -10.24898 -10.24898 -10.24898 -10.24898 -10.24897
 Alpha  occ. eigenvalues --  -10.24896 -10.24071 -10.24071 -10.24071 -10.24070
 Alpha  occ. eigenvalues --  -10.24068 -10.24067 -10.24067 -10.24067 -10.24067
 Alpha  occ. eigenvalues --  -10.24067 -10.24066 -10.24066 -10.23599 -10.23599
 Alpha  occ. eigenvalues --  -10.23599 -10.23599 -10.23598 -10.23598 -10.23598
 Alpha  occ. eigenvalues --  -10.23598 -10.23591 -10.23591 -10.23591 -10.23591
 Alpha  occ. eigenvalues --   -0.97307  -0.97173  -0.97171  -0.97171  -0.97090
 Alpha  occ. eigenvalues --   -0.97088  -0.95270  -0.95269  -0.95268  -0.94945
 Alpha  occ. eigenvalues --   -0.94944  -0.94943  -0.90031  -0.89552  -0.89551
 Alpha  occ. eigenvalues --   -0.89551  -0.82295  -0.82293  -0.81766  -0.81764
 Alpha  occ. eigenvalues --   -0.81764  -0.80225  -0.80225  -0.80224  -0.78174
 Alpha  occ. eigenvalues --   -0.76440  -0.76439  -0.76439  -0.75786  -0.75785
 Alpha  occ. eigenvalues --   -0.69646  -0.69645  -0.69645  -0.69569  -0.69568
 Alpha  occ. eigenvalues --   -0.69567  -0.66284  -0.66282  -0.65650  -0.65650
 Alpha  occ. eigenvalues --   -0.65650  -0.63360  -0.62711  -0.62711  -0.62710
 Alpha  occ. eigenvalues --   -0.60696  -0.60696  -0.60696  -0.56573  -0.56572
 Alpha  occ. eigenvalues --   -0.56572  -0.56024  -0.56022  -0.55932  -0.55932
 Alpha  occ. eigenvalues --   -0.55930  -0.54131  -0.53519  -0.53519  -0.53518
 Alpha  occ. eigenvalues --   -0.52333  -0.52332  -0.52332  -0.52041  -0.50478
 Alpha  occ. eigenvalues --   -0.50477  -0.50476  -0.50362  -0.50360  -0.49862
 Alpha  occ. eigenvalues --   -0.49861  -0.49861  -0.48898  -0.48896  -0.48895
 Alpha  occ. eigenvalues --   -0.48397  -0.46711  -0.46579  -0.46578  -0.46384
 Alpha  occ. eigenvalues --   -0.46383  -0.46382  -0.46186  -0.46186  -0.46185
 Alpha  occ. eigenvalues --   -0.45340  -0.45340  -0.45339  -0.44663  -0.44662
 Alpha  occ. eigenvalues --   -0.43606  -0.43605  -0.43604  -0.43561  -0.41932
 Alpha  occ. eigenvalues --   -0.41932  -0.41931  -0.41349  -0.40596  -0.40595
 Alpha  occ. eigenvalues --   -0.40594  -0.39891  -0.39890  -0.39889  -0.39441
 Alpha  occ. eigenvalues --   -0.39440  -0.39187  -0.39186  -0.39186  -0.38561
 Alpha  occ. eigenvalues --   -0.37021  -0.37021  -0.37020  -0.36400  -0.36400
 Alpha  occ. eigenvalues --   -0.36375  -0.36375  -0.36374  -0.35426  -0.35426
 Alpha  occ. eigenvalues --   -0.35426  -0.35067  -0.35067  -0.35066  -0.34484
 Alpha  occ. eigenvalues --   -0.34484  -0.30866  -0.30866  -0.30866  -0.29828
 Alpha  occ. eigenvalues --   -0.27394  -0.27314  -0.27313  -0.27313  -0.27097
 Alpha  occ. eigenvalues --   -0.27096  -0.27007  -0.27006  -0.27006  -0.26869
 Alpha  occ. eigenvalues --   -0.26868  -0.26868  -0.25945  -0.25945  -0.25944
 Alpha  occ. eigenvalues --   -0.25500  -0.25499  -0.25499  -0.25297  -0.25296
 Alpha virt. eigenvalues --   -0.05923  -0.05922  -0.05921  -0.05578  -0.05577
 Alpha virt. eigenvalues --   -0.05577  -0.05365  -0.05364  -0.01871  -0.01870
 Alpha virt. eigenvalues --   -0.01870  -0.01328   0.04852   0.04853   0.04854

 Mulliken charges:
               1
     1  C    0.366791
     2  C   -0.147241
     3  C   -0.344900
     4  C    0.366975
     5  H    0.117617
     6  C   -0.344939
     7  C    0.366836
     8  H    0.117615
     9  C   -0.344608
    10  C   -0.147209
    11  H    0.117602
    12  C   -0.147241
    13  H    0.068817
    14  H    0.068787
    15  H    0.068807
    16  C    0.366894
    17  C   -0.147251
    18  C   -0.344915
    19  C    0.366929
    20  H    0.117616
    21  C   -0.344983
    22  C    0.366816
    23  H    0.117595
    24  C   -0.344662
    25  C   -0.147143
    26  H    0.117603
    27  C   -0.147194
    28  H    0.068828
    29  H    0.068815
    30  H    0.068802
    31  C    0.366817
    32  C   -0.147157
    33  C   -0.344598
    34  C    0.366810
    35  H    0.117609
    36  C   -0.344905
    37  C    0.366952
    38  H    0.117616
    39  C   -0.344926
    40  C   -0.147208
    41  H    0.117631
    42  C   -0.147264
    43  H    0.068815
    44  H    0.068824
    45  H    0.068800
    46  C    0.366970
    47  C   -0.147175
    48  C   -0.344976
    49  C    0.366872
    50  H    0.117611
    51  C   -0.344667
    52  C    0.366861
    53  H    0.117590
    54  C   -0.344960
    55  C   -0.147268
    56  H    0.117600
    57  C   -0.147179
    58  H    0.068774
    59  H    0.068827
    60  H    0.068818
    61  C   -0.061869
    62  C   -0.061816
    63  N   -0.183767
    64  N   -0.183822
    65  H    0.068331
    66  H    0.116092
    67  H    0.068331
    68  H    0.116093
    69  C   -0.061845
    70  C   -0.061901
    71  N   -0.183839
    72  N   -0.183902
    73  H    0.068333
    74  H    0.116105
    75  H    0.068336
    76  H    0.116094
    77  C   -0.061927
    78  C   -0.061851
    79  N   -0.183814
    80  N   -0.183822
    81  H    0.068344
    82  H    0.116093
    83  H    0.068340
    84  H    0.116107
    85  C   -0.061851
    86  C   -0.061907
    87  N   -0.183775
    88  N   -0.183831
    89  H    0.068349
    90  H    0.116094
    91  H    0.068344
    92  H    0.116095
    93  C   -0.061842
    94  C   -0.061899
    95  N   -0.183874
    96  N   -0.183845
    97  H    0.068344
    98  H    0.116096
    99  H    0.068336
   100  H    0.116106
   101  C   -0.061857
   102  C   -0.061848
   103  N   -0.183768
   104  N   -0.183739
   105  H    0.068348
   106  H    0.116093
   107  H    0.068341
   108  H    0.116087
 Sum of Mulliken charges =   0.00000

 Dipole moment (field-independent basis, Debye):
    X=             -0.0004    Y=             -0.0009    Z=              0.0006  Tot=              0.0012
 Quadrupole moment (field-independent basis, Debye-Ang):
   XX=           -336.3318   YY=           -336.3091   ZZ=           -336.3538
   XY=              0.0022   XZ=             -0.0016   YZ=              0.0033

 Normal termination of Gaussian 16 at Mon Oct 18 08:48:25 2021.
