 Gaussian 16, Revision C.01,
 Gaussian 16:  ES64L-G16RevC.01  3-Jul-2019

 ----------------------------------------------------------------------
 #P PBE1PBE/Def2TZVP SP SCF=(YQC,MaxCycle=900) int=(Grid=Superfinegrid)
  EmpiricalDispersion=GD3
 ----------------------------------------------------------------------

 -------------------------
 _4_alde1_6_ami2_1_opt_gas
 -------------------------
 Symbolic Z-matrix:
 Charge =  0 Multiplicity = 1

                         Standard orientation:
 ---------------------------------------------------------------------
 Center     Atomic      Atomic             Coordinates (Angstroms)
 Number     Number       Type             X           Y           Z
 ---------------------------------------------------------------------
      1          6           0        2.904012   -2.914415   -0.809084
      2          6           0        2.276315   -4.089524   -1.404837
      3          6           0        3.073170   -2.822056    0.572112
      4          6           0        3.705551   -1.721401    1.137238
      5          1           0        2.713348   -3.634207    1.185329
      6          6           0        4.163626   -0.697449    0.308719
      7          6           0        4.002615   -0.774570   -1.069319
      8          1           0        4.658093    0.146139    0.766035
      9          6           0        3.365861   -1.885863   -1.621024
     10          6           0        4.523618    0.286356   -1.925208
     11          1           0        3.256149   -1.930284   -2.693953
     12          6           0        3.909870   -1.659234    2.580793
     13          1           0        4.851982    1.186302   -1.391870
     14          1           0        2.038390   -3.992172   -2.470576
     15          1           0        3.369568   -2.422161    3.153570
     16          6           0       -2.126348   -3.642909   -0.039023
     17          6           0       -1.185749   -4.723915    0.219488
     18          6           0       -2.372779   -3.213374   -1.343083
     19          6           0       -3.296671   -2.206882   -1.595521
     20          1           0       -1.838208   -3.691973   -2.149425
     21          6           0       -3.974257   -1.618974   -0.527794
     22          6           0       -3.741274   -2.036767    0.776757
     23          1           0       -4.692967   -0.843509   -0.745157
     24          6           0       -2.809485   -3.046645    1.014290
     25          6           0       -4.488841   -1.438728    1.878367
     26          1           0       -2.646249   -3.361618    2.033631
     27          6           0       -3.569170   -1.793437   -2.968341
     28          1           0       -5.058724   -0.540966    1.611574
     29          1           0       -0.912488   -4.878557    1.275047
     30          1           0       -2.871325   -2.191252   -3.714477
     31          6           0        0.643165    2.215742   -3.511739
     32          6           0        1.731615    1.593819   -4.252636
     33          6           0        0.898937    3.241418   -2.601716
     34          6           0       -0.141330    3.859798   -1.918895
     35          1           0        1.922347    3.550423   -2.453216
     36          6           0       -1.451285    3.438086   -2.143403
     37          6           0       -1.722873    2.418769   -3.048477
     38          1           0       -2.246207    3.934692   -1.608394
     39          6           0       -0.667941    1.807571   -3.725799
     40          6           0       -3.099120    2.016592   -3.303362
     41          1           0       -0.896812    1.021680   -4.429163
     42          6           0        0.141065    4.956035   -0.997704
     43          1           0       -3.850204    2.408017   -2.599583
     44          1           0        1.470340    0.681810   -4.811756
     45          1           0        1.202297    5.092695   -0.759030
     46          6           0        1.059542    1.753427    3.771852
     47          6           0        2.500458    1.654830    3.959146
     48          6           0        0.214648    0.737840    4.218768
     49          6           0       -1.163330    0.846161    4.073135
     50          1           0        0.656638   -0.125191    4.692644
     51          6           0       -1.698378    1.980411    3.463061
     52          6           0       -0.869548    3.001043    3.012418
     53          1           0       -2.770671    2.051252    3.363563
     54          6           0        0.511109    2.877500    3.165668
     55          6           0       -1.444953    4.195409    2.409897
     56          1           0        1.139764    3.681871    2.815765
     57          6           0       -2.035544   -0.205494    4.577110
     58          1           0       -2.515200    4.135611    2.157495
     59          1           0        3.105411    2.399223    3.418214
     60          1           0       -1.535659   -1.141248    4.872317
     61          6           0        1.471979   -6.330429   -1.224886
     62          6           0        0.166129   -6.513388   -0.411140
     63          7           0        2.070558   -5.125537   -0.719199
     64          6           0        1.146998   -6.360683   -2.721103
     65          6           0        2.438829   -7.467701   -0.871599
     66          7           0       -0.744518   -5.457531   -0.705951
     67          1           0        0.414880   -6.569682    0.660850
     68          1           0       -0.302076   -7.451787   -0.723305
     69          1           0        3.351461   -7.368111   -1.454681
     70          1           0        1.986251   -8.432617   -1.085180
     71          1           0        2.698178   -7.419373    0.182504
     72          1           0        0.391754   -5.615611   -2.956041
     73          1           0        0.756773   -7.340248   -2.983930
     74          1           0        2.042415   -6.175704   -3.311601
     75          6           0        5.112373    1.111261   -4.087028
     76          6           0        3.925963    1.457347   -5.021886
     77          7           0        4.601675    0.127442   -3.171969
     78          6           0        5.667493    2.399233   -3.472063
     79          6           0        6.199990    0.406776   -4.907850
     80          7           0        2.889232    2.092318   -4.278350
     81          1           0        3.583409    0.537891   -5.523561
     82          1           0        4.279286    2.169689   -5.773406
     83          1           0        7.052000    0.180810   -4.270856
     84          1           0        6.529188    1.040412   -5.727336
     85          1           0        5.814845   -0.526499   -5.309460
     86          1           0        6.071349    3.028463   -4.260725
     87          1           0        6.465526    2.174321   -2.766942
     88          1           0        4.875354    2.946118   -2.967854
     89          6           0        4.946175   -0.674320    4.492780
     90          6           0        4.428954    0.732978    4.884309
     91          7           0        4.679283   -0.799791    3.085876
     92          6           0        4.308951   -1.722827    5.409320
     93          6           0        6.472535   -0.700298    4.642184
     94          7           0        3.014444    0.793181    4.722192
     95          1           0        4.955499    1.490592    4.281938
     96          1           0        4.648937    0.895708    5.943609
     97          1           0        6.759787   -0.454034    5.661169
     98          1           0        6.923609    0.015268    3.960178
     99          1           0        6.848376   -1.691157    4.398138
    100          1           0        4.611147   -2.725511    5.112620
    101          1           0        3.225801   -1.641182    5.376914
    102          1           0        4.636085   -1.552434    6.431447
    103          6           0       -4.903070   -0.610643   -4.555791
    104          6           0       -4.769767    0.932632   -4.511929
    105          7           0       -4.557004   -1.059471   -3.234875
    106          6           0       -4.060923   -1.160403   -5.710620
    107          6           0       -6.379168   -0.975249   -4.758063
    108          7           0       -3.409862    1.297181   -4.290672
    109          1           0       -5.445175    1.331151   -3.737750
    110          1           0       -5.065017    1.328735   -5.488182
    111          1           0       -6.966873   -0.621150   -3.915554
    112          1           0       -6.484938   -2.055721   -4.820769
    113          1           0       -6.759861   -0.528890   -5.673069
    114          1           0       -3.033682   -0.816920   -5.622979
    115          1           0       -4.464625   -0.799449   -6.652797
    116          1           0       -4.085523   -2.248559   -5.718536
    117          6           0       -5.190303   -1.447998    4.160215
    118          6           0       -4.097850   -1.090420    5.199704
    119          7           0       -4.477561   -1.962951    3.023158
    120          6           0       -6.079966   -0.225346    3.917418
    121          6           0       -6.028760   -2.612036    4.702780
    122          7           0       -3.278799   -0.037214    4.699064
    123          1           0       -3.519404   -1.996986    5.440144
    124          1           0       -4.592604   -0.725716    6.104668
    125          1           0       -6.475964   -2.346772    5.657294
    126          1           0       -5.402705   -3.490538    4.832620
    127          1           0       -6.819420   -2.855137    3.996829
    128          1           0       -6.603998    0.025234    4.835829
    129          1           0       -6.817819   -0.435460    3.145342
    130          1           0       -5.473866    0.627430    3.623637
    131          6           0       -0.600603    6.783804    0.346411
    132          6           0       -1.367897    6.389840    1.634068
    133          7           0       -0.788608    5.682678   -0.558093
    134          6           0        0.845202    7.138550    0.705417
    135          6           0       -1.296755    7.989774   -0.296483
    136          7           0       -0.765671    5.240869    2.224156
    137          1           0       -2.429471    6.229520    1.385983
    138          1           0       -1.283272    7.213988    2.348467
    139          1           0       -0.750717    8.298103   -1.184904
    140          1           0       -1.336918    8.822580    0.400793
    141          1           0       -2.307294    7.720439   -0.591137
    142          1           0        0.851434    8.021830    1.338483
    143          1           0        1.421316    7.353427   -0.192643
    144          1           0        1.307897    6.321023    1.251686
 ---------------------------------------------------------------------

 SCF Done:  E(RPBE1PBE) =  -2984.28540839     a.u. after    7 cycles
 SCF Done:  E(RPBE1PBE) =  -2984.28541811     A.U. after    8 cycles

 The electronic state is 1-A.
 Alpha  occ. eigenvalues --  -14.37668 -14.37634 -14.37619 -14.37555 -14.37523
 Alpha  occ. eigenvalues --  -14.37422 -14.37312 -14.37212 -14.37187 -14.37117
 Alpha  occ. eigenvalues --  -14.37102 -14.37071 -10.26595 -10.26560 -10.26546
 Alpha  occ. eigenvalues --  -10.26478 -10.26455 -10.26400 -10.26351 -10.26342
 Alpha  occ. eigenvalues --  -10.26333 -10.26296 -10.26286 -10.26254 -10.26228
 Alpha  occ. eigenvalues --  -10.26210 -10.26200 -10.26136 -10.26123 -10.26090
 Alpha  occ. eigenvalues --  -10.24628 -10.24571 -10.24538 -10.24537 -10.24482
 Alpha  occ. eigenvalues --  -10.24421 -10.24093 -10.24084 -10.24082 -10.23936
 Alpha  occ. eigenvalues --  -10.23933 -10.23870 -10.23768 -10.23704 -10.23701
 Alpha  occ. eigenvalues --  -10.23634 -10.23631 -10.23623 -10.23552 -10.23549
 Alpha  occ. eigenvalues --  -10.23540 -10.23474 -10.23442 -10.23401 -10.23273
 Alpha  occ. eigenvalues --  -10.23232 -10.23197 -10.23046 -10.23039 -10.23033
 Alpha  occ. eigenvalues --  -10.20833 -10.20790 -10.20750 -10.20743 -10.20721
 Alpha  occ. eigenvalues --  -10.20684 -10.20572 -10.20526 -10.20476 -10.20472
 Alpha  occ. eigenvalues --  -10.20446 -10.20392  -0.97425  -0.97307  -0.97256
 Alpha  occ. eigenvalues --   -0.97241  -0.97159  -0.97095  -0.95098  -0.95024
 Alpha  occ. eigenvalues --   -0.94951  -0.94742  -0.94681  -0.94619  -0.89993
 Alpha  occ. eigenvalues --   -0.89504  -0.89396  -0.89290  -0.83724  -0.83705
 Alpha  occ. eigenvalues --   -0.83405  -0.83194  -0.82861  -0.81489  -0.80348
 Alpha  occ. eigenvalues --   -0.80287  -0.80158  -0.78916  -0.78527  -0.77928
 Alpha  occ. eigenvalues --   -0.77750  -0.77701  -0.72692  -0.72320  -0.71953
 Alpha  occ. eigenvalues --   -0.71909  -0.71881  -0.71801  -0.71382  -0.71340
 Alpha  occ. eigenvalues --   -0.71311  -0.71306  -0.71278  -0.71232  -0.67845
 Alpha  occ. eigenvalues --   -0.67792  -0.67690  -0.67665  -0.67403  -0.66984
 Alpha  occ. eigenvalues --   -0.65589  -0.65524  -0.65277  -0.64417  -0.63856
 Alpha  occ. eigenvalues --   -0.62659  -0.60623  -0.60493  -0.60450  -0.59421
 Alpha  occ. eigenvalues --   -0.58634  -0.57762  -0.56160  -0.56077  -0.55945
 Alpha  occ. eigenvalues --   -0.55100  -0.54674  -0.54182  -0.53888  -0.53665
 Alpha  occ. eigenvalues --   -0.53438  -0.53175  -0.53094  -0.52994  -0.52048
 Alpha  occ. eigenvalues --   -0.51585  -0.51312  -0.51164  -0.50718  -0.50639
 Alpha  occ. eigenvalues --   -0.50137  -0.49751  -0.49392  -0.49141  -0.49095
 Alpha  occ. eigenvalues --   -0.49039  -0.48602  -0.48567  -0.48521  -0.48048
 Alpha  occ. eigenvalues --   -0.47700  -0.47674  -0.47584  -0.47561  -0.47537
 Alpha  occ. eigenvalues --   -0.46844  -0.46224  -0.46167  -0.46097  -0.45436
 Alpha  occ. eigenvalues --   -0.45279  -0.45252  -0.45204  -0.44946  -0.44833
 Alpha  occ. eigenvalues --   -0.44722  -0.44497  -0.44486  -0.42272  -0.42183
 Alpha  occ. eigenvalues --   -0.42039  -0.42016  -0.41999  -0.41930  -0.41546
 Alpha  occ. eigenvalues --   -0.41451  -0.41410  -0.41010  -0.40854  -0.40816
 Alpha  occ. eigenvalues --   -0.40725  -0.40702  -0.40661  -0.40436  -0.39869
 Alpha  occ. eigenvalues --   -0.39827  -0.39788  -0.39656  -0.39623  -0.39564
 Alpha  occ. eigenvalues --   -0.39497  -0.39459  -0.39404  -0.39374  -0.39132
 Alpha  occ. eigenvalues --   -0.38883  -0.38142  -0.38114  -0.37970  -0.37611
 Alpha  occ. eigenvalues --   -0.37445  -0.37019  -0.36933  -0.36835  -0.36789
 Alpha  occ. eigenvalues --   -0.36567  -0.36405  -0.36294  -0.36266  -0.35938
 Alpha  occ. eigenvalues --   -0.35795  -0.35765  -0.35676  -0.35532  -0.35138
 Alpha  occ. eigenvalues --   -0.35047  -0.34575  -0.34479  -0.34401  -0.34094
 Alpha  occ. eigenvalues --   -0.34019  -0.33937  -0.33362  -0.33357  -0.30489
 Alpha  occ. eigenvalues --   -0.30428  -0.30362  -0.29400  -0.27117  -0.26961
 Alpha  occ. eigenvalues --   -0.26855  -0.26836  -0.26767  -0.26728  -0.26281
 Alpha  occ. eigenvalues --   -0.26253  -0.26234  -0.26084  -0.25991  -0.25965
 Alpha  occ. eigenvalues --   -0.25718  -0.25645  -0.25519  -0.25319  -0.25247
 Alpha  occ. eigenvalues --   -0.25151  -0.24982  -0.24941
 Alpha virt. eigenvalues --   -0.05821  -0.05759  -0.05651  -0.05377  -0.05281
 Alpha virt. eigenvalues --   -0.05145  -0.05000  -0.04954  -0.01837  -0.01633
 Alpha virt. eigenvalues --   -0.01416  -0.00927   0.04219   0.04293   0.04359

 Mulliken charges:
               1
     1  C    0.347302
     2  C   -0.153747
     3  C   -0.334047
     4  C    0.346447
     5  H    0.111554
     6  C   -0.335509
     7  C    0.347326
     8  H    0.111202
     9  C   -0.334998
    10  C   -0.153239
    11  H    0.111442
    12  C   -0.153255
    13  H    0.084862
    14  H    0.085137
    15  H    0.085130
    16  C    0.354368
    17  C   -0.174733
    18  C   -0.330001
    19  C    0.345144
    20  H    0.132153
    21  C   -0.343651
    22  C    0.348069
    23  H    0.112029
    24  C   -0.325490
    25  C   -0.144196
    26  H    0.113481
    27  C   -0.154414
    28  H    0.085254
    29  H    0.065207
    30  H    0.084662
    31  C    0.353448
    32  C   -0.176944
    33  C   -0.339525
    34  C    0.346813
    35  H    0.132671
    36  C   -0.336262
    37  C    0.358107
    38  H    0.114039
    39  C   -0.319897
    40  C   -0.168217
    41  H    0.134193
    42  C   -0.143215
    43  H    0.065727
    44  H    0.065036
    45  H    0.084946
    46  C    0.358822
    47  C   -0.168922
    48  C   -0.331386
    49  C    0.358451
    50  H    0.134835
    51  C   -0.332059
    52  C    0.358725
    53  H    0.134545
    54  C   -0.332425
    55  C   -0.168891
    56  H    0.134354
    57  C   -0.169093
    58  H    0.065392
    59  H    0.065362
    60  H    0.065621
    61  C    0.139947
    62  C   -0.062814
    63  N   -0.187522
    64  C   -0.415950
    65  C   -0.343238
    66  N   -0.188786
    67  H    0.073172
    68  H    0.112766
    69  H    0.122450
    70  H    0.112680
    71  H    0.127349
    72  H    0.145390
    73  H    0.122403
    74  H    0.127313
    75  C    0.139733
    76  C   -0.063244
    77  N   -0.187579
    78  C   -0.416107
    79  C   -0.343383
    80  N   -0.188344
    81  H    0.073539
    82  H    0.113063
    83  H    0.122556
    84  H    0.112756
    85  H    0.127618
    86  H    0.122598
    87  H    0.127562
    88  H    0.145092
    89  C    0.139550
    90  C   -0.062174
    91  N   -0.187817
    92  C   -0.416297
    93  C   -0.343303
    94  N   -0.188482
    95  H    0.073704
    96  H    0.113148
    97  H    0.112737
    98  H    0.127606
    99  H    0.122693
   100  H    0.127901
   101  H    0.145023
   102  H    0.122693
   103  C    0.139781
   104  C   -0.061909
   105  N   -0.187336
   106  C   -0.416766
   107  C   -0.343013
   108  N   -0.189110
   109  H    0.073613
   110  H    0.112891
   111  H    0.127423
   112  H    0.122609
   113  H    0.112806
   114  H    0.145482
   115  H    0.122740
   116  H    0.128015
   117  C    0.140328
   118  C   -0.062021
   119  N   -0.187901
   120  C   -0.416884
   121  C   -0.343566
   122  N   -0.188644
   123  H    0.073841
   124  H    0.113261
   125  H    0.112981
   126  H    0.128036
   127  H    0.122674
   128  H    0.122890
   129  H    0.127828
   130  H    0.145266
   131  C    0.140345
   132  C   -0.061989
   133  N   -0.187694
   134  C   -0.417575
   135  C   -0.343364
   136  N   -0.188794
   137  H    0.073975
   138  H    0.113259
   139  H    0.122737
   140  H    0.113113
   141  H    0.127936
   142  H    0.123102
   143  H    0.128278
   144  H    0.145616
 Sum of Mulliken charges =   0.00000

 Dipole moment (field-independent basis, Debye):
    X=             -0.1623    Y=              0.3593    Z=              0.1568  Tot=              0.4243
 Quadrupole moment (field-independent basis, Debye-Ang):
   XX=           -415.8824   YY=           -415.2836   ZZ=           -414.8594
   XY=              0.2993   XZ=             -0.0281   YZ=              0.2709

 Normal termination of Gaussian 16 at Sun Oct 17 23:35:42 2021.
