 Gaussian 16, Revision C.01,
 Gaussian 16:  ES64L-G16RevC.01  3-Jul-2019

 ---------------------------------------------------------------------
 #P MP2/aug-cc-pVDZ SP SCF=(YQC,MaxCycle=900) int=(Grid=Superfinegrid)
 ---------------------------------------------------------------------

 -----------------------------
 _4_alde1_6_ami4_1_opt_gas_mp2
 -----------------------------
 Symbolic Z-matrix:
 Charge =  0 Multiplicity = 1

                         Standard orientation:
 ---------------------------------------------------------------------
 Center     Atomic      Atomic             Coordinates (Angstroms)
 Number     Number       Type             X           Y           Z
 ---------------------------------------------------------------------
      1          6           0        1.568266    2.145484   -3.481721
      2          6           0        0.724245    1.874099   -4.636967
      3          6           0        2.668235    1.334750   -3.200886
      4          6           0        3.488103    1.605408   -2.111667
      5          1           0        2.870003    0.501381   -3.856503
      6          6           0        3.197297    2.695358   -1.290896
      7          6           0        2.104892    3.511859   -1.558347
      8          1           0        3.847780    2.891889   -0.452333
      9          6           0        1.291019    3.227942   -2.655161
     10          6           0        1.825670    4.660222   -0.707433
     11          1           0        0.449766    3.875724   -2.849074
     12          6           0        4.646595    0.764942   -1.843301
     13          1           0        2.423406    4.728241    0.214721
     14          1           0       -0.200148    2.468560   -4.703343
     15          1           0        4.720931   -0.153031   -2.446534
     16          6           0       -1.586744   -2.092260   -3.505736
     17          6           0       -0.748698   -1.803276   -4.661050
     18          6           0       -2.685160   -1.285866   -3.206813
     19          6           0       -3.499205   -1.573081   -2.117491
     20          1           0       -2.890209   -0.442615   -3.848500
     21          6           0       -3.204281   -2.675449   -1.314988
     22          6           0       -2.113227   -3.487753   -1.600478
     23          1           0       -3.850224   -2.884831   -0.476081
     24          6           0       -1.305139   -3.187094   -2.697271
     25          6           0       -1.829598   -4.648925   -0.768627
     26          1           0       -0.465009   -3.831894   -2.905441
     27          6           0       -4.656361   -0.736860   -1.830199
     28          1           0       -2.422501   -4.730918    0.155429
     29          1           0        0.175208   -2.396544   -4.741298
     30          1           0       -4.733610    0.190285   -2.418977
     31          6           0       -2.121413    3.477754    1.611671
     32          6           0       -1.847665    4.640179    0.778399
     33          6           0       -1.306138    3.180906    2.704045
     34          6           0       -1.578306    2.084751    3.513985
     35          1           0       -0.468000    3.829673    2.907864
     36          6           0       -2.674476    1.273141    3.220822
     37          6           0       -3.495499    1.556519    2.135846
     38          1           0       -2.872180    0.428880    3.863553
     39          6           0       -3.209960    2.660215    1.331764
     40          6           0       -4.650154    0.714782    1.854611
     41          1           0       -3.861397    2.866490    0.496249
     42          6           0       -0.732898    1.799655    4.665007
     43          1           0       -4.720122   -0.212668    2.443799
     44          1           0       -2.445762    4.719412   -0.142570
     45          1           0        0.188606    2.397433    4.740470
     46          6           0        3.506663   -1.588727    2.093387
     47          6           0        4.659842   -0.742761    1.818982
     48          6           0        3.216867   -2.680092    1.274141
     49          6           0        2.129751   -3.501869    1.547216
     50          1           0        3.863845   -2.873557    0.432226
     51          6           0        1.320262   -3.221832    2.648378
     52          6           0        1.596705   -2.138012    3.473422
     53          1           0        0.483247   -3.873582    2.846641
     54          6           0        2.691404   -1.322032    3.186939
     55          6           0        0.757437   -1.870599    4.633041
     56          1           0        2.892529   -0.487707    3.841423
     57          6           0        1.851597   -4.651484    0.697723
     58          1           0       -0.163802   -2.469473    4.704250
     59          1           0        4.732781    0.175644    2.421819
     60          1           0        2.444837   -4.716574   -0.227545
     61          6           0        0.189063    0.790598   -6.629773
     62          6           0       -0.223979   -0.689602   -6.639996
     63          7           0        1.048322    1.030670   -5.516169
     64          7           0       -1.077390   -0.946520   -5.525633
     65          1           0        0.680114   -1.319259   -6.638684
     66          1           0       -0.800466   -0.879975   -7.550320
     67          1           0       -0.715064    1.420183   -6.614165
     68          1           0        0.760747    0.994936   -7.540097
     69          6           0        0.723826    6.639253   -0.158280
     70          6           0       -0.755095    6.632568    0.259532
     71          7           0        0.971954    5.532280   -1.023755
     72          7           0       -0.997994    5.511369    1.107945
     73          1           0       -1.387770    6.629687   -0.642588
     74          1           0       -0.952746    7.538004    0.841307
     75          1           0        1.356439    6.625514    0.743653
     76          1           0        0.917115    7.554417   -0.726258
     77          6           0        6.637111    0.229757   -0.755324
     78          6           0        6.641980   -0.198067    0.720776
     79          7           0        5.519994    1.085371   -0.992435
     80          7           0        5.530275   -1.059072    0.963521
     81          1           0        6.633396    0.699745    1.359363
     82          1           0        7.554059   -0.772254    0.909861
     83          1           0        6.629466   -0.668074   -1.393974
     84          1           0        7.545389    0.808353   -0.949286
     85          6           0       -6.641017   -0.218365   -0.723919
     86          6           0       -6.638094    0.186836    0.758503
     87          7           0       -5.525248   -1.070252   -0.979757
     88          7           0       -5.525041    1.044044    1.008636
     89          1           0       -6.626240   -0.720602    1.383412
     90          1           0       -7.549059    0.758133    0.961160
     91          1           0       -6.636723    0.689133   -1.348805
     92          1           0       -7.550294   -0.793954   -0.921814
     93          6           0       -0.724944   -6.636100   -0.255668
     94          6           0        0.756192   -6.635701    0.154309
     95          7           0       -0.977578   -5.515979   -1.102774
     96          7           0        1.003655   -5.527521    1.018490
     97          1           0        1.384003   -6.618915   -0.750963
     98          1           0        0.956834   -7.549936    0.721214
     99          1           0       -1.352717   -6.636095    0.649765
    100          1           0       -0.921306   -7.542423   -0.836411
    101          6           0       -0.192549    0.688477    6.641019
    102          6           0        0.227493   -0.789792    6.628695
    103          7           0       -1.052978    0.941352    5.531210
    104          7           0        1.082131   -1.025691    5.510551
    105          1           0       -0.673638   -1.423617    6.617744
    106          1           0        0.804972   -0.991347    7.536061
    107          1           0        0.708535    1.322487    6.635082
    108          1           0       -0.765225    0.876138    7.554373
 ---------------------------------------------------------------------

 SCF Done:  E(RHF) =  -2499.18429287     a.u. after    7 cycles
 SCF Done:  E(RHF) =  -2499.18436756     A.U. after   16 cycles
 E2 =    -0.8576581142D+01 EUMP2 =    -0.25077609486984D+04

 The electronic state is 1-A.
 Alpha  occ. eigenvalues --  -15.56111 -15.56110 -15.56110 -15.56110 -15.56110
 Alpha  occ. eigenvalues --  -15.56110 -15.56110 -15.56110 -15.56109 -15.56109
 Alpha  occ. eigenvalues --  -15.56109 -15.56109 -11.28582 -11.28582 -11.28581
 Alpha  occ. eigenvalues --  -11.28581 -11.28581 -11.28581 -11.28581 -11.28580
 Alpha  occ. eigenvalues --  -11.28580 -11.28580 -11.28580 -11.28579 -11.25782
 Alpha  occ. eigenvalues --  -11.25782 -11.25782 -11.25782 -11.25781 -11.25780
 Alpha  occ. eigenvalues --  -11.25724 -11.25724 -11.25723 -11.25723 -11.25722
 Alpha  occ. eigenvalues --  -11.25721 -11.25043 -11.25043 -11.25043 -11.25043
 Alpha  occ. eigenvalues --  -11.25005 -11.25005 -11.25004 -11.25004 -11.25004
 Alpha  occ. eigenvalues --  -11.25004 -11.25004 -11.25003 -11.24779 -11.24779
 Alpha  occ. eigenvalues --  -11.24778 -11.24778 -11.24778 -11.24778 -11.24778
 Alpha  occ. eigenvalues --  -11.24778 -11.24736 -11.24736 -11.24736 -11.24736
 Alpha  occ. eigenvalues --   -1.26079  -1.25895  -1.25893  -1.25893  -1.25777
 Alpha  occ. eigenvalues --   -1.25775  -1.23763  -1.23762  -1.23761  -1.23346
 Alpha  occ. eigenvalues --   -1.23345  -1.23344  -1.17283  -1.16716  -1.16715
 Alpha  occ. eigenvalues --   -1.16715  -1.07492  -1.07490  -1.06888  -1.06886
 Alpha  occ. eigenvalues --   -1.06886  -1.05250  -1.05250  -1.05249  -1.02037
 Alpha  occ. eigenvalues --   -1.00232  -1.00231  -1.00231  -0.99528  -0.99527
 Alpha  occ. eigenvalues --   -0.91420  -0.91419  -0.91418  -0.91307  -0.91306
 Alpha  occ. eigenvalues --   -0.91305  -0.87341  -0.87340  -0.86436  -0.86436
 Alpha  occ. eigenvalues --   -0.86436  -0.83273  -0.82816  -0.82816  -0.82816
 Alpha  occ. eigenvalues --   -0.80113  -0.80112  -0.80112  -0.75221  -0.75221
 Alpha  occ. eigenvalues --   -0.75220  -0.74614  -0.74612  -0.74522  -0.74522
 Alpha  occ. eigenvalues --   -0.74520  -0.71070  -0.70693  -0.70692  -0.70692
 Alpha  occ. eigenvalues --   -0.68814  -0.68680  -0.68680  -0.68680  -0.66972
 Alpha  occ. eigenvalues --   -0.66970  -0.66970  -0.66135  -0.66133  -0.66078
 Alpha  occ. eigenvalues --   -0.66077  -0.66077  -0.64642  -0.64640  -0.64639
 Alpha  occ. eigenvalues --   -0.64453  -0.61985  -0.61984  -0.61984  -0.61809
 Alpha  occ. eigenvalues --   -0.61649  -0.61646  -0.61324  -0.61324  -0.61323
 Alpha  occ. eigenvalues --   -0.60367  -0.60367  -0.60366  -0.59314  -0.59312
 Alpha  occ. eigenvalues --   -0.58315  -0.58314  -0.58313  -0.57965  -0.54869
 Alpha  occ. eigenvalues --   -0.54867  -0.54866  -0.54685  -0.54683  -0.54681
 Alpha  occ. eigenvalues --   -0.53775  -0.53583  -0.53582  -0.53279  -0.53278
 Alpha  occ. eigenvalues --   -0.53278  -0.52993  -0.52993  -0.52992  -0.51891
 Alpha  occ. eigenvalues --   -0.50383  -0.50381  -0.50381  -0.49779  -0.49778
 Alpha  occ. eigenvalues --   -0.49778  -0.49746  -0.49746  -0.46276  -0.46276
 Alpha  occ. eigenvalues --   -0.46275  -0.45351  -0.45350  -0.45349  -0.44666
 Alpha  occ. eigenvalues --   -0.44665  -0.40921  -0.40919  -0.40918  -0.40917
 Alpha  occ. eigenvalues --   -0.40526  -0.40525  -0.40515  -0.40514  -0.40514
 Alpha  occ. eigenvalues --   -0.40375  -0.40375  -0.40374  -0.40223  -0.40223
 Alpha  occ. eigenvalues --   -0.40222  -0.39274  -0.32378  -0.32377  -0.32377
 Alpha  occ. eigenvalues --   -0.32112  -0.32111  -0.32111  -0.31949  -0.31948
 Alpha virt. eigenvalues --    0.03366   0.03397   0.03397   0.03397   0.03989
 Alpha virt. eigenvalues --    0.03989   0.04224   0.04224   0.04225   0.05061
 Alpha virt. eigenvalues --    0.05186   0.05186   0.05186   0.05270   0.05271

 Mulliken charges:
               1
     1  C    1.049381
     2  C    0.818395
     3  C    0.048563
     4  C    1.050814
     5  H   -0.908124
     6  C    0.050239
     7  C    1.050620
     8  H   -0.908210
     9  C    0.047951
    10  C    0.817297
    11  H   -0.908613
    12  C    0.818550
    13  H   -0.685255
    14  H   -0.685388
    15  H   -0.685774
    16  C    1.049404
    17  C    0.819310
    18  C    0.049721
    19  C    1.050744
    20  H   -0.908254
    21  C    0.050064
    22  C    1.049887
    23  H   -0.908368
    24  C    0.047665
    25  C    0.817621
    26  H   -0.908650
    27  C    0.817869
    28  H   -0.685321
    29  H   -0.685855
    30  H   -0.685429
    31  C    1.050754
    32  C    0.817653
    33  C    0.048472
    34  C    1.049054
    35  H   -0.908628
    36  C    0.048616
    37  C    1.050649
    38  H   -0.908120
    39  C    0.050049
    40  C    0.818163
    41  H   -0.908148
    42  C    0.818581
    43  H   -0.685668
    44  H   -0.685328
    45  H   -0.685599
    46  C    1.050425
    47  C    0.818253
    48  C    0.051103
    49  C    1.050265
    50  H   -0.908369
    51  C    0.048586
    52  C    1.049281
    53  H   -0.908969
    54  C    0.049022
    55  C    0.817960
    56  H   -0.908226
    57  C    0.817187
    58  H   -0.685293
    59  H   -0.685489
    60  H   -0.685152
    61  C    0.672914
    62  C    0.673418
    63  N   -0.610796
    64  N   -0.610988
    65  H   -0.120542
    66  H   -0.265546
    67  H   -0.120300
    68  H   -0.265651
    69  C    0.673490
    70  C    0.673429
    71  N   -0.610620
    72  N   -0.610636
    73  H   -0.120405
    74  H   -0.265402
    75  H   -0.120604
    76  H   -0.265106
    77  C    0.672862
    78  C    0.672982
    79  N   -0.611220
    80  N   -0.611182
    81  H   -0.120292
    82  H   -0.265437
    83  H   -0.120275
    84  H   -0.265482
    85  C    0.672988
    86  C    0.672878
    87  N   -0.610991
    88  N   -0.611205
    89  H   -0.120197
    90  H   -0.265501
    91  H   -0.120188
    92  H   -0.265591
    93  C    0.673897
    94  C    0.673355
    95  N   -0.610510
    96  N   -0.610544
    97  H   -0.120530
    98  H   -0.265120
    99  H   -0.120544
   100  H   -0.265465
   101  C    0.672971
   102  C    0.672960
   103  N   -0.610705
   104  N   -0.610780
   105  H   -0.120468
   106  H   -0.265376
   107  H   -0.120434
   108  H   -0.265450
 Sum of Mulliken charges =   0.00000

 Dipole moment (field-independent basis, Debye):
    X=             -0.0005    Y=             -0.0012    Z=              0.0007  Tot=              0.0015
 Quadrupole moment (field-independent basis, Debye-Ang):
   XX=           -346.4371   YY=           -346.4116   ZZ=           -346.4572
   XY=              0.0025   XZ=             -0.0015   YZ=              0.0039

 Normal termination of Gaussian 16 at Sat Nov  6 10:30:17 2021.
