 Gaussian 16, Revision C.01,
 Gaussian 16:  ES64L-G16RevC.01  3-Jul-2019

 ----------------------------------------------------------------------
 #P PBE1PBE/Def2TZVP SP SCF=(YQC,MaxCycle=900) int=(Grid=Superfinegrid)
  EmpiricalDispersion=GD3 SCRF=(PCM,Solvent=Dichloromethane)
 ----------------------------------------------------------------------

 -------------------------
 _4_alde1_6_ami3_1_opt_dcm
 -------------------------
 Symbolic Z-matrix:
 Charge =  0 Multiplicity = 1

                         Standard orientation:
 ---------------------------------------------------------------------
 Center     Atomic      Atomic             Coordinates (Angstroms)
 Number     Number       Type             X           Y           Z
 ---------------------------------------------------------------------
      1          6           0        3.988984   -1.059502   -1.229578
      2          6           0        3.950026   -2.149064   -2.194651
      3          6           0        4.086041   -1.334687    0.129195
      4          6           0        4.163232   -0.299252    1.060624
      5          1           0        4.118050   -2.350875    0.491275
      6          6           0        4.132124    1.018076    0.619009
      7          6           0        4.034990    1.309738   -0.741654
      8          1           0        4.196459    1.840891    1.314483
      9          6           0        3.958875    0.267664   -1.657982
     10          6           0        4.043557    2.690300   -1.204343
     11          1           0        3.889456    0.460955   -2.717569
     12          6           0        4.305720   -0.590885    2.480096
     13          1           0        3.811344    2.839057   -2.270402
     14          1           0        3.824386   -3.158141   -1.772301
     15          1           0        4.206642    0.271099    3.157977
     16          6           0       -0.380855   -2.000918   -3.788168
     17          6           0        0.875808   -1.942804   -4.521252
     18          6           0       -1.333078   -1.002943   -3.958009
     19          6           0       -2.556982   -1.066904   -3.291924
     20          1           0       -1.153337   -0.167445   -4.617132
     21          6           0       -2.815652   -2.136825   -2.443536
     22          6           0       -1.869609   -3.145964   -2.263059
     23          1           0       -3.755366   -2.218005   -1.919081
     24          6           0       -0.654693   -3.068864   -2.933521
     25          6           0       -2.159985   -4.285881   -1.404910
     26          1           0        0.094791   -3.837069   -2.819493
     27          6           0       -3.568065   -0.040836   -3.503816
     28          1           0       -1.311146   -4.954697   -1.193867
     29          1           0        1.077066   -0.998550   -5.050706
     30          1           0       -4.437750   -0.079377   -2.829661
     31          6           0       -0.059330    4.297301    0.174807
     32          6           0        1.274438    4.812500    0.449707
     33          6           0       -0.925533    4.012105    1.223555
     34          6           0       -2.219420    3.555290    0.973089
     35          1           0       -0.622611    4.150740    2.250086
     36          6           0       -2.636262    3.376227   -0.340495
     37          6           0       -1.778069    3.658205   -1.403461
     38          1           0       -3.633140    3.030291   -0.566933
     39          6           0       -0.491689    4.112850   -1.138532
     40          6           0       -2.231343    3.507958   -2.779073
     41          1           0        0.193326    4.345642   -1.939470
     42          6           0       -3.137473    3.296518    2.073293
     43          1           0       -1.453048    3.600588   -3.552298
     44          1           0        1.590173    4.783416    1.504177
     45          1           0       -4.079675    2.795103    1.802746
     46          6           0        0.172916   -2.295486    3.632840
     47          6           0        1.494106   -2.884704    3.798451
     48          6           0       -0.823537   -2.996632    2.964410
     49          6           0       -2.104482   -2.460313    2.832925
     50          1           0       -0.633382   -3.973306    2.546533
     51          6           0       -2.376818   -1.207577    3.369224
     52          6           0       -1.386725   -0.491910    4.042688
     53          1           0       -3.359517   -0.768537    3.289424
     54          6           0       -0.115116   -1.038978    4.165991
     55          6           0       -1.686564    0.802538    4.638321
     56          1           0        0.670112   -0.512817    4.686857
     57          6           0       -3.156853   -3.215360    2.167630
     58          1           0       -0.820129    1.368750    5.014055
     59          1           0        1.684216   -3.802258    3.220146
     60          1           0       -4.089142   -2.664260    1.969176
     61          6           0        4.059076   -3.044484   -4.346996
     62          6           0        2.879172   -2.835290   -5.317656
     63          7           0        4.081829   -1.947181   -3.431911
     64          7           0        1.665411   -2.924108   -4.568770
     65          6           0        2.882095   -3.934230   -6.383706
     66          1           0        2.998179   -1.845779   -5.795316
     67          6           0        4.199369   -3.949995   -7.149490
     68          1           0        2.045890   -3.764952   -7.065485
     69          1           0        2.721820   -4.893733   -5.888967
     70          6           0        5.367419   -4.153938   -6.190646
     71          1           0        4.324627   -3.001644   -7.677214
     72          1           0        4.181081   -4.748731   -7.893664
     73          6           0        5.376456   -3.062829   -5.127079
     74          1           0        6.310854   -4.137793   -6.740049
     75          1           0        5.275344   -5.130351   -5.709368
     76          1           0        5.514891   -2.084840   -5.591103
     77          1           0        6.198327   -3.220299   -4.425369
     78          1           0        3.912429   -4.010366   -3.830451
     79          6           0        4.346715    4.988082   -0.931741
     80          6           0        3.300378    5.804651   -0.146431
     81          7           0        4.328285    3.648045   -0.435940
     82          7           0        2.005531    5.288154   -0.460321
     83          6           0        3.361539    7.273987   -0.572528
     84          1           0        3.531305    5.714011    0.930457
     85          6           0        4.754792    7.850012   -0.351923
     86          1           0        2.620484    7.836843   -0.000843
     87          1           0        3.089524    7.337788   -1.627548
     88          6           0        5.791079    7.041898   -1.125562
     89          1           0        4.995138    7.822786    0.713447
     90          1           0        4.775426    8.893003   -0.674458
     91          6           0        5.741605    5.577835   -0.706457
     92          1           0        6.790659    7.441603   -0.943371
     93          1           0        5.587361    7.120963   -2.195874
     94          1           0        5.989470    5.479759    0.351869
     95          1           0        6.466816    4.992712   -1.276071
     96          1           0        4.085397    5.035396   -2.004530
     97          6           0        4.709603   -1.997162    4.298265
     98          6           0        3.629676   -3.009731    4.730104
     99          7           0        4.556004   -1.753154    2.898677
    100          7           0        2.351510   -2.389164    4.578272
    101          6           0        3.825231   -3.381900    6.202304
    102          1           0        3.729554   -3.909918    4.096763
    103          6           0        5.215301   -3.958593    6.440781
    104          1           0        3.057760   -4.104749    6.487093
    105          1           0        3.680455   -2.484368    6.806110
    106          6           0        6.284431   -2.959483    6.011656
    107          1           0        5.329630   -4.881155    5.866833
    108          1           0        5.333794   -4.203818    7.498118
    109          6           0        6.101525   -2.584819    4.546177
    110          1           0        7.278153   -3.387087    6.159263
    111          1           0        6.209891   -2.061201    6.628850
    112          1           0        6.220191   -3.466388    3.913730
    113          1           0        6.851904   -1.851423    4.242897
    114          1           0        4.576387   -1.076648    4.895180
    115          6           0       -4.485595    1.796241   -4.612677
    116          6           0       -3.854864    3.190969   -4.425453
    117          7           0       -3.462966    0.816779   -4.421565
    118          7           0       -3.444115    3.313520   -3.062230
    119          6           0       -4.892842    4.275310   -4.727126
    120          1           0       -3.002548    3.279466   -5.123282
    121          6           0       -5.441457    4.129283   -6.141142
    122          1           0       -4.426322    5.254286   -4.597642
    123          1           0       -5.700750    4.190302   -3.998280
    124          6           0       -6.063018    2.749462   -6.328742
    125          1           0       -4.630969    4.262908   -6.861303
    126          1           0       -6.187242    4.904936   -6.326701
    127          6           0       -5.036968    1.662012   -6.034838
    128          1           0       -6.430750    2.639553   -7.350880
    129          1           0       -6.913494    2.639670   -5.651816
    130          1           0       -4.202751    1.731281   -6.735057
    131          1           0       -5.486381    0.672846   -6.145649
    132          1           0       -5.304378    1.687552   -3.878480
    133          6           0       -3.570121   -5.644760   -0.135248
    134          6           0       -4.077134   -5.145640    1.233051
    135          7           0       -3.318382   -4.504352   -0.958564
    136          7           0       -3.014561   -4.431137    1.867004
    137          6           0       -4.461507   -6.339278    2.111716
    138          1           0       -4.960432   -4.504532    1.059595
    139          6           0       -5.524052   -7.196775    1.435439
    140          1           0       -4.825445   -5.966338    3.071525
    141          1           0       -3.563672   -6.930303    2.300666
    142          6           0       -5.025111   -7.688757    0.081023
    143          1           0       -6.432504   -6.606572    1.294802
    144          1           0       -5.771043   -8.046330    2.075336
    145          6           0       -4.643472   -6.508300   -0.803531
    146          1           0       -5.799302   -8.280493   -0.411533
    147          1           0       -4.153256   -8.330669    0.227005
    148          1           0       -5.517077   -5.883085   -0.996064
    149          1           0       -4.263704   -6.858881   -1.765589
    150          1           0       -2.655958   -6.242270    0.033762
    151          6           0       -3.811535    3.400146    4.305179
    152          6           0       -3.125348    2.496754    5.349847
    153          7           0       -2.877251    3.652663    3.254033
    154          7           0       -2.867902    1.229853    4.741032
    155          6           0       -4.055825    2.288261    6.547784
    156          1           0       -2.194537    2.994802    5.676814
    157          6           0       -4.445593    3.620506    7.176080
    158          1           0       -3.550264    1.654254    7.279341
    159          1           0       -4.945865    1.758637    6.203759
    160          6           0       -5.121797    4.516047    6.143616
    161          1           0       -3.550996    4.118308    7.557602
    162          1           0       -5.117794    3.445578    8.018515
    163          6           0       -4.202487    4.733626    4.948068
    164          1           0       -5.375249    5.479240    6.590951
    165          1           0       -6.049496    4.046532    5.808311
    166          1           0       -3.290501    5.244717    5.261459
    167          1           0       -4.693810    5.355466    4.196629
    168          1           0       -4.714315    2.878292    3.939204
 ---------------------------------------------------------------------

 SCF Done:  E(RPBE1PBE) =  -3448.52263123     a.u. after    7 cycles
 SCF Done:  E(RPBE1PBE) =  -3448.52264736     A.U. after    7 cycles

 The electronic state is 1-A.
 Alpha  occ. eigenvalues --  -14.37813 -14.37810 -14.37810 -14.37809 -14.37807
 Alpha  occ. eigenvalues --  -14.37807 -14.37807 -14.37806 -14.37806 -14.37804
 Alpha  occ. eigenvalues --  -14.37802 -14.37801 -10.26629 -10.26629 -10.26629
 Alpha  occ. eigenvalues --  -10.26628 -10.26627 -10.26625 -10.26624 -10.26624
 Alpha  occ. eigenvalues --  -10.26623 -10.26623 -10.26621 -10.26621 -10.25082
 Alpha  occ. eigenvalues --  -10.25080 -10.25080 -10.25079 -10.25078 -10.25077
 Alpha  occ. eigenvalues --  -10.25060 -10.25058 -10.25058 -10.25056 -10.25055
 Alpha  occ. eigenvalues --  -10.25054 -10.24364 -10.24361 -10.24360 -10.24359
 Alpha  occ. eigenvalues --  -10.24358 -10.24357 -10.24357 -10.24356 -10.24355
 Alpha  occ. eigenvalues --  -10.24354 -10.24354 -10.24352 -10.23855 -10.23850
 Alpha  occ. eigenvalues --  -10.23848 -10.23847 -10.23847 -10.23846 -10.23844
 Alpha  occ. eigenvalues --  -10.23843 -10.23842 -10.23839 -10.23838 -10.23837
 Alpha  occ. eigenvalues --  -10.21494 -10.21494 -10.21492 -10.21492 -10.21492
 Alpha  occ. eigenvalues --  -10.21492 -10.21491 -10.21491 -10.21491 -10.21490
 Alpha  occ. eigenvalues --  -10.21490 -10.21489 -10.21336 -10.21336 -10.21334
 Alpha  occ. eigenvalues --  -10.21334 -10.21334 -10.21333 -10.21311 -10.21311
 Alpha  occ. eigenvalues --  -10.21310 -10.21309 -10.21309 -10.21308  -0.97823
 Alpha  occ. eigenvalues --   -0.97703  -0.97701  -0.97700  -0.97631  -0.97630
 Alpha  occ. eigenvalues --   -0.95514  -0.95513  -0.95512  -0.95181  -0.95180
 Alpha  occ. eigenvalues --   -0.95178  -0.90567  -0.89982  -0.89980  -0.89978
 Alpha  occ. eigenvalues --   -0.85890  -0.85889  -0.85555  -0.85555  -0.85555
 Alpha  occ. eigenvalues --   -0.84968  -0.80971  -0.80971  -0.80945  -0.80944
 Alpha  occ. eigenvalues --   -0.80943  -0.80875  -0.80873  -0.80872  -0.76865
 Alpha  occ. eigenvalues --   -0.76864  -0.76863  -0.76836  -0.76203  -0.76202
 Alpha  occ. eigenvalues --   -0.76201  -0.75660  -0.75660  -0.75659  -0.75401
 Alpha  occ. eigenvalues --   -0.75400  -0.68669  -0.68667  -0.68665  -0.68359
 Alpha  occ. eigenvalues --   -0.68358  -0.68357  -0.67142  -0.67142  -0.66483
 Alpha  occ. eigenvalues --   -0.66483  -0.66482  -0.65541  -0.62985  -0.62984
 Alpha  occ. eigenvalues --   -0.62912  -0.62911  -0.62911  -0.62443  -0.62442
 Alpha  occ. eigenvalues --   -0.62441  -0.61545  -0.60656  -0.60654  -0.60653
 Alpha  occ. eigenvalues --   -0.58236  -0.58235  -0.58233  -0.58052  -0.58050
 Alpha  occ. eigenvalues --   -0.58049  -0.56288  -0.56287  -0.56286  -0.56123
 Alpha  occ. eigenvalues --   -0.56123  -0.55936  -0.55934  -0.55933  -0.54320
 Alpha  occ. eigenvalues --   -0.53436  -0.53434  -0.53432  -0.52775  -0.52773
 Alpha  occ. eigenvalues --   -0.52772  -0.52526  -0.51117  -0.51116  -0.50741
 Alpha  occ. eigenvalues --   -0.50740  -0.50738  -0.49928  -0.49926  -0.49924
 Alpha  occ. eigenvalues --   -0.49134  -0.49132  -0.49131  -0.48899  -0.47507
 Alpha  occ. eigenvalues --   -0.47507  -0.47506  -0.47457  -0.47457  -0.47229
 Alpha  occ. eigenvalues --   -0.47144  -0.47143  -0.47142  -0.46155  -0.46154
 Alpha  occ. eigenvalues --   -0.46154  -0.45760  -0.45107  -0.45107  -0.45104
 Alpha  occ. eigenvalues --   -0.45076  -0.45076  -0.44374  -0.44373  -0.44373
 Alpha  occ. eigenvalues --   -0.44145  -0.44144  -0.43902  -0.43901  -0.43899
 Alpha  occ. eigenvalues --   -0.43582  -0.43580  -0.43579  -0.43548  -0.42294
 Alpha  occ. eigenvalues --   -0.42293  -0.42292  -0.42022  -0.41992  -0.41992
 Alpha  occ. eigenvalues --   -0.41545  -0.41543  -0.41541  -0.40752  -0.39946
 Alpha  occ. eigenvalues --   -0.39945  -0.39944  -0.39760  -0.39760  -0.39759
 Alpha  occ. eigenvalues --   -0.38487  -0.38487  -0.38295  -0.38293  -0.38291
 Alpha  occ. eigenvalues --   -0.37916  -0.37915  -0.37913  -0.37135  -0.37134
 Alpha  occ. eigenvalues --   -0.37132  -0.36787  -0.36394  -0.36394  -0.36393
 Alpha  occ. eigenvalues --   -0.36204  -0.36204  -0.36203  -0.35968  -0.35966
 Alpha  occ. eigenvalues --   -0.35966  -0.35760  -0.35759  -0.35759  -0.35730
 Alpha  occ. eigenvalues --   -0.35729  -0.35425  -0.35424  -0.34073  -0.34072
 Alpha  occ. eigenvalues --   -0.34071  -0.33972  -0.33776  -0.33774  -0.33554
 Alpha  occ. eigenvalues --   -0.33554  -0.33553  -0.33117  -0.32296  -0.32295
 Alpha  occ. eigenvalues --   -0.32294  -0.31999  -0.31997  -0.31997  -0.31626
 Alpha  occ. eigenvalues --   -0.31626  -0.29830  -0.29829  -0.29828  -0.29000
 Alpha  occ. eigenvalues --   -0.27713  -0.27604  -0.27602  -0.27600  -0.27410
 Alpha  occ. eigenvalues --   -0.27409  -0.27247  -0.27244  -0.27241  -0.27071
 Alpha  occ. eigenvalues --   -0.27068  -0.27066  -0.26018  -0.26016  -0.26016
 Alpha  occ. eigenvalues --   -0.25622  -0.25622  -0.25620  -0.25441  -0.25441
 Alpha virt. eigenvalues --   -0.06180  -0.06177  -0.06176  -0.05813  -0.05811
 Alpha virt. eigenvalues --   -0.05811  -0.05639  -0.05638  -0.01998  -0.01996
 Alpha virt. eigenvalues --   -0.01994  -0.01356   0.04177   0.04178   0.04180

 Mulliken charges:
               1
     1  C    0.359084
     2  C   -0.165490
     3  C   -0.353791
     4  C    0.358633
     5  H    0.121278
     6  C   -0.353925
     7  C    0.359176
     8  H    0.121189
     9  C   -0.353897
    10  C   -0.165545
    11  H    0.121282
    12  C   -0.165374
    13  H    0.093243
    14  H    0.093319
    15  H    0.093296
    16  C    0.359586
    17  C   -0.166284
    18  C   -0.353240
    19  C    0.358796
    20  H    0.121245
    21  C   -0.353580
    22  C    0.359401
    23  H    0.121230
    24  C   -0.354518
    25  C   -0.165477
    26  H    0.121183
    27  C   -0.165226
    28  H    0.093295
    29  H    0.093101
    30  H    0.093254
    31  C    0.358993
    32  C   -0.165415
    33  C   -0.353089
    34  C    0.358547
    35  H    0.121136
    36  C   -0.353763
    37  C    0.359393
    38  H    0.121283
    39  C   -0.354384
    40  C   -0.165466
    41  H    0.120939
    42  C   -0.165402
    43  H    0.093238
    44  H    0.093239
    45  H    0.093401
    46  C    0.358999
    47  C   -0.165360
    48  C   -0.353190
    49  C    0.358757
    50  H    0.121138
    51  C   -0.353656
    52  C    0.359023
    53  H    0.121205
    54  C   -0.354235
    55  C   -0.165456
    56  H    0.121146
    57  C   -0.165556
    58  H    0.093287
    59  H    0.093120
    60  H    0.093332
    61  C    0.043797
    62  C    0.043779
    63  N   -0.199951
    64  N   -0.199315
    65  C   -0.193955
    66  H    0.054065
    67  C   -0.179975
    68  H    0.113084
    69  H    0.101808
    70  C   -0.180062
    71  H    0.093484
    72  H    0.113474
    73  C   -0.194171
    74  H    0.113471
    75  H    0.093495
    76  H    0.101882
    77  H    0.113049
    78  H    0.054073
    79  C    0.043976
    80  C    0.043698
    81  N   -0.199730
    82  N   -0.199749
    83  C   -0.194166
    84  H    0.054161
    85  C   -0.179926
    86  H    0.113069
    87  H    0.101878
    88  C   -0.180024
    89  H    0.093491
    90  H    0.113480
    91  C   -0.194284
    92  H    0.113497
    93  H    0.093498
    94  H    0.101937
    95  H    0.113055
    96  H    0.053970
    97  C    0.043804
    98  C    0.043834
    99  N   -0.199486
   100  N   -0.199756
   101  C   -0.193932
   102  H    0.053965
   103  C   -0.179983
   104  H    0.113079
   105  H    0.101729
   106  C   -0.179945
   107  H    0.093484
   108  H    0.113487
   109  C   -0.194282
   110  H    0.113488
   111  H    0.093492
   112  H    0.101879
   113  H    0.113031
   114  H    0.053978
   115  C    0.043939
   116  C    0.043132
   117  N   -0.200014
   118  N   -0.199662
   119  C   -0.193951
   120  H    0.054126
   121  C   -0.179969
   122  H    0.112990
   123  H    0.101836
   124  C   -0.179944
   125  H    0.093476
   126  H    0.113472
   127  C   -0.194277
   128  H    0.113481
   129  H    0.093475
   130  H    0.101866
   131  H    0.113045
   132  H    0.054034
   133  C    0.043867
   134  C    0.043303
   135  N   -0.199715
   136  N   -0.199672
   137  C   -0.193997
   138  H    0.054039
   139  C   -0.179916
   140  H    0.113037
   141  H    0.101800
   142  C   -0.180043
   143  H    0.093471
   144  H    0.113468
   145  C   -0.194089
   146  H    0.113477
   147  H    0.093497
   148  H    0.101826
   149  H    0.113006
   150  H    0.053985
   151  C    0.043661
   152  C    0.043357
   153  N   -0.199939
   154  N   -0.199655
   155  C   -0.193864
   156  H    0.054142
   157  C   -0.179897
   158  H    0.113017
   159  H    0.101800
   160  C   -0.179967
   161  H    0.093466
   162  H    0.113448
   163  C   -0.194037
   164  H    0.113473
   165  H    0.093458
   166  H    0.101794
   167  H    0.113005
   168  H    0.054162
 Sum of Mulliken charges =   0.00000

 Dipole moment (field-independent basis, Debye):
    X=             -0.0248    Y=             -0.0078    Z=              0.0069  Tot=              0.0268
 Quadrupole moment (field-independent basis, Debye-Ang):
   XX=           -467.0489   YY=           -467.1758   ZZ=           -467.1757
   XY=             -0.0017   XZ=              0.0219   YZ=              0.0505

 Normal termination of Gaussian 16 at Mon Oct 18 01:40:27 2021.
