 Gaussian 16, Revision C.01,
 Gaussian 16:  ES64L-G16RevC.01  3-Jul-2019

 ----------------------------------------------------------------------
 #P PBE1PBE/Def2TZVP SP SCF=(YQC,MaxCycle=900) int=(Grid=Superfinegrid)
  EmpiricalDispersion=GD3
 ----------------------------------------------------------------------

 -------------------------
 _4_alde1_6_ami1_1_opt_gas
 -------------------------
 Symbolic Z-matrix:
 Charge =  0 Multiplicity = 1

                         Standard orientation:
 ---------------------------------------------------------------------
 Center     Atomic      Atomic             Coordinates (Angstroms)
 Number     Number       Type             X           Y           Z
 ---------------------------------------------------------------------
      1          6           0       -1.972401   -3.525283   -1.018609
      2          6           0       -2.879673   -3.959786    0.034870
      3          6           0       -0.651736   -3.972515   -1.044592
      4          6           0        0.200422   -3.604394   -2.078816
      5          1           0       -0.315616   -4.624238   -0.252561
      6          6           0       -0.272978   -2.769320   -3.090333
      7          6           0       -1.586610   -2.316021   -3.077724
      8          1           0        0.400416   -2.500146   -3.889828
      9          6           0       -2.430203   -2.693621   -2.033480
     10          6           0       -2.085268   -1.492232   -4.170655
     11          1           0       -3.449483   -2.338738   -2.044170
     12          6           0        1.559775   -4.125665   -2.125050
     13          1           0       -1.320648   -1.071694   -4.842370
     14          1           0       -3.832728   -3.412524    0.103761
     15          1           0        1.921621   -4.605207   -1.202131
     16          6           0       -1.258743   -1.811529    3.533032
     17          6           0       -1.479042   -3.240742    3.357875
     18          6           0       -2.301811   -0.905665    3.342512
     19          6           0       -2.109264    0.452757    3.562968
     20          1           0       -3.263946   -1.288600    3.037786
     21          6           0       -0.854589    0.908821    3.966404
     22          6           0        0.194119    0.017882    4.160317
     23          1           0       -0.725317    1.966140    4.140715
     24          6           0       -0.014010   -1.342548    3.935206
     25          6           0        1.482831    0.500207    4.638217
     26          1           0        0.809561   -2.020945    4.098497
     27          6           0       -3.222041    1.381286    3.417113
     28          1           0        1.632325    1.590454    4.597772
     29          1           0       -0.572966   -3.865724    3.325815
     30          1           0       -4.113554    0.985647    2.905821
     31          6           0       -2.630668    2.400260   -2.162146
     32          6           0       -3.604121    1.605974   -2.899077
     33          6           0       -1.424189    2.770733   -2.755220
     34          6           0       -0.517896    3.575099   -2.074742
     35          1           0       -1.221782    2.432108   -3.759983
     36          6           0       -0.819256    4.001876   -0.781793
     37          6           0       -2.017647    3.640658   -0.177932
     38          1           0       -0.107464    4.632702   -0.271269
     39          6           0       -2.917288    2.833078   -0.873010
     40          6           0       -2.346343    4.140836    1.150076
     41          1           0       -3.846628    2.569081   -0.391697
     42          6           0        0.711834    4.002937   -2.727572
     43          1           0       -1.515140    4.596037    1.711068
     44          1           0       -4.430699    1.186767   -2.304256
     45          1           0        0.973364    3.469885   -3.655070
     46          6           0        3.926333   -0.490331   -1.306156
     47          6           0        4.007688   -1.399520   -2.441240
     48          6           0        4.044681   -0.972156   -0.002777
     49          6           0        4.023513   -0.100373    1.079223
     50          1           0        4.170853   -2.034433    0.141426
     51          6           0        3.869399    1.266960    0.852567
     52          6           0        3.750344    1.761651   -0.440639
     53          1           0        3.863295    1.930075    1.704233
     54          6           0        3.773396    0.874696   -1.516602
     55          6           0        3.649036    3.196952   -0.666875
     56          1           0        3.687679    1.277273   -2.514450
     57          6           0        4.206792   -0.609941    2.431415
     58          1           0        3.435031    3.809185    0.223148
     59          1           0        3.706466   -0.980683   -3.414196
     60          1           0        4.118803   -1.701332    2.549301
     61          6           0       -3.528525   -5.354347    1.792279
     62          6           0       -2.822504   -5.139922    3.152875
     63          7           0       -2.600094   -4.929012    0.789030
     64          1           0       -4.437653   -4.727341    1.783019
     65          6           0       -3.931129   -6.815704    1.506700
     66          7           0       -2.638956   -3.726647    3.289443
     67          1           0       -1.851329   -5.664226    3.113762
     68          6           0       -3.616007   -5.656145    4.370676
     69          1           0       -4.620258   -7.137056    2.293700
     70          6           0       -2.722214   -7.746254    1.480948
     71          6           0       -4.674947   -6.884109    0.172789
     72          1           0       -3.771843   -6.731602    4.242185
     73          6           0       -4.967517   -4.961323    4.507790
     74          6           0       -2.787917   -5.448574    5.639043
     75          1           0       -4.014963   -6.596663   -0.642780
     76          1           0       -5.533585   -6.215432    0.174165
     77          1           0       -5.029155   -7.896372   -0.008744
     78          1           0       -3.024716   -8.740726    1.159689
     79          1           0       -2.269473   -7.830384    2.465362
     80          1           0       -1.981078   -7.362411    0.785634
     81          1           0       -2.631854   -4.387194    5.818701
     82          1           0       -1.815976   -5.930188    5.549209
     83          1           0       -3.302682   -5.873212    6.497871
     84          1           0       -5.446536   -5.258906    5.438112
     85          1           0       -5.629263   -5.222504    3.686209
     86          1           0       -4.825063   -3.884262    4.514499
     87          6           0       -3.777532   -0.525622   -5.457321
     88          6           0       -4.512994    0.691325   -4.846132
     89          7           0       -3.318357   -1.311551   -4.352265
     90          1           0       -2.929053   -0.141916   -6.051029
     91          6           0       -4.656389   -1.411701   -6.363854
     92          7           0       -3.519927    1.448145   -4.145783
     93          1           0       -5.280843    0.306043   -4.152171
     94          6           0       -5.195913    1.608689   -5.881311
     95          1           0       -5.021393   -0.793893   -7.189984
     96          6           0       -5.844229   -2.000246   -5.608342
     97          6           0       -3.802773   -2.533344   -6.955988
     98          1           0       -5.934141    1.013081   -6.426773
     99          6           0       -4.193997    2.201055   -6.867982
    100          6           0       -5.939592    2.728169   -5.152542
    101          1           0       -4.390543   -3.124394   -7.654605
    102          1           0       -3.440433   -3.188780   -6.167073
    103          1           0       -2.945002   -2.126400   -7.488164
    104          1           0       -6.371720   -2.711787   -6.240127
    105          1           0       -6.545195   -1.224589   -5.311564
    106          1           0       -5.492087   -2.514056   -4.718265
    107          1           0       -5.236568    3.362272   -4.616871
    108          1           0       -6.649729    2.318369   -4.436706
    109          1           0       -6.486448    3.341922   -5.864638
    110          1           0       -4.686593    2.932946   -7.504486
    111          1           0       -3.766043    1.430842   -7.504160
    112          1           0       -3.392115    2.691648   -6.323404
    113          6           0        3.575581   -4.618318   -3.196098
    114          6           0        4.537535   -3.434289   -3.457364
    115          7           0        2.255850   -4.063921   -3.172871
    116          1           0        3.839357   -5.055778   -2.216880
    117          6           0        3.627295   -5.728964   -4.265286
    118          7           0        4.436049   -2.577153   -2.315128
    119          1           0        4.195001   -2.918706   -4.372014
    120          6           0        6.013802   -3.841643   -3.641078
    121          1           0        4.646260   -6.127110   -4.290973
    122          6           0        3.252440   -5.206952   -5.649200
    123          6           0        2.687780   -6.865062   -3.860519
    124          1           0        6.074574   -4.515798   -4.501002
    125          6           0        6.570117   -4.544394   -2.406278
    126          6           0        6.846017   -2.598727   -3.957490
    127          1           0        2.937534   -7.238655   -2.869289
    128          1           0        2.767004   -7.688315   -4.566940
    129          1           0        1.657288   -6.516971   -3.848563
    130          1           0        3.997081   -4.508078   -6.020979
    131          1           0        2.291380   -4.702706   -5.600953
    132          1           0        3.181240   -6.034100   -6.352366
    133          1           0        7.877028   -2.878512   -4.161497
    134          1           0        6.833904   -1.911617   -3.114317
    135          1           0        6.451991   -2.081538   -4.830246
    136          1           0        6.401765   -3.927105   -1.528331
    137          1           0        7.639419   -4.708741   -2.521474
    138          1           0        6.092688   -5.508707   -2.253913
    139          6           0       -4.298063    3.425876    3.757138
    140          6           0       -3.817897    4.620997    2.898783
    141          7           0       -3.173618    2.549115    3.886034
    142          1           0       -5.124823    2.933722    3.215177
    143          6           0       -4.789690    3.811197    5.167410
    144          7           0       -3.520115    4.088610    1.603630
    145          1           0       -2.911745    5.034611    3.375691
    146          6           0       -4.856066    5.751178    2.742837
    147          1           0       -5.632061    4.500721    5.055764
    148          6           0       -3.693297    4.480076    5.991326
    149          6           0       -5.297063    2.560502    5.885617
    150          1           0       -5.094162    6.132273    3.740607
    151          6           0       -6.134736    5.262734    2.068777
    152          6           0       -4.241214    6.895075    1.936145
    153          1           0       -4.481769    1.857324    6.040865
    154          1           0       -6.072124    2.067304    5.302125
    155          1           0       -5.714238    2.826354    6.854299
    156          1           0       -2.809366    3.848664    6.003354
    157          1           0       -4.034021    4.628496    7.013721
    158          1           0       -3.426479    5.449161    5.578077
    159          1           0       -4.935525    7.730409    1.878960
    160          1           0       -4.013240    6.564380    0.925263
    161          1           0       -3.321365    7.245105    2.400786
    162          1           0       -6.793497    6.104406    1.865772
    163          1           0       -6.668533    4.558361    2.701276
    164          1           0       -5.888724    4.774389    1.130009
    165          6           0        3.592805    0.225464    5.600355
    166          6           0        4.697837   -0.382778    4.703225
    167          7           0        2.350072   -0.284571    5.105204
    168          1           0        3.641176    1.323721    5.494844
    169          6           0        3.715662   -0.134885    7.095063
    170          7           0        4.488711    0.153708    3.392435
    171          1           0        4.568863   -1.479582    4.708272
    172          6           0        6.136127   -0.050476    5.150583
    173          1           0        4.679596    0.237581    7.455086
    174          6           0        3.635729   -1.640829    7.327729
    175          6           0        2.613159    0.576841    7.879315
    176          1           0        6.275331   -0.443254    6.162367
    177          6           0        6.401636    1.452006    5.149488
    178          6           0        7.129007   -0.759766    4.229482
    179          1           0        2.652238    1.651611    7.712466
    180          1           0        2.729647    0.391006    8.944684
    181          1           0        1.635275    0.214783    7.569498
    182          1           0        4.498149   -2.150278    6.906260
    183          1           0        2.735083   -2.034133    6.864654
    184          1           0        3.603988   -1.851513    8.394583
    185          1           0        8.146949   -0.594467    4.575243
    186          1           0        7.041680   -0.378102    3.214602
    187          1           0        6.942616   -1.831917    4.212469
    188          1           0        6.148417    1.866541    4.177618
    189          1           0        7.453294    1.644385    5.351132
    190          1           0        5.811981    1.956343    5.910369
    191          6           0        2.589024    5.372209   -2.960770
    192          6           0        3.765306    5.119564   -1.987137
    193          7           0        1.404692    4.952231   -2.274851
    194          1           0        2.762674    4.760178   -3.863547
    195          6           0        2.419102    6.845282   -3.385777
    196          7           0        3.836579    3.701272   -1.805523
    197          1           0        3.530107    5.629886   -1.036459
    198          6           0        5.131934    5.622916   -2.495219
    199          1           0        3.339350    7.161625   -3.886305
    200          6           0        2.152868    7.756839   -2.191548
    201          6           0        1.274271    6.952286   -4.393499
    202          1           0        5.057389    6.703139   -2.653819
    203          6           0        5.540293    4.946422   -3.800479
    204          6           0        6.192683    5.376709   -1.422001
    205          1           0        0.332886    6.671008   -3.926815
    206          1           0        1.446735    6.297368   -5.245398
    207          1           0        1.188554    7.973386   -4.758110
    208          1           0        1.310313    7.375070   -1.621739
    209          1           0        1.918738    8.762112   -2.535375
    210          1           0        3.020243    7.814237   -1.539307
    211          1           0        6.317577    4.309539   -1.252339
    212          1           0        5.907326    5.844818   -0.481883
    213          1           0        7.147994    5.791696   -1.735319
    214          1           0        4.882277    5.234883   -4.615828
    215          1           0        5.498225    3.867394   -3.680877
    216          1           0        6.556031    5.231826   -4.065944
 ---------------------------------------------------------------------

 SCF Done:  E(RPBE1PBE) =  -3927.02174531     a.u. after    7 cycles
 SCF Done:  E(RPBE1PBE) =  -3927.02175158     A.U. after    7 cycles

 The electronic state is 1-A.
 Alpha  occ. eigenvalues --  -14.37412 -14.37411 -14.37411 -14.37411 -14.37411
 Alpha  occ. eigenvalues --  -14.37410 -14.37410 -14.37410 -14.37410 -14.37410
 Alpha  occ. eigenvalues --  -14.37409 -14.37409 -10.26472 -10.26471 -10.26471
 Alpha  occ. eigenvalues --  -10.26471 -10.26470 -10.26470 -10.26470 -10.26470
 Alpha  occ. eigenvalues --  -10.26469 -10.26469 -10.26469 -10.26468 -10.24910
 Alpha  occ. eigenvalues --  -10.24910 -10.24910 -10.24909 -10.24909 -10.24908
 Alpha  occ. eigenvalues --  -10.24888 -10.24887 -10.24887 -10.24887 -10.24887
 Alpha  occ. eigenvalues --  -10.24886 -10.24078 -10.24078 -10.24078 -10.24077
 Alpha  occ. eigenvalues --  -10.24074 -10.24074 -10.24074 -10.24074 -10.24074
 Alpha  occ. eigenvalues --  -10.24074 -10.24073 -10.24073 -10.23608 -10.23607
 Alpha  occ. eigenvalues --  -10.23607 -10.23607 -10.23607 -10.23607 -10.23607
 Alpha  occ. eigenvalues --  -10.23606 -10.23600 -10.23600 -10.23600 -10.23599
 Alpha  occ. eigenvalues --  -10.22554 -10.22554 -10.22553 -10.22553 -10.22553
 Alpha  occ. eigenvalues --  -10.22553 -10.22553 -10.22553 -10.22553 -10.22553
 Alpha  occ. eigenvalues --  -10.22553 -10.22552 -10.20229 -10.20229 -10.20229
 Alpha  occ. eigenvalues --  -10.20229 -10.20229 -10.20228 -10.20228 -10.20228
 Alpha  occ. eigenvalues --  -10.20227 -10.20227 -10.20226 -10.20226 -10.19910
 Alpha  occ. eigenvalues --  -10.19910 -10.19910 -10.19910 -10.19909 -10.19909
 Alpha  occ. eigenvalues --  -10.19909 -10.19909 -10.19909 -10.19909 -10.19909
 Alpha  occ. eigenvalues --  -10.19909  -0.97758  -0.97643  -0.97642  -0.97642
 Alpha  occ. eigenvalues --   -0.97576  -0.97576  -0.95264  -0.95263  -0.95262
 Alpha  occ. eigenvalues --   -0.94935  -0.94935  -0.94934  -0.90281  -0.89715
 Alpha  occ. eigenvalues --   -0.89715  -0.89715  -0.84859  -0.84859  -0.84456
 Alpha  occ. eigenvalues --   -0.84456  -0.84456  -0.83534  -0.82246  -0.82246
 Alpha  occ. eigenvalues --   -0.82245  -0.81662  -0.81661  -0.81661  -0.79899
 Alpha  occ. eigenvalues --   -0.79899  -0.79710  -0.79709  -0.79709  -0.79321
 Alpha  occ. eigenvalues --   -0.79320  -0.79320  -0.75157  -0.74446  -0.74445
 Alpha  occ. eigenvalues --   -0.74445  -0.74093  -0.74092  -0.70373  -0.70373
 Alpha  occ. eigenvalues --   -0.70373  -0.70369  -0.70368  -0.70368  -0.70084
 Alpha  occ. eigenvalues --   -0.70082  -0.70082  -0.70082  -0.70078  -0.70078
 Alpha  occ. eigenvalues --   -0.69114  -0.69113  -0.69113  -0.69032  -0.69032
 Alpha  occ. eigenvalues --   -0.69031  -0.66428  -0.66427  -0.65907  -0.65906
 Alpha  occ. eigenvalues --   -0.65906  -0.64210  -0.63839  -0.63838  -0.63838
 Alpha  occ. eigenvalues --   -0.62496  -0.62495  -0.62495  -0.60012  -0.60011
 Alpha  occ. eigenvalues --   -0.59720  -0.59720  -0.59719  -0.58744  -0.57941
 Alpha  occ. eigenvalues --   -0.57940  -0.57939  -0.56704  -0.56703  -0.56703
 Alpha  occ. eigenvalues --   -0.55650  -0.55649  -0.55649  -0.55047  -0.55046
 Alpha  occ. eigenvalues --   -0.54862  -0.54862  -0.54861  -0.53600  -0.53308
 Alpha  occ. eigenvalues --   -0.53307  -0.53307  -0.51933  -0.51932  -0.51932
 Alpha  occ. eigenvalues --   -0.51452  -0.50848  -0.50847  -0.50847  -0.50194
 Alpha  occ. eigenvalues --   -0.50194  -0.50194  -0.50004  -0.50004  -0.49744
 Alpha  occ. eigenvalues --   -0.49582  -0.49582  -0.49581  -0.48615  -0.48615
 Alpha  occ. eigenvalues --   -0.48208  -0.48110  -0.48110  -0.48110  -0.46804
 Alpha  occ. eigenvalues --   -0.46804  -0.46804  -0.46674  -0.46674  -0.46246
 Alpha  occ. eigenvalues --   -0.46245  -0.46244  -0.45481  -0.44858  -0.44858
 Alpha  occ. eigenvalues --   -0.44857  -0.44773  -0.44772  -0.44771  -0.44720
 Alpha  occ. eigenvalues --   -0.44720  -0.44720  -0.43932  -0.43932  -0.43931
 Alpha  occ. eigenvalues --   -0.43314  -0.43314  -0.43313  -0.43192  -0.42988
 Alpha  occ. eigenvalues --   -0.42988  -0.42888  -0.42887  -0.42887  -0.42477
 Alpha  occ. eigenvalues --   -0.42428  -0.42428  -0.42428  -0.42406  -0.42405
 Alpha  occ. eigenvalues --   -0.41587  -0.41556  -0.41555  -0.41554  -0.40376
 Alpha  occ. eigenvalues --   -0.40375  -0.40374  -0.40303  -0.40302  -0.40302
 Alpha  occ. eigenvalues --   -0.39866  -0.39865  -0.39642  -0.39641  -0.39641
 Alpha  occ. eigenvalues --   -0.39386  -0.39064  -0.39063  -0.39063  -0.39008
 Alpha  occ. eigenvalues --   -0.39008  -0.39007  -0.38691  -0.38691  -0.38446
 Alpha  occ. eigenvalues --   -0.38446  -0.38446  -0.37986  -0.37985  -0.37973
 Alpha  occ. eigenvalues --   -0.37973  -0.37972  -0.37661  -0.37582  -0.37581
 Alpha  occ. eigenvalues --   -0.37581  -0.36646  -0.36529  -0.36528  -0.36528
 Alpha  occ. eigenvalues --   -0.36315  -0.36315  -0.35915  -0.35915  -0.35914
 Alpha  occ. eigenvalues --   -0.34866  -0.34862  -0.34862  -0.34861  -0.34839
 Alpha  occ. eigenvalues --   -0.34839  -0.34739  -0.34738  -0.34738  -0.34716
 Alpha  occ. eigenvalues --   -0.34715  -0.34715  -0.34602  -0.34601  -0.34601
 Alpha  occ. eigenvalues --   -0.34187  -0.34186  -0.34186  -0.34158  -0.34158
 Alpha  occ. eigenvalues --   -0.34157  -0.33758  -0.33757  -0.32955  -0.32848
 Alpha  occ. eigenvalues --   -0.32848  -0.32847  -0.32488  -0.32488  -0.32488
 Alpha  occ. eigenvalues --   -0.32320  -0.32319  -0.32319  -0.31847  -0.31847
 Alpha  occ. eigenvalues --   -0.30025  -0.30023  -0.30023  -0.29098  -0.27203
 Alpha  occ. eigenvalues --   -0.27080  -0.27080  -0.27079  -0.26941  -0.26941
 Alpha  occ. eigenvalues --   -0.26602  -0.26602  -0.26602  -0.26440  -0.26440
 Alpha  occ. eigenvalues --   -0.26440  -0.25695  -0.25695  -0.25694  -0.25412
 Alpha  occ. eigenvalues --   -0.25412  -0.25411  -0.25297  -0.25297
 Alpha virt. eigenvalues --   -0.05914  -0.05913  -0.05913  -0.05466  -0.05466
 Alpha virt. eigenvalues --   -0.05465  -0.05386  -0.05385  -0.01805  -0.01805
 Alpha virt. eigenvalues --   -0.01804  -0.01272   0.03604   0.03606   0.03607

 Mulliken charges:
               1
     1  C    0.374408
     2  C   -0.181048
     3  C   -0.334725
     4  C    0.374406
     5  H    0.121768
     6  C   -0.335116
     7  C    0.374661
     8  H    0.121742
     9  C   -0.335100
    10  C   -0.181166
    11  H    0.121759
    12  C   -0.181072
    13  H    0.070357
    14  H    0.070381
    15  H    0.070322
    16  C    0.374480
    17  C   -0.181023
    18  C   -0.334945
    19  C    0.374417
    20  H    0.121743
    21  C   -0.334904
    22  C    0.374493
    23  H    0.121729
    24  C   -0.335122
    25  C   -0.181065
    26  H    0.121724
    27  C   -0.181072
    28  H    0.070320
    29  H    0.070375
    30  H    0.070335
    31  C    0.374407
    32  C   -0.181099
    33  C   -0.334810
    34  C    0.374427
    35  H    0.121757
    36  C   -0.335182
    37  C    0.374473
    38  H    0.121734
    39  C   -0.334877
    40  C   -0.181067
    41  H    0.121764
    42  C   -0.181052
    43  H    0.070370
    44  H    0.070350
    45  H    0.070290
    46  C    0.374529
    47  C   -0.181077
    48  C   -0.335072
    49  C    0.374422
    50  H    0.121776
    51  C   -0.334837
    52  C    0.374358
    53  H    0.121779
    54  C   -0.335070
    55  C   -0.181133
    56  H    0.121759
    57  C   -0.181097
    58  H    0.070303
    59  H    0.070343
    60  H    0.070365
    61  C    0.098375
    62  C    0.098360
    63  N   -0.244352
    64  H    0.079338
    65  C   -0.022909
    66  N   -0.244272
    67  H    0.079352
    68  C   -0.022896
    69  H    0.084691
    70  C   -0.407294
    71  C   -0.382432
    72  H    0.084704
    73  C   -0.407326
    74  C   -0.382429
    75  H    0.132160
    76  H    0.111705
    77  H    0.123176
    78  H    0.118382
    79  H    0.119831
    80  H    0.138694
    81  H    0.132175
    82  H    0.111678
    83  H    0.123191
    84  H    0.118404
    85  H    0.119829
    86  H    0.138689
    87  C    0.098383
    88  C    0.098342
    89  N   -0.244186
    90  H    0.079339
    91  C   -0.022878
    92  N   -0.244229
    93  H    0.079328
    94  C   -0.022899
    95  H    0.084692
    96  C   -0.407350
    97  C   -0.382394
    98  H    0.084706
    99  C   -0.407347
   100  C   -0.382430
   101  H    0.123188
   102  H    0.132174
   103  H    0.111683
   104  H    0.118384
   105  H    0.119841
   106  H    0.138688
   107  H    0.132179
   108  H    0.111679
   109  H    0.123192
   110  H    0.118399
   111  H    0.119831
   112  H    0.138694
   113  C    0.098317
   114  C    0.098446
   115  N   -0.244214
   116  H    0.079322
   117  C   -0.022838
   118  N   -0.244211
   119  H    0.079344
   120  C   -0.022904
   121  H    0.084704
   122  C   -0.407367
   123  C   -0.382429
   124  H    0.084684
   125  C   -0.407362
   126  C   -0.382393
   127  H    0.111682
   128  H    0.123183
   129  H    0.132192
   130  H    0.119837
   131  H    0.138699
   132  H    0.118384
   133  H    0.123177
   134  H    0.132177
   135  H    0.111690
   136  H    0.138687
   137  H    0.118390
   138  H    0.119851
   139  C    0.098340
   140  C    0.098427
   141  N   -0.244219
   142  H    0.079347
   143  C   -0.022905
   144  N   -0.244288
   145  H    0.079338
   146  C   -0.022910
   147  H    0.084696
   148  C   -0.407322
   149  C   -0.382424
   150  H    0.084701
   151  C   -0.407314
   152  C   -0.382429
   153  H    0.132168
   154  H    0.111696
   155  H    0.123181
   156  H    0.138698
   157  H    0.118403
   158  H    0.119826
   159  H    0.123171
   160  H    0.132176
   161  H    0.111700
   162  H    0.118397
   163  H    0.119833
   164  H    0.138684
   165  C    0.098337
   166  C    0.098368
   167  N   -0.244178
   168  H    0.079345
   169  C   -0.022871
   170  N   -0.244234
   171  H    0.079349
   172  C   -0.022882
   173  H    0.084695
   174  C   -0.407329
   175  C   -0.382405
   176  H    0.084688
   177  C   -0.407350
   178  C   -0.382443
   179  H    0.111690
   180  H    0.123177
   181  H    0.132176
   182  H    0.119841
   183  H    0.138687
   184  H    0.118389
   185  H    0.123175
   186  H    0.132183
   187  H    0.111693
   188  H    0.138683
   189  H    0.118394
   190  H    0.119851
   191  C    0.098396
   192  C    0.098483
   193  N   -0.244175
   194  H    0.079327
   195  C   -0.022833
   196  N   -0.244122
   197  H    0.079332
   198  C   -0.022921
   199  H    0.084706
   200  C   -0.407408
   201  C   -0.382410
   202  H    0.084695
   203  C   -0.407409
   204  C   -0.382418
   205  H    0.132188
   206  H    0.111687
   207  H    0.123181
   208  H    0.138692
   209  H    0.118391
   210  H    0.119849
   211  H    0.132187
   212  H    0.111694
   213  H    0.123177
   214  H    0.119859
   215  H    0.138683
   216  H    0.118399
 Sum of Mulliken charges =  -0.00000

 Dipole moment (field-independent basis, Debye):
    X=             -0.0035    Y=             -0.0004    Z=              0.0026  Tot=              0.0044
 Quadrupole moment (field-independent basis, Debye-Ang):
   XX=           -579.0865   YY=           -579.0903   ZZ=           -579.0905
   XY=             -0.0045   XZ=              0.0054   YZ=             -0.0002

 Normal termination of Gaussian 16 at Mon Oct 18 04:24:02 2021.
