 Gaussian 16, Revision C.01,
 Gaussian 16:  ES64L-G16RevC.01  3-Jul-2019

 ---------------------------------------------------------------------
 #P MP2/aug-cc-pVDZ SP SCF=(YQC,MaxCycle=900) int=(Grid=Superfinegrid)
 ---------------------------------------------------------------------

 ------------------
 _alde1_opt_gas_mp2
 ------------------
 Symbolic Z-matrix:
 Charge =  0 Multiplicity = 1

                         Standard orientation:
 ---------------------------------------------------------------------
 Center     Atomic      Atomic             Coordinates (Angstroms)
 Number     Number       Type             X           Y           Z
 ---------------------------------------------------------------------
      1          6           0        0.892711   -1.072884   -0.000021
      2          6           0        1.850069   -2.196564    0.000039
      3          6           0        1.369232    0.238193   -0.000011
      4          8           0        3.045606   -2.075716   -0.000005
      5          6           0        0.482813    1.309478    0.000000
      6          1           0        2.437964    0.400207    0.000006
      7          6           0       -0.890924    1.066691    0.000035
      8          6           0       -1.375479   -0.236637   -0.000058
      9          1           0       -1.565600    1.911270    0.000060
     10          6           0       -0.478340   -1.304887    0.000009
     11          6           0       -2.827312   -0.503913   -0.000006
     12          1           0       -0.872392   -2.311405    0.000034
     13          8           0       -3.320464   -1.599687    0.000012
     14          6           0        0.977293    2.700508   -0.000045
     15          8           0        0.274825    3.675399    0.000026
     16          1           0       -3.448584    0.411594   -0.000035
     17          1           0        1.367807   -3.192336   -0.000024
     18          1           0        2.080687    2.780795    0.000033
 ---------------------------------------------------------------------

 SCF Done:  E(RHF) =  -568.961548020     a.u. after    7 cycles
 SCF Done:  E(RHF) =  -568.961573544     A.U. after   11 cycles
 E2 =    -0.1757637789D+01 EUMP2 =    -0.57071921133319D+03

 The electronic state is 1-A.
 Alpha  occ. eigenvalues --  -20.58881 -20.58881 -20.58881 -11.36424 -11.36424
 Alpha  occ. eigenvalues --  -11.36424 -11.30292 -11.30287 -11.30286 -11.28513
 Alpha  occ. eigenvalues --  -11.28513 -11.28505  -1.42571  -1.42528  -1.42527
 Alpha  occ. eigenvalues --   -1.21849  -1.09726  -1.09725  -0.93554  -0.93553
 Alpha  occ. eigenvalues --   -0.90782  -0.80096  -0.80093  -0.75608  -0.72785
 Alpha  occ. eigenvalues --   -0.68453  -0.68029  -0.68028  -0.65806  -0.65805
 Alpha  occ. eigenvalues --   -0.62939  -0.59981  -0.56839  -0.56837  -0.56724
 Alpha  occ. eigenvalues --   -0.56724  -0.51358  -0.46495  -0.44559  -0.44559
 Alpha  occ. eigenvalues --   -0.38621  -0.38620
 Alpha virt. eigenvalues --    0.02855   0.02856   0.02999   0.03834   0.03834
 Alpha virt. eigenvalues --    0.06217   0.06217   0.06437   0.06899   0.09348
 Alpha virt. eigenvalues --    0.09348   0.09650   0.10078   0.10750   0.10857

 Mulliken charges:
               1
     1  C    0.733686
     2  C    1.063165
     3  C   -0.067438
     4  O   -0.775477
     5  C    0.733685
     6  H   -0.661452
     7  C   -0.068030
     8  C    0.734232
     9  H   -0.661402
    10  C   -0.067268
    11  C    1.063082
    12  H   -0.661597
    13  O   -0.775472
    14  C    1.063417
    15  O   -0.775432
    16  H   -0.292535
    17  H   -0.292463
    18  H   -0.292702
 Sum of Mulliken charges =   0.00000

 Dipole moment (field-independent basis, Debye):
    X=              0.0002    Y=              0.0006    Z=              0.0000  Tot=              0.0006
 Quadrupole moment (field-independent basis, Debye-Ang):
   XX=            -82.4484   YY=            -82.4461   ZZ=            -69.1584
   XY=              0.0008   XZ=              0.0002   YZ=             -0.0004

 Normal termination of Gaussian 16 at Sat Nov  6 23:22:59 2021.
