 Gaussian 16, Revision C.01,
 Gaussian 16:  ES64L-G16RevC.01  3-Jul-2019

 ----------------------------------------------------------------------
 #P PBE1PBE/Def2TZVP SP SCF=(YQC,MaxCycle=900) int=(Grid=Superfinegrid)
  EmpiricalDispersion=GD3 SCRF=(PCM,Solvent=Chloroform)
 ----------------------------------------------------------------------

 --------------
 _alde1_opt_cfm
 --------------
 Symbolic Z-matrix:
 Charge =  0 Multiplicity = 1

                         Standard orientation:
 ---------------------------------------------------------------------
 Center     Atomic      Atomic             Coordinates (Angstroms)
 Number     Number       Type             X           Y           Z
 ---------------------------------------------------------------------
      1          6           0        0.892711   -1.072884   -0.000021
      2          6           0        1.850069   -2.196564    0.000039
      3          6           0        1.369232    0.238193   -0.000011
      4          8           0        3.045606   -2.075716   -0.000005
      5          6           0        0.482813    1.309478    0.000000
      6          1           0        2.437964    0.400207    0.000006
      7          6           0       -0.890924    1.066691    0.000035
      8          6           0       -1.375479   -0.236637   -0.000058
      9          1           0       -1.565600    1.911270    0.000060
     10          6           0       -0.478340   -1.304887    0.000009
     11          6           0       -2.827312   -0.503913   -0.000006
     12          1           0       -0.872392   -2.311405    0.000034
     13          8           0       -3.320464   -1.599687    0.000012
     14          6           0        0.977293    2.700508   -0.000045
     15          8           0        0.274825    3.675399    0.000026
     16          1           0       -3.448584    0.411594   -0.000035
     17          1           0        1.367807   -3.192336   -0.000024
     18          1           0        2.080687    2.780795    0.000033
 ---------------------------------------------------------------------

 SCF Done:  E(RPBE1PBE) =  -571.803710767     a.u. after    7 cycles
 SCF Done:  E(RPBE1PBE) =  -571.803724718     A.U. after    8 cycles

 The electronic state is 1-A.
 Alpha  occ. eigenvalues --  -19.22303 -19.22301 -19.22299 -10.32778 -10.32776
 Alpha  occ. eigenvalues --  -10.32775 -10.27403 -10.27400 -10.27399 -10.26763
 Alpha  occ. eigenvalues --  -10.26763 -10.26757  -1.10163  -1.10129  -1.10125
 Alpha  occ. eigenvalues --   -0.93197  -0.83255  -0.83253  -0.70660  -0.70659
 Alpha  occ. eigenvalues --   -0.68614  -0.59491  -0.59488  -0.56870  -0.54070
 Alpha  occ. eigenvalues --   -0.50019  -0.49758  -0.49757  -0.47841  -0.47838
 Alpha  occ. eigenvalues --   -0.46411  -0.45684  -0.43912  -0.43910  -0.40947
 Alpha  occ. eigenvalues --   -0.40944  -0.39449  -0.30742  -0.30742  -0.30465
 Alpha  occ. eigenvalues --   -0.29095  -0.29092
 Alpha virt. eigenvalues --   -0.09365  -0.09364  -0.05481   0.03948   0.03950
 Alpha virt. eigenvalues --    0.07355   0.07359   0.07422   0.10487   0.10490
 Alpha virt. eigenvalues --    0.10871   0.11435   0.12028   0.15316   0.16239

 Mulliken charges:
               1
     1  C    0.243783
     2  C    0.086305
     3  C   -0.284671
     4  O   -0.305539
     5  C    0.244144
     6  H    0.154316
     7  C   -0.284571
     8  C    0.244065
     9  H    0.154205
    10  C   -0.284377
    11  C    0.086301
    12  H    0.154156
    13  O   -0.305592
    14  C    0.086357
    15  O   -0.305671
    16  H    0.105580
    17  H    0.105583
    18  H    0.105625
 Sum of Mulliken charges =   0.00000

 Dipole moment (field-independent basis, Debye):
    X=              0.0028    Y=             -0.0015    Z=             -0.0000  Tot=              0.0032
 Quadrupole moment (field-independent basis, Debye-Ang):
   XX=            -81.1814   YY=            -81.1894   ZZ=            -67.4595
   XY=              0.0038   XZ=              0.0002   YZ=             -0.0003

 Normal termination of Gaussian 16 at Mon Oct 18 14:14:11 2021.
