 Gaussian 16, Revision C.01,
 Gaussian 16:  ES64L-G16RevC.01  3-Jul-2019

 ----------------------------------------------------------------------
 #P MP2/aug-cc-pVDZ SP SCF=(YQC,MaxCycle=900) int=(Grid=Superfinegrid)
 SCRF=(PCM,Solvent=Chloroform)
 ----------------------------------------------------------------------

 ------------------
 _alde1_opt_cfm_mp2
 ------------------
 Symbolic Z-matrix:
 Charge =  0 Multiplicity = 1

                         Standard orientation:
 ---------------------------------------------------------------------
 Center     Atomic      Atomic             Coordinates (Angstroms)
 Number     Number       Type             X           Y           Z
 ---------------------------------------------------------------------
      1          6           0        0.892711   -1.072884   -0.000021
      2          6           0        1.850069   -2.196564    0.000039
      3          6           0        1.369232    0.238193   -0.000011
      4          8           0        3.045606   -2.075716   -0.000005
      5          6           0        0.482813    1.309478    0.000000
      6          1           0        2.437964    0.400207    0.000006
      7          6           0       -0.890924    1.066691    0.000035
      8          6           0       -1.375479   -0.236637   -0.000058
      9          1           0       -1.565600    1.911270    0.000060
     10          6           0       -0.478340   -1.304887    0.000009
     11          6           0       -2.827312   -0.503913   -0.000006
     12          1           0       -0.872392   -2.311405    0.000034
     13          8           0       -3.320464   -1.599687    0.000012
     14          6           0        0.977293    2.700508   -0.000045
     15          8           0        0.274825    3.675399    0.000026
     16          1           0       -3.448584    0.411594   -0.000035
     17          1           0        1.367807   -3.192336   -0.000024
     18          1           0        2.080687    2.780795    0.000033
 ---------------------------------------------------------------------

 SCF Done:  E(RHF) =  -568.974169573     a.u. after    6 cycles
 SCF Done:  E(RHF) =  -568.974264610     A.U. after   12 cycles
 E2 =    -0.1752456004D+01 EUMP2 =    -0.57072672061424D+03

 The electronic state is 1-A.
 Alpha  occ. eigenvalues --  -20.58383 -20.58379 -20.58377 -11.35900 -11.35897
 Alpha  occ. eigenvalues --  -11.35896 -11.29382 -11.29378 -11.29376 -11.27448
 Alpha  occ. eigenvalues --  -11.27447 -11.27440  -1.42236  -1.42199  -1.42194
 Alpha  occ. eigenvalues --   -1.20871  -1.08767  -1.08765  -0.92631  -0.92630
 Alpha  occ. eigenvalues --   -0.89981  -0.79337  -0.79334  -0.74806  -0.71884
 Alpha  occ. eigenvalues --   -0.67916  -0.67519  -0.67517  -0.65286  -0.65284
 Alpha  occ. eigenvalues --   -0.62275  -0.59278  -0.56448  -0.56444  -0.55897
 Alpha  occ. eigenvalues --   -0.55894  -0.50864  -0.46039  -0.44038  -0.44035
 Alpha  occ. eigenvalues --   -0.37733  -0.37733
 Alpha virt. eigenvalues --    0.03541   0.03785   0.03787   0.04400   0.04401
 Alpha virt. eigenvalues --    0.06219   0.06220   0.06843   0.07771   0.09910
 Alpha virt. eigenvalues --    0.10012   0.10013   0.10659   0.11095   0.11395

 Mulliken charges:
               1
     1  C    0.741448
     2  C    1.083854
     3  C   -0.073274
     4  O   -0.822398
     5  C    0.741076
     6  H   -0.653792
     7  C   -0.073058
     8  C    0.741818
     9  H   -0.654039
    10  C   -0.073118
    11  C    1.083192
    12  H   -0.653979
    13  O   -0.822384
    14  C    1.083659
    15  O   -0.822432
    16  H   -0.275475
    17  H   -0.275440
    18  H   -0.275659
 Sum of Mulliken charges =   0.00000

 Dipole moment (field-independent basis, Debye):
    X=              0.0029    Y=             -0.0015    Z=              0.0000  Tot=              0.0033
 Quadrupole moment (field-independent basis, Debye-Ang):
   XX=            -84.5452   YY=            -84.5531   ZZ=            -69.0531
   XY=              0.0044   XZ=              0.0002   YZ=             -0.0004

 Normal termination of Gaussian 16 at Wed Nov 10 01:49:36 2021.
