 Gaussian 16, Revision C.01,
 Gaussian 16:  ES64L-G16RevC.01  3-Jul-2019

 ----------------------------------------------------------------------
 #P PBE1PBE/Def2TZVP SP SCF=(YQC,MaxCycle=900) int=(Grid=Superfinegrid)
  EmpiricalDispersion=GD3
 ----------------------------------------------------------------------

 --------------
 _alde1_opt_gas
 --------------
 Symbolic Z-matrix:
 Charge =  0 Multiplicity = 1

                         Standard orientation:
 ---------------------------------------------------------------------
 Center     Atomic      Atomic             Coordinates (Angstroms)
 Number     Number       Type             X           Y           Z
 ---------------------------------------------------------------------
      1          6           0        0.892711   -1.072884   -0.000021
      2          6           0        1.850069   -2.196564    0.000039
      3          6           0        1.369232    0.238193   -0.000011
      4          8           0        3.045606   -2.075716   -0.000005
      5          6           0        0.482813    1.309478    0.000000
      6          1           0        2.437964    0.400207    0.000006
      7          6           0       -0.890924    1.066691    0.000035
      8          6           0       -1.375479   -0.236637   -0.000058
      9          1           0       -1.565600    1.911270    0.000060
     10          6           0       -0.478340   -1.304887    0.000009
     11          6           0       -2.827312   -0.503913   -0.000006
     12          1           0       -0.872392   -2.311405    0.000034
     13          8           0       -3.320464   -1.599687    0.000012
     14          6           0        0.977293    2.700508   -0.000045
     15          8           0        0.274825    3.675399    0.000026
     16          1           0       -3.448584    0.411594   -0.000035
     17          1           0        1.367807   -3.192336   -0.000024
     18          1           0        2.080687    2.780795    0.000033
 ---------------------------------------------------------------------

 SCF Done:  E(RPBE1PBE) =  -571.794780967     a.u. after    6 cycles
 SCF Done:  E(RPBE1PBE) =  -571.794787458     A.U. after    8 cycles

 The electronic state is 1-A.
 Alpha  occ. eigenvalues --  -19.22719 -19.22719 -19.22718 -10.33304 -10.33304
 Alpha  occ. eigenvalues --  -10.33304 -10.28255 -10.28253 -10.28252 -10.27657
 Alpha  occ. eigenvalues --  -10.27657 -10.27651  -1.10505  -1.10466  -1.10465
 Alpha  occ. eigenvalues --   -0.94074  -0.84115  -0.84114  -0.71500  -0.71499
 Alpha  occ. eigenvalues --   -0.69364  -0.60220  -0.60218  -0.57645  -0.54913
 Alpha  occ. eigenvalues --   -0.50562  -0.50370  -0.50370  -0.48154  -0.48153
 Alpha  occ. eigenvalues --   -0.47123  -0.46137  -0.44326  -0.44326  -0.41787
 Alpha  occ. eigenvalues --   -0.41785  -0.39980  -0.31552  -0.31551  -0.30832
 Alpha  occ. eigenvalues --   -0.29504  -0.29504
 Alpha virt. eigenvalues --   -0.10133  -0.10132  -0.06065   0.03173   0.03174
 Alpha virt. eigenvalues --    0.06066   0.06066   0.06247   0.09941   0.10035
 Alpha virt. eigenvalues --    0.10035   0.10427   0.10992   0.14879   0.15287

 Mulliken charges:
               1
     1  C    0.248903
     2  C    0.067603
     3  C   -0.292929
     4  O   -0.265619
     5  C    0.248876
     6  H    0.153007
     7  C   -0.292895
     8  C    0.248907
     9  H    0.153023
    10  C   -0.292911
    11  C    0.067586
    12  H    0.153010
    13  O   -0.265614
    14  C    0.067615
    15  O   -0.265595
    16  H    0.089005
    17  H    0.089008
    18  H    0.089022
 Sum of Mulliken charges =   0.00000

 Dipole moment (field-independent basis, Debye):
    X=              0.0003    Y=              0.0005    Z=             -0.0000  Tot=              0.0006
 Quadrupole moment (field-independent basis, Debye-Ang):
   XX=            -79.4643   YY=            -79.4624   ZZ=            -67.5772
   XY=              0.0009   XZ=              0.0002   YZ=             -0.0003

 Normal termination of Gaussian 16 at Mon Oct 18 09:22:52 2021.
