 Gaussian 16, Revision C.01,
 Gaussian 16:  ES64L-G16RevC.01  3-Jul-2019

 ----------------------------------------------------------------------
 #P PBE1PBE/Def2TZVP SP SCF=(YQC,MaxCycle=900) int=(Grid=Superfinegrid)
  EmpiricalDispersion=GD3 SCRF=(PCM,Solvent=Dichloromethane)
 ----------------------------------------------------------------------

 --------------
 _alde1_opt_dcm
 --------------
 Symbolic Z-matrix:
 Charge =  0 Multiplicity = 1

                         Standard orientation:
 ---------------------------------------------------------------------
 Center     Atomic      Atomic             Coordinates (Angstroms)
 Number     Number       Type             X           Y           Z
 ---------------------------------------------------------------------
      1          6           0        0.892711   -1.072884   -0.000021
      2          6           0        1.850069   -2.196564    0.000039
      3          6           0        1.369232    0.238193   -0.000011
      4          8           0        3.045606   -2.075716   -0.000005
      5          6           0        0.482813    1.309478    0.000000
      6          1           0        2.437964    0.400207    0.000006
      7          6           0       -0.890924    1.066691    0.000035
      8          6           0       -1.375479   -0.236637   -0.000058
      9          1           0       -1.565600    1.911270    0.000060
     10          6           0       -0.478340   -1.304887    0.000009
     11          6           0       -2.827312   -0.503913   -0.000006
     12          1           0       -0.872392   -2.311405    0.000034
     13          8           0       -3.320464   -1.599687    0.000012
     14          6           0        0.977293    2.700508   -0.000045
     15          8           0        0.274825    3.675399    0.000026
     16          1           0       -3.448584    0.411594   -0.000035
     17          1           0        1.367807   -3.192336   -0.000024
     18          1           0        2.080687    2.780795    0.000033
 ---------------------------------------------------------------------

 SCF Done:  E(RPBE1PBE) =  -571.805454990     a.u. after    6 cycles
 SCF Done:  E(RPBE1PBE) =  -571.805459801     A.U. after    8 cycles

 The electronic state is 1-A.
 Alpha  occ. eigenvalues --  -19.22246 -19.22244 -19.22241 -10.32696 -10.32696
 Alpha  occ. eigenvalues --  -10.32693 -10.27257 -10.27254 -10.27252 -10.26609
 Alpha  occ. eigenvalues --  -10.26608 -10.26602  -1.10119  -1.10086  -1.10083
 Alpha  occ. eigenvalues --   -0.93045  -0.83106  -0.83105  -0.70516  -0.70515
 Alpha  occ. eigenvalues --   -0.68488  -0.59371  -0.59369  -0.56742  -0.53928
 Alpha  occ. eigenvalues --   -0.49938  -0.49666  -0.49665  -0.47795  -0.47793
 Alpha  occ. eigenvalues --   -0.46295  -0.45611  -0.43854  -0.43852  -0.40802
 Alpha  occ. eigenvalues --   -0.40799  -0.39364  -0.30602  -0.30601  -0.30416
 Alpha  occ. eigenvalues --   -0.29037  -0.29034
 Alpha virt. eigenvalues --   -0.09234  -0.09233  -0.05387   0.04081   0.04082
 Alpha virt. eigenvalues --    0.07575   0.07579   0.07612   0.10542   0.10545
 Alpha virt. eigenvalues --    0.11033   0.11600   0.12212   0.15389   0.16402

 Mulliken charges:
               1
     1  C    0.242877
     2  C    0.090342
     3  C   -0.282784
     4  O   -0.313321
     5  C    0.243297
     6  H    0.154099
     7  C   -0.282653
     8  C    0.243329
     9  H    0.154006
    10  C   -0.282479
    11  C    0.090279
    12  H    0.153942
    13  O   -0.313371
    14  C    0.090340
    15  O   -0.313437
    16  H    0.108498
    17  H    0.108500
    18  H    0.108536
 Sum of Mulliken charges =   0.00000

 Dipole moment (field-independent basis, Debye):
    X=              0.0033    Y=             -0.0012    Z=             -0.0000  Tot=              0.0035
 Quadrupole moment (field-independent basis, Debye-Ang):
   XX=            -81.5349   YY=            -81.5408   ZZ=            -67.4353
   XY=              0.0038   XZ=              0.0002   YZ=             -0.0003

 Normal termination of Gaussian 16 at Mon Oct 18 12:41:19 2021.
