 Gaussian 16, Revision C.01,
 Gaussian 16:  ES64L-G16RevC.01  3-Jul-2019

 ----------------------------------------------------------------------
 #P MP2/aug-cc-pVDZ SP SCF=(YQC,MaxCycle=900) int=(Grid=Superfinegrid)
 SCRF=(PCM,Solvent=Dichloromethane)
 ----------------------------------------------------------------------

 ------------------
 _alde1_opt_dcm_mp2
 ------------------
 Symbolic Z-matrix:
 Charge =  0 Multiplicity = 1

                         Standard orientation:
 ---------------------------------------------------------------------
 Center     Atomic      Atomic             Coordinates (Angstroms)
 Number     Number       Type             X           Y           Z
 ---------------------------------------------------------------------
      1          6           0        0.892711   -1.072884   -0.000021
      2          6           0        1.850069   -2.196564    0.000039
      3          6           0        1.369232    0.238193   -0.000011
      4          8           0        3.045606   -2.075716   -0.000005
      5          6           0        0.482813    1.309478    0.000000
      6          1           0        2.437964    0.400207    0.000006
      7          6           0       -0.890924    1.066691    0.000035
      8          6           0       -1.375479   -0.236637   -0.000058
      9          1           0       -1.565600    1.911270    0.000060
     10          6           0       -0.478340   -1.304887    0.000009
     11          6           0       -2.827312   -0.503913   -0.000006
     12          1           0       -0.872392   -2.311405    0.000034
     13          8           0       -3.320464   -1.599687    0.000012
     14          6           0        0.977293    2.700508   -0.000045
     15          8           0        0.274825    3.675399    0.000026
     16          1           0       -3.448584    0.411594   -0.000035
     17          1           0        1.367807   -3.192336   -0.000024
     18          1           0        2.080687    2.780795    0.000033
 ---------------------------------------------------------------------

 SCF Done:  E(RHF) =  -568.976635439     a.u. after    6 cycles
 SCF Done:  E(RHF) =  -568.976735987     A.U. after   12 cycles
 E2 =    -0.1751452083D+01 EUMP2 =    -0.57072818807084D+03

 The electronic state is 1-A.
 Alpha  occ. eigenvalues --  -20.58313 -20.58311 -20.58307 -11.35818 -11.35818
 Alpha  occ. eigenvalues --  -11.35815 -11.29226 -11.29221 -11.29219 -11.27261
 Alpha  occ. eigenvalues --  -11.27261 -11.27254  -1.42197  -1.42160  -1.42156
 Alpha  occ. eigenvalues --   -1.20701  -1.08600  -1.08598  -0.92472  -0.92471
 Alpha  occ. eigenvalues --   -0.89846  -0.79214  -0.79211  -0.74674  -0.71733
 Alpha  occ. eigenvalues --   -0.67835  -0.67449  -0.67447  -0.65201  -0.65200
 Alpha  occ. eigenvalues --   -0.62164  -0.59168  -0.56420  -0.56416  -0.55735
 Alpha  occ. eigenvalues --   -0.55732  -0.50785  -0.45974  -0.43960  -0.43957
 Alpha  occ. eigenvalues --   -0.37579  -0.37578
 Alpha virt. eigenvalues --    0.03618   0.03947   0.03949   0.04477   0.04477
 Alpha virt. eigenvalues --    0.06199   0.06200   0.06896   0.07924   0.09908
 Alpha virt. eigenvalues --    0.10118   0.10119   0.10750   0.11167   0.11472

 Mulliken charges:
               1
     1  C    0.741891
     2  C    1.087779
     3  C   -0.073787
     4  O   -0.831657
     5  C    0.741570
     6  H   -0.652088
     7  C   -0.073405
     8  C    0.742457
     9  H   -0.652367
    10  C   -0.073608
    11  C    1.087032
    12  H   -0.652306
    13  O   -0.831627
    14  C    1.087492
    15  O   -0.831672
    16  H   -0.271886
    17  H   -0.271754
    18  H   -0.272064
 Sum of Mulliken charges =   0.00000

 Dipole moment (field-independent basis, Debye):
    X=              0.0034    Y=             -0.0012    Z=              0.0000  Tot=              0.0037
 Quadrupole moment (field-independent basis, Debye-Ang):
   XX=            -84.9737   YY=            -84.9793   ZZ=            -69.0319
   XY=              0.0046   XZ=              0.0002   YZ=             -0.0004

 Normal termination of Gaussian 16 at Wed Nov 10 01:51:37 2021.
