 Gaussian 16, Revision C.01,
 Gaussian 16:  ES64L-G16RevC.01  3-Jul-2019

 ----------------------------------------------------------------------
 #P MP2/aug-cc-pVDZ SP SCF=(YQC,MaxCycle=900) int=(Grid=Superfinegrid)
 SCRF=(PCM,Solvent=Chloroform)
 ----------------------------------------------------------------------

 -----------------
 _ami1_opt_cfm_mp2
 -----------------
 Symbolic Z-matrix:
 Charge =  0 Multiplicity = 1

                         Standard orientation:
 ---------------------------------------------------------------------
 Center     Atomic      Atomic             Coordinates (Angstroms)
 Number     Number       Type             X           Y           Z
 ---------------------------------------------------------------------
      1          6           0        0.618982    0.480147    0.053387
      2          6           0       -0.619682   -0.455141    0.073408
      3          7           0        0.572939    1.291547    1.266829
      4          1           0        0.578881    1.085463   -0.869608
      5          6           0        1.956828   -0.292709    0.027762
      6          7           0       -0.651800   -1.299952    1.258271
      7          1           0       -0.576490   -1.106060   -0.805258
      8          6           0       -1.965137    0.299529    0.004197
      9          1           0        1.371849    1.912589    1.312286
     10          1           0       -0.258948    1.870887    1.264741
     11          1           0       -0.544438   -0.702951    2.073222
     12          1           0        0.132817   -1.941720    1.252058
     13          1           0        2.090508   -0.766650    1.005930
     14          6           0        3.128314    0.666841   -0.197723
     15          6           0        1.992488   -1.364760   -1.061634
     16          1           0       -2.106541    0.838541    0.946751
     17          6           0       -3.093497   -0.723831   -0.118788
     18          6           0       -2.041470    1.287766   -1.157759
     19          1           0        1.306466   -2.181026   -0.852962
     20          1           0        2.994336   -1.783362   -1.132537
     21          1           0        1.735203   -0.932151   -2.026621
     22          1           0        4.061905    0.110183   -0.241676
     23          1           0        3.217632    1.393519    0.606031
     24          1           0        3.004971    1.201122   -1.138400
     25          1           0       -1.378546    2.138266   -1.017271
     26          1           0       -3.056202    1.670023   -1.247619
     27          1           0       -1.779281    0.795238   -2.092049
     28          1           0       -2.995877   -1.469707    0.663783
     29          1           0       -3.045390   -1.223598   -1.083963
     30          1           0       -4.061794   -0.236823   -0.029628
 ---------------------------------------------------------------------

 SCF Done:  E(RHF) =  -423.534891566     a.u. after    5 cycles
 SCF Done:  E(RHF) =  -423.534933628     A.U. after    9 cycles
 E2 =    -0.1584765611D+01 EUMP2 =    -0.42511969923898D+03

 The electronic state is 1-A.
 Alpha  occ. eigenvalues --  -15.54531 -15.53316 -11.24929 -11.24587 -11.22599
 Alpha  occ. eigenvalues --  -11.22258 -11.21529 -11.21435 -11.21289 -11.20212
 Alpha  occ. eigenvalues --   -1.21127  -1.15819  -1.06646  -1.06118  -0.93987
 Alpha  occ. eigenvalues --   -0.92575  -0.92044  -0.85004  -0.77313  -0.74552
 Alpha  occ. eigenvalues --   -0.67893  -0.64998  -0.64428  -0.61971  -0.60001
 Alpha  occ. eigenvalues --   -0.59417  -0.57553  -0.55840  -0.54646  -0.53746
 Alpha  occ. eigenvalues --   -0.53038  -0.52081  -0.51107  -0.48288  -0.47141
 Alpha  occ. eigenvalues --   -0.46860  -0.46400  -0.45104  -0.43491  -0.39265
 Alpha  occ. eigenvalues --   -0.37246
 Alpha virt. eigenvalues --    0.03670   0.04075   0.04360   0.04489   0.05696
 Alpha virt. eigenvalues --    0.05845   0.06126   0.06261   0.06778   0.07896
 Alpha virt. eigenvalues --    0.08127   0.08347   0.08574   0.08982   0.09670

 Mulliken charges:
               1
     1  C    0.741342
     2  C    0.182418
     3  N   -0.316535
     4  H   -0.243285
     5  C   -1.304759
     6  N   -0.393275
     7  H   -0.387449
     8  C   -1.257687
     9  H   -0.041244
    10  H   -0.004137
    11  H    0.099369
    12  H   -0.007949
    13  H   -0.278514
    14  C    0.967571
    15  C    1.208956
    16  H   -0.315061
    17  C    0.944198
    18  C    1.187880
    19  H   -0.070390
    20  H   -0.190612
    21  H    0.001739
    22  H   -0.031315
    23  H   -0.143600
    24  H   -0.027762
    25  H   -0.066370
    26  H   -0.159335
    27  H   -0.000969
    28  H    0.005142
    29  H   -0.030831
    30  H   -0.067536
 Sum of Mulliken charges =   0.00000

 Dipole moment (field-independent basis, Debye):
    X=              1.5943    Y=              1.6613    Z=             -1.0206  Tot=              2.5186
 Quadrupole moment (field-independent basis, Debye-Ang):
   XX=            -68.8123   YY=            -66.2428   ZZ=            -69.7099
   XY=             -3.6312   XZ=              1.0634   YZ=              2.1253

 Normal termination of Gaussian 16 at Mon Nov  8 16:23:29 2021.
