 Gaussian 16, Revision C.01,
 Gaussian 16:  ES64L-G16RevC.01  3-Jul-2019

 ----------------------------------------------------------------------
 #P PBE1PBE/Def2TZVP SP SCF=(YQC,MaxCycle=900) int=(Grid=Superfinegrid)
  EmpiricalDispersion=GD3 SCRF=(PCM,Solvent=Chloroform)
 ----------------------------------------------------------------------

 -------------
 _ami1_opt_cfm
 -------------
 Symbolic Z-matrix:
 Charge =  0 Multiplicity = 1

                         Standard orientation:
 ---------------------------------------------------------------------
 Center     Atomic      Atomic             Coordinates (Angstroms)
 Number     Number       Type             X           Y           Z
 ---------------------------------------------------------------------
      1          6           0        0.618982    0.480147    0.053387
      2          6           0       -0.619682   -0.455141    0.073408
      3          7           0        0.572939    1.291547    1.266829
      4          1           0        0.578881    1.085463   -0.869608
      5          6           0        1.956828   -0.292709    0.027762
      6          7           0       -0.651800   -1.299952    1.258271
      7          1           0       -0.576490   -1.106060   -0.805258
      8          6           0       -1.965137    0.299529    0.004197
      9          1           0        1.371849    1.912589    1.312286
     10          1           0       -0.258948    1.870887    1.264741
     11          1           0       -0.544438   -0.702951    2.073222
     12          1           0        0.132817   -1.941720    1.252058
     13          1           0        2.090508   -0.766650    1.005930
     14          6           0        3.128314    0.666841   -0.197723
     15          6           0        1.992488   -1.364760   -1.061634
     16          1           0       -2.106541    0.838541    0.946751
     17          6           0       -3.093497   -0.723831   -0.118788
     18          6           0       -2.041470    1.287766   -1.157759
     19          1           0        1.306466   -2.181026   -0.852962
     20          1           0        2.994336   -1.783362   -1.132537
     21          1           0        1.735203   -0.932151   -2.026621
     22          1           0        4.061905    0.110183   -0.241676
     23          1           0        3.217632    1.393519    0.606031
     24          1           0        3.004971    1.201122   -1.138400
     25          1           0       -1.378546    2.138266   -1.017271
     26          1           0       -3.056202    1.670023   -1.247619
     27          1           0       -1.779281    0.795238   -2.092049
     28          1           0       -2.995877   -1.469707    0.663783
     29          1           0       -3.045390   -1.223598   -1.083963
     30          1           0       -4.061794   -0.236823   -0.029628
 ---------------------------------------------------------------------

 SCF Done:  E(RPBE1PBE) =  -426.058702345     a.u. after    6 cycles
 SCF Done:  E(RPBE1PBE) =  -426.058715292     A.U. after    7 cycles

 The electronic state is 1-A.
 Alpha  occ. eigenvalues --  -14.36018 -14.34863 -10.24115 -10.23846 -10.22194
 Alpha  occ. eigenvalues --  -10.21895 -10.20565 -10.20483 -10.20322 -10.19267
 Alpha  occ. eigenvalues --   -0.93298  -0.88814  -0.81467  -0.80951  -0.71248
 Alpha  occ. eigenvalues --   -0.69997  -0.69566  -0.64209  -0.58117  -0.56358
 Alpha  occ. eigenvalues --   -0.51670  -0.49509  -0.48844  -0.47034  -0.45070
 Alpha  occ. eigenvalues --   -0.44891  -0.43112  -0.41505  -0.40768  -0.39876
 Alpha  occ. eigenvalues --   -0.39200  -0.38437  -0.37563  -0.35488  -0.34559
 Alpha  occ. eigenvalues --   -0.34123  -0.33761  -0.32572  -0.31356  -0.25819
 Alpha  occ. eigenvalues --   -0.24416
 Alpha virt. eigenvalues --    0.03759   0.05476   0.05836   0.06742   0.09033
 Alpha virt. eigenvalues --    0.09335   0.09862   0.10387   0.11347   0.11708
 Alpha virt. eigenvalues --    0.12599   0.13113   0.13755   0.15310   0.15598

 Mulliken charges:
               1
     1  C    0.071296
     2  C   -0.022468
     3  N   -0.557606
     4  H    0.091835
     5  C   -0.080484
     6  N   -0.524168
     7  H    0.093418
     8  C   -0.039323
     9  H    0.218890
    10  H    0.230171
    11  H    0.227543
    12  H    0.221823
    13  H    0.080060
    14  C   -0.399066
    15  C   -0.402764
    16  H    0.075491
    17  C   -0.383163
    18  C   -0.396349
    19  H    0.134129
    20  H    0.128837
    21  H    0.123733
    22  H    0.129468
    23  H    0.118033
    24  H    0.119709
    25  H    0.129216
    26  H    0.129681
    27  H    0.122924
    28  H    0.133055
    29  H    0.106058
    30  H    0.120020
 Sum of Mulliken charges =   0.00000

 Dipole moment (field-independent basis, Debye):
    X=              1.5604    Y=              1.6268    Z=             -0.8695  Tot=              2.4161
 Quadrupole moment (field-independent basis, Debye-Ang):
   XX=            -67.8142   YY=            -65.3203   ZZ=            -68.8055
   XY=             -3.5292   XZ=              1.0415   YZ=              2.1604

 Normal termination of Gaussian 16 at Mon Oct 18 14:33:31 2021.
