 Gaussian 16, Revision C.01,
 Gaussian 16:  ES64L-G16RevC.01  3-Jul-2019

 ----------------------------------------------------------------------
 #P PBE1PBE/Def2TZVP SP SCF=(YQC,MaxCycle=900) int=(Grid=Superfinegrid)
  EmpiricalDispersion=GD3 SCRF=(PCM,Solvent=Dichloromethane)
 ----------------------------------------------------------------------

 -------------
 _ami1_opt_dcm
 -------------
 Symbolic Z-matrix:
 Charge =  0 Multiplicity = 1

                         Standard orientation:
 ---------------------------------------------------------------------
 Center     Atomic      Atomic             Coordinates (Angstroms)
 Number     Number       Type             X           Y           Z
 ---------------------------------------------------------------------
      1          6           0        0.618982    0.480147    0.053387
      2          6           0       -0.619682   -0.455141    0.073408
      3          7           0        0.572939    1.291547    1.266829
      4          1           0        0.578881    1.085463   -0.869608
      5          6           0        1.956828   -0.292709    0.027762
      6          7           0       -0.651800   -1.299952    1.258271
      7          1           0       -0.576490   -1.106060   -0.805258
      8          6           0       -1.965137    0.299529    0.004197
      9          1           0        1.371849    1.912589    1.312286
     10          1           0       -0.258948    1.870887    1.264741
     11          1           0       -0.544438   -0.702951    2.073222
     12          1           0        0.132817   -1.941720    1.252058
     13          1           0        2.090508   -0.766650    1.005930
     14          6           0        3.128314    0.666841   -0.197723
     15          6           0        1.992488   -1.364760   -1.061634
     16          1           0       -2.106541    0.838541    0.946751
     17          6           0       -3.093497   -0.723831   -0.118788
     18          6           0       -2.041470    1.287766   -1.157759
     19          1           0        1.306466   -2.181026   -0.852962
     20          1           0        2.994336   -1.783362   -1.132537
     21          1           0        1.735203   -0.932151   -2.026621
     22          1           0        4.061905    0.110183   -0.241676
     23          1           0        3.217632    1.393519    0.606031
     24          1           0        3.004971    1.201122   -1.138400
     25          1           0       -1.378546    2.138266   -1.017271
     26          1           0       -3.056202    1.670023   -1.247619
     27          1           0       -1.779281    0.795238   -2.092049
     28          1           0       -2.995877   -1.469707    0.663783
     29          1           0       -3.045390   -1.223598   -1.083963
     30          1           0       -4.061794   -0.236823   -0.029628
 ---------------------------------------------------------------------

 SCF Done:  E(RPBE1PBE) =  -426.059544056     a.u. after    5 cycles
 SCF Done:  E(RPBE1PBE) =  -426.059555556     A.U. after    7 cycles

 The electronic state is 1-A.
 Alpha  occ. eigenvalues --  -14.35990 -14.34954 -10.24086 -10.23860 -10.22151
 Alpha  occ. eigenvalues --  -10.21905 -10.20492 -10.20422 -10.20288 -10.19344
 Alpha  occ. eigenvalues --   -0.93306  -0.88837  -0.81420  -0.80968  -0.71230
 Alpha  occ. eigenvalues --   -0.69981  -0.69553  -0.64203  -0.58110  -0.56349
 Alpha  occ. eigenvalues --   -0.51653  -0.49496  -0.48846  -0.47041  -0.45081
 Alpha  occ. eigenvalues --   -0.44871  -0.43086  -0.41482  -0.40736  -0.39851
 Alpha  occ. eigenvalues --   -0.39198  -0.38434  -0.37566  -0.35468  -0.34523
 Alpha  occ. eigenvalues --   -0.34123  -0.33752  -0.32571  -0.31354  -0.25833
 Alpha  occ. eigenvalues --   -0.24511
 Alpha virt. eigenvalues --    0.03840   0.05559   0.05875   0.06773   0.09104
 Alpha virt. eigenvalues --    0.09381   0.09892   0.10408   0.11388   0.11752
 Alpha virt. eigenvalues --    0.12648   0.13103   0.13767   0.15322   0.15583

 Mulliken charges:
               1
     1  C    0.069114
     2  C   -0.020639
     3  N   -0.564026
     4  H    0.093716
     5  C   -0.078195
     6  N   -0.531544
     7  H    0.095190
     8  C   -0.036922
     9  H    0.221715
    10  H    0.232802
    11  H    0.227454
    12  H    0.224771
    13  H    0.079110
    14  C   -0.401451
    15  C   -0.405911
    16  H    0.077114
    17  C   -0.386030
    18  C   -0.400348
    19  H    0.134701
    20  H    0.129831
    21  H    0.124836
    22  H    0.130406
    23  H    0.119459
    24  H    0.120549
    25  H    0.131335
    26  H    0.130316
    27  H    0.124057
    28  H    0.128989
    29  H    0.107868
    30  H    0.121735
 Sum of Mulliken charges =   0.00000

 Dipole moment (field-independent basis, Debye):
    X=              1.6044    Y=              1.7080    Z=             -0.9298  Tot=              2.5211
 Quadrupole moment (field-independent basis, Debye-Ang):
   XX=            -67.8571   YY=            -65.2742   ZZ=            -68.8621
   XY=             -3.6332   XZ=              1.0823   YZ=              2.2033

 Normal termination of Gaussian 16 at Mon Oct 18 17:34:59 2021.
