 Gaussian 16, Revision C.01,
 Gaussian 16:  ES64L-G16RevC.01  3-Jul-2019

 ----------------------------------------------------------------------
 #P MP2/aug-cc-pVDZ SP SCF=(YQC,MaxCycle=900) int=(Grid=Superfinegrid)
 SCRF=(PCM,Solvent=Dichloromethane)
 ----------------------------------------------------------------------

 -----------------
 _ami1_opt_dcm_mp2
 -----------------
 Symbolic Z-matrix:
 Charge =  0 Multiplicity = 1

                         Standard orientation:
 ---------------------------------------------------------------------
 Center     Atomic      Atomic             Coordinates (Angstroms)
 Number     Number       Type             X           Y           Z
 ---------------------------------------------------------------------
      1          6           0        0.618982    0.480147    0.053387
      2          6           0       -0.619682   -0.455141    0.073408
      3          7           0        0.572939    1.291547    1.266829
      4          1           0        0.578881    1.085463   -0.869608
      5          6           0        1.956828   -0.292709    0.027762
      6          7           0       -0.651800   -1.299952    1.258271
      7          1           0       -0.576490   -1.106060   -0.805258
      8          6           0       -1.965137    0.299529    0.004197
      9          1           0        1.371849    1.912589    1.312286
     10          1           0       -0.258948    1.870887    1.264741
     11          1           0       -0.544438   -0.702951    2.073222
     12          1           0        0.132817   -1.941720    1.252058
     13          1           0        2.090508   -0.766650    1.005930
     14          6           0        3.128314    0.666841   -0.197723
     15          6           0        1.992488   -1.364760   -1.061634
     16          1           0       -2.106541    0.838541    0.946751
     17          6           0       -3.093497   -0.723831   -0.118788
     18          6           0       -2.041470    1.287766   -1.157759
     19          1           0        1.306466   -2.181026   -0.852962
     20          1           0        2.994336   -1.783362   -1.132537
     21          1           0        1.735203   -0.932151   -2.026621
     22          1           0        4.061905    0.110183   -0.241676
     23          1           0        3.217632    1.393519    0.606031
     24          1           0        3.004971    1.201122   -1.138400
     25          1           0       -1.378546    2.138266   -1.017271
     26          1           0       -3.056202    1.670023   -1.247619
     27          1           0       -1.779281    0.795238   -2.092049
     28          1           0       -2.995877   -1.469707    0.663783
     29          1           0       -3.045390   -1.223598   -1.083963
     30          1           0       -4.061794   -0.236823   -0.029628
 ---------------------------------------------------------------------

 SCF Done:  E(RHF) =  -423.535766989     a.u. after    5 cycles
 SCF Done:  E(RHF) =  -423.535808574     A.U. after   10 cycles
 E2 =    -0.1584738381D+01 EUMP2 =    -0.42512054695441D+03

 The electronic state is 1-A.
 Alpha  occ. eigenvalues --  -15.54503 -15.53412 -11.24893 -11.24596 -11.22550
 Alpha  occ. eigenvalues --  -11.22264 -11.21449 -11.21366 -11.21248 -11.20290
 Alpha  occ. eigenvalues --   -1.21136  -1.15844  -1.06591  -1.06133  -0.93967
 Alpha  occ. eigenvalues --   -0.92557  -0.92023  -0.84995  -0.77297  -0.74541
 Alpha  occ. eigenvalues --   -0.67878  -0.64984  -0.64432  -0.61975  -0.60002
 Alpha  occ. eigenvalues --   -0.59397  -0.57526  -0.55816  -0.54608  -0.53715
 Alpha  occ. eigenvalues --   -0.53032  -0.52078  -0.51110  -0.48266  -0.47106
 Alpha  occ. eigenvalues --   -0.46824  -0.46402  -0.45105  -0.43493  -0.39267
 Alpha  occ. eigenvalues --   -0.37315
 Alpha virt. eigenvalues --    0.03709   0.04104   0.04370   0.04496   0.05717
 Alpha virt. eigenvalues --    0.05867   0.06138   0.06277   0.06792   0.07913
 Alpha virt. eigenvalues --    0.08154   0.08362   0.08579   0.09005   0.09671

 Mulliken charges:
               1
     1  C    0.750510
     2  C    0.185788
     3  N   -0.327407
     4  H   -0.240540
     5  C   -1.307810
     6  N   -0.403551
     7  H   -0.386028
     8  C   -1.260843
     9  H   -0.039152
    10  H   -0.001727
    11  H    0.099423
    12  H   -0.004929
    13  H   -0.280091
    14  C    0.968980
    15  C    1.209816
    16  H   -0.313850
    17  C    0.944586
    18  C    1.188958
    19  H   -0.069952
    20  H   -0.190817
    21  H    0.002277
    22  H   -0.031375
    23  H   -0.143583
    24  H   -0.027777
    25  H   -0.064960
    26  H   -0.159836
    27  H   -0.000517
    28  H    0.002401
    29  H   -0.030597
    30  H   -0.067396
 Sum of Mulliken charges =   0.00000

 Dipole moment (field-independent basis, Debye):
    X=              1.6360    Y=              1.7423    Z=             -1.0857  Tot=              2.6250
 Quadrupole moment (field-independent basis, Debye-Ang):
   XX=            -68.8751   YY=            -66.2037   ZZ=            -69.7804
   XY=             -3.7338   XZ=              1.1017   YZ=              2.1665

 Normal termination of Gaussian 16 at Mon Nov  8 15:38:04 2021.
