 Gaussian 16, Revision C.01,
 Gaussian 16:  ES64L-G16RevC.01  3-Jul-2019

 ----------------------------------------------------------------------
 #P PBE1PBE/Def2TZVP SP SCF=(YQC,MaxCycle=900) int=(Grid=Superfinegrid)
  EmpiricalDispersion=GD3
 ----------------------------------------------------------------------

 -------------
 _ami1_opt_gas
 -------------
 Symbolic Z-matrix:
 Charge =  0 Multiplicity = 1

                         Standard orientation:
 ---------------------------------------------------------------------
 Center     Atomic      Atomic             Coordinates (Angstroms)
 Number     Number       Type             X           Y           Z
 ---------------------------------------------------------------------
      1          6           0        0.618982    0.480147    0.053387
      2          6           0       -0.619682   -0.455141    0.073408
      3          7           0        0.572939    1.291547    1.266829
      4          1           0        0.578881    1.085463   -0.869608
      5          6           0        1.956828   -0.292709    0.027762
      6          7           0       -0.651800   -1.299952    1.258271
      7          1           0       -0.576490   -1.106060   -0.805258
      8          6           0       -1.965137    0.299529    0.004197
      9          1           0        1.371849    1.912589    1.312286
     10          1           0       -0.258948    1.870887    1.264741
     11          1           0       -0.544438   -0.702951    2.073222
     12          1           0        0.132817   -1.941720    1.252058
     13          1           0        2.090508   -0.766650    1.005930
     14          6           0        3.128314    0.666841   -0.197723
     15          6           0        1.992488   -1.364760   -1.061634
     16          1           0       -2.106541    0.838541    0.946751
     17          6           0       -3.093497   -0.723831   -0.118788
     18          6           0       -2.041470    1.287766   -1.157759
     19          1           0        1.306466   -2.181026   -0.852962
     20          1           0        2.994336   -1.783362   -1.132537
     21          1           0        1.735203   -0.932151   -2.026621
     22          1           0        4.061905    0.110183   -0.241676
     23          1           0        3.217632    1.393519    0.606031
     24          1           0        3.004971    1.201122   -1.138400
     25          1           0       -1.378546    2.138266   -1.017271
     26          1           0       -3.056202    1.670023   -1.247619
     27          1           0       -1.779281    0.795238   -2.092049
     28          1           0       -2.995877   -1.469707    0.663783
     29          1           0       -3.045390   -1.223598   -1.083963
     30          1           0       -4.061794   -0.236823   -0.029628
 ---------------------------------------------------------------------

 SCF Done:  E(RPBE1PBE) =  -426.054898070     a.u. after    5 cycles
 SCF Done:  E(RPBE1PBE) =  -426.054918895     A.U. after    8 cycles

 The electronic state is 1-A.
 Alpha  occ. eigenvalues --  -14.36235 -14.34564 -10.24318 -10.23857 -10.22504
 Alpha  occ. eigenvalues --  -10.21889 -10.21016 -10.20875 -10.20472 -10.18951
 Alpha  occ. eigenvalues --   -0.93364  -0.88796  -0.81798  -0.80909  -0.71454
 Alpha  occ. eigenvalues --   -0.70176  -0.69608  -0.64308  -0.58225  -0.56475
 Alpha  occ. eigenvalues --   -0.51843  -0.49693  -0.48896  -0.47068  -0.45102
 Alpha  occ. eigenvalues --   -0.45062  -0.43313  -0.41670  -0.41034  -0.40094
 Alpha  occ. eigenvalues --   -0.39235  -0.38485  -0.37613  -0.35656  -0.34811
 Alpha  occ. eigenvalues --   -0.34309  -0.33749  -0.32632  -0.31424  -0.25856
 Alpha  occ. eigenvalues --   -0.24072
 Alpha virt. eigenvalues --    0.03284   0.05012   0.05583   0.06505   0.08617
 Alpha virt. eigenvalues --    0.09041   0.09638   0.10196   0.11075   0.11482
 Alpha virt. eigenvalues --    0.12261   0.13096   0.13629   0.15113   0.15466

 Mulliken charges:
               1
     1  C    0.079442
     2  C   -0.030295
     3  N   -0.528219
     4  H    0.085222
     5  C   -0.090421
     6  N   -0.489977
     7  H    0.085734
     8  C   -0.048956
     9  H    0.205533
    10  H    0.218386
    11  H    0.226640
    12  H    0.208185
    13  H    0.082303
    14  C   -0.386819
    15  C   -0.388186
    16  H    0.067803
    17  C   -0.370480
    18  C   -0.378268
    19  H    0.130525
    20  H    0.123713
    21  H    0.119581
    22  H    0.124697
    23  H    0.110584
    24  H    0.116554
    25  H    0.120488
    26  H    0.126468
    27  H    0.117976
    28  H    0.149792
    29  H    0.098805
    30  H    0.113191
 Sum of Mulliken charges =   0.00000

 Dipole moment (field-independent basis, Debye):
    X=              1.3260    Y=              1.3039    Z=             -0.6484  Tot=              1.9695
 Quadrupole moment (field-independent basis, Debye-Ang):
   XX=            -67.6445   YY=            -65.5144   ZZ=            -68.5756
   XY=             -3.0647   XZ=              0.8465   YZ=              1.9546

 1\1\GINC-CX3-6-18\SP\RPBE1PBE\def2TZVP\C8H20N2\ATARZIA\18-Oct-2021\0\\
 #P PBE1PBE/Def2TZVP SP SCF=(YQC,MaxCycle=900) int=(Grid=Superfinegrid)
  EmpiricalDispersion=GD3\\_ami1_opt_gas\\0,1\C,0,-0.3403,-0.542,-0.585
 3\C,0,0.8707,-0.479,0.3837\N,0,-0.1793,-1.7379,-1.408\H,0,-0.3551,0.38
 9,-1.1794\C,0,-1.6964,-0.6288,0.1504\N,0,0.9712,-1.6686,1.2164\H,0,0.7
 426,0.3854,1.0425\C,0,2.2266,-0.2973,-0.3326\H,0,-0.9554,-1.8365,-2.05
 14\H,0,0.6652,-1.6647,-1.964\H,0,0.9429,-2.4817,0.608\H,0,0.1715,-1.73
 07,1.8362\H,0,-1.7671,-1.6203,0.61\C,0,-2.8556,-0.4815,-0.8388\C,0,-1.

 Normal termination of Gaussian 16 at Mon Oct 18 09:39:15 2021.
