 Gaussian 16, Revision C.01,
 Gaussian 16:  ES64L-G16RevC.01  3-Jul-2019

 ---------------------------------------------------------------------
 #P MP2/aug-cc-pVDZ SP SCF=(YQC,MaxCycle=900) int=(Grid=Superfinegrid)
 ---------------------------------------------------------------------

 -----------------
 _ami1_opt_gas_mp2
 -----------------
 Symbolic Z-matrix:
 Charge =  0 Multiplicity = 1

                         Standard orientation:
 ---------------------------------------------------------------------
 Center     Atomic      Atomic             Coordinates (Angstroms)
 Number     Number       Type             X           Y           Z
 ---------------------------------------------------------------------
      1          6           0        0.618982    0.480147    0.053387
      2          6           0       -0.619682   -0.455141    0.073408
      3          7           0        0.572939    1.291547    1.266829
      4          1           0        0.578881    1.085463   -0.869608
      5          6           0        1.956828   -0.292709    0.027762
      6          7           0       -0.651800   -1.299952    1.258271
      7          1           0       -0.576490   -1.106060   -0.805258
      8          6           0       -1.965137    0.299529    0.004197
      9          1           0        1.371849    1.912589    1.312286
     10          1           0       -0.258948    1.870887    1.264741
     11          1           0       -0.544438   -0.702951    2.073222
     12          1           0        0.132817   -1.941720    1.252058
     13          1           0        2.090508   -0.766650    1.005930
     14          6           0        3.128314    0.666841   -0.197723
     15          6           0        1.992488   -1.364760   -1.061634
     16          1           0       -2.106541    0.838541    0.946751
     17          6           0       -3.093497   -0.723831   -0.118788
     18          6           0       -2.041470    1.287766   -1.157759
     19          1           0        1.306466   -2.181026   -0.852962
     20          1           0        2.994336   -1.783362   -1.132537
     21          1           0        1.735203   -0.932151   -2.026621
     22          1           0        4.061905    0.110183   -0.241676
     23          1           0        3.217632    1.393519    0.606031
     24          1           0        3.004971    1.201122   -1.138400
     25          1           0       -1.378546    2.138266   -1.017271
     26          1           0       -3.056202    1.670023   -1.247619
     27          1           0       -1.779281    0.795238   -2.092049
     28          1           0       -2.995877   -1.469707    0.663783
     29          1           0       -3.045390   -1.223598   -1.083963
     30          1           0       -4.061794   -0.236823   -0.029628
 ---------------------------------------------------------------------

 SCF Done:  E(RHF) =  -423.530942771     a.u. after    5 cycles
 SCF Done:  E(RHF) =  -423.530991102     A.U. after    9 cycles
 E2 =    -0.1584923142D+01 EUMP2 =    -0.42511591424391D+03

 The electronic state is 1-A.
 Alpha  occ. eigenvalues --  -15.54760 -15.52997 -11.25169 -11.24620 -11.22952
 Alpha  occ. eigenvalues --  -11.22272 -11.22020 -11.21872 -11.21480 -11.19896
 Alpha  occ. eigenvalues --   -1.21193  -1.15793  -1.07016  -1.06086  -0.94209
 Alpha  occ. eigenvalues --   -0.92759  -0.92140  -0.85126  -0.77462  -0.74683
 Alpha  occ. eigenvalues --   -0.68061  -0.65203  -0.64458  -0.62022  -0.60080
 Alpha  occ. eigenvalues --   -0.59603  -0.57757  -0.56014  -0.54957  -0.53997
 Alpha  occ. eigenvalues --   -0.53091  -0.52134  -0.51156  -0.48465  -0.47405
 Alpha  occ. eigenvalues --   -0.47167  -0.46385  -0.45163  -0.43551  -0.39352
 Alpha  occ. eigenvalues --   -0.37011
 Alpha virt. eigenvalues --    0.03355   0.03845   0.04213   0.04425   0.05529
 Alpha virt. eigenvalues --    0.05686   0.05997   0.06142   0.06653   0.07739
 Alpha virt. eigenvalues --    0.07954   0.08234   0.08500   0.08820   0.09604

 Mulliken charges:
               1
     1  C    0.699283
     2  C    0.170475
     3  N   -0.269484
     4  H   -0.253214
     5  C   -1.292219
     6  N   -0.348772
     7  H   -0.393137
     8  C   -1.244607
     9  H   -0.050759
    10  H   -0.014351
    11  H    0.098188
    12  H   -0.021249
    13  H   -0.273641
    14  C    0.961583
    15  C    1.204341
    16  H   -0.320409
    17  C    0.942393
    18  C    1.182552
    19  H   -0.071880
    20  H   -0.190042
    21  H    0.000559
    22  H   -0.031207
    23  H   -0.144377
    24  H   -0.026872
    25  H   -0.072209
    26  H   -0.156785
    27  H   -0.001739
    28  H    0.016272
    29  H   -0.031424
    30  H   -0.067271
 Sum of Mulliken charges =   0.00000

 Dipole moment (field-independent basis, Debye):
    X=              1.3697    Y=              1.3376    Z=             -0.7783  Tot=              2.0666
 Quadrupole moment (field-independent basis, Debye-Ang):
   XX=            -68.5663   YY=            -66.4052   ZZ=            -69.4241
   XY=             -3.1668   XZ=              0.8766   YZ=              1.9272

 Normal termination of Gaussian 16 at Thu Nov 11 17:52:57 2021.
