 Gaussian 16, Revision C.01,
 Gaussian 16:  ES64L-G16RevC.01  3-Jul-2019

 ----------------------------------------------------------------------
 #P MP2/aug-cc-pVDZ SP SCF=(YQC,MaxCycle=900) int=(Grid=Superfinegrid)
 SCRF=(PCM,Solvent=Dichloromethane)
 ----------------------------------------------------------------------

 -----------------
 _ami2_opt_dcm_mp2
 -----------------
 Symbolic Z-matrix:
 Charge =  0 Multiplicity = 1

                         Standard orientation:
 ---------------------------------------------------------------------
 Center     Atomic      Atomic             Coordinates (Angstroms)
 Number     Number       Type             X           Y           Z
 ---------------------------------------------------------------------
      1          6           0       -0.408976    0.001366    0.015249
      2          6           0        0.873970   -0.609880   -0.601942
      3          7           0       -0.294162   -0.143998    1.464484
      4          6           0       -1.637475   -0.723087   -0.556258
      5          6           0       -0.502133    1.496602   -0.298492
      6          7           0        2.119960   -0.089189   -0.078601
      7          1           0       -0.269427   -1.127000    1.716361
      8          1           0       -1.095027    0.274511    1.925321
      9          1           0        2.220534    0.888640   -0.329830
     10          1           0        2.088331   -0.136640    0.935511
     11          1           0        0.863099   -0.459717   -1.684162
     12          1           0        0.870131   -1.688360   -0.410903
     13          1           0       -0.445035    1.664757   -1.370974
     14          1           0        0.306138    2.034026    0.191149
     15          1           0       -1.444417    1.900690    0.066283
     16          1           0       -1.690751   -0.592639   -1.634127
     17          1           0       -2.551241   -0.326500   -0.115446
     18          1           0       -1.585236   -1.789474   -0.341710
 ---------------------------------------------------------------------

 SCF Done:  E(RHF) =  -267.393858275     a.u. after    5 cycles
 SCF Done:  E(RHF) =  -267.393879745     A.U. after    9 cycles
 E2 =    -0.9747845185D+00 EUMP2 =    -0.26836866426382D+03

 The electronic state is 1-A.
 Alpha  occ. eigenvalues --  -15.54458 -15.54104 -11.25895 -11.24599 -11.21368
 Alpha  occ. eigenvalues --  -11.21359  -1.21103  -1.15828  -1.02146  -0.93603
 Alpha  occ. eigenvalues --   -0.89473  -0.75564  -0.67887  -0.65710  -0.61652
 Alpha  occ. eigenvalues --   -0.60290  -0.58367  -0.54348  -0.53063  -0.51332
 Alpha  occ. eigenvalues --   -0.50449  -0.49938  -0.46821  -0.39102  -0.37907
 Alpha virt. eigenvalues --    0.03782   0.04745   0.04910   0.05026   0.06851
 Alpha virt. eigenvalues --    0.06942   0.07168   0.07253   0.07519   0.09502
 Alpha virt. eigenvalues --    0.09817   0.10083   0.12798   0.14198   0.14527

 Mulliken charges:
               1
     1  C   -3.363815
     2  C    1.606396
     3  N   -0.149607
     4  C    1.414390
     5  C    1.273158
     6  N   -0.580397
     7  H    0.007324
     8  H   -0.036874
     9  H    0.025829
    10  H    0.086776
    11  H   -0.121388
    12  H   -0.081434
    13  H    0.025272
    14  H   -0.001983
    15  H   -0.043757
    16  H    0.018367
    17  H   -0.020648
    18  H   -0.057610
 Sum of Mulliken charges =   0.00000

 Dipole moment (field-independent basis, Debye):
    X=             -2.7474    Y=              0.2837    Z=              0.2216  Tot=              2.7709
 Quadrupole moment (field-independent basis, Debye-Ang):
   XX=            -46.4574   YY=            -38.6684   ZZ=            -39.5380
   XY=              2.4206   XZ=             -0.6492   YZ=             -2.1908

 Normal termination of Gaussian 16 at Thu Nov 11 13:38:35 2021.
