 Gaussian 16, Revision C.01,
 Gaussian 16:  ES64L-G16RevC.01  3-Jul-2019

 ----------------------------------------------------------------------
 #P PBE1PBE/Def2TZVP SP SCF=(YQC,MaxCycle=900) int=(Grid=Superfinegrid)
  EmpiricalDispersion=GD3 SCRF=(PCM,Solvent=Dichloromethane)
 ----------------------------------------------------------------------

 -------------
 _ami2_opt_dcm
 -------------
 Symbolic Z-matrix:
 Charge =  0 Multiplicity = 1

                         Standard orientation:
 ---------------------------------------------------------------------
 Center     Atomic      Atomic             Coordinates (Angstroms)
 Number     Number       Type             X           Y           Z
 ---------------------------------------------------------------------
      1          6           0       -0.408976    0.001366    0.015249
      2          6           0        0.873970   -0.609880   -0.601942
      3          7           0       -0.294162   -0.143998    1.464484
      4          6           0       -1.637475   -0.723087   -0.556258
      5          6           0       -0.502133    1.496602   -0.298492
      6          7           0        2.119960   -0.089189   -0.078601
      7          1           0       -0.269427   -1.127000    1.716361
      8          1           0       -1.095027    0.274511    1.925321
      9          1           0        2.220534    0.888640   -0.329830
     10          1           0        2.088331   -0.136640    0.935511
     11          1           0        0.863099   -0.459717   -1.684162
     12          1           0        0.870131   -1.688360   -0.410903
     13          1           0       -0.445035    1.664757   -1.370974
     14          1           0        0.306138    2.034026    0.191149
     15          1           0       -1.444417    1.900690    0.066283
     16          1           0       -1.690751   -0.592639   -1.634127
     17          1           0       -2.551241   -0.326500   -0.115446
     18          1           0       -1.585236   -1.789474   -0.341710
 ---------------------------------------------------------------------

 SCF Done:  E(RPBE1PBE) =  -268.944388952     a.u. after    5 cycles
 SCF Done:  E(RPBE1PBE) =  -268.944409731     A.U. after    8 cycles

 The electronic state is 1-A.
 Alpha  occ. eigenvalues --  -14.35843 -14.35314 -10.25235 -10.23432 -10.20331
 Alpha  occ. eigenvalues --  -10.20267  -0.93220  -0.88740  -0.77701  -0.70860
 Alpha  occ. eigenvalues --   -0.67609  -0.57133  -0.51736  -0.50055  -0.46737
 Alpha  occ. eigenvalues --   -0.45162  -0.43976  -0.40269  -0.39198  -0.37808
 Alpha  occ. eigenvalues --   -0.36849  -0.36295  -0.34128  -0.25626  -0.24895
 Alpha virt. eigenvalues --    0.03492   0.07108   0.08301   0.09128   0.09800
 Alpha virt. eigenvalues --    0.11107   0.11491   0.13715   0.14862   0.15454
 Alpha virt. eigenvalues --    0.16527   0.16725   0.17951   0.18505   0.18959

 Mulliken charges:
               1
     1  C    0.121280
     2  C   -0.117456
     3  N   -0.562694
     4  C   -0.374606
     5  C   -0.412371
     6  N   -0.535095
     7  H    0.231398
     8  H    0.229909
     9  H    0.226159
    10  H    0.227937
    11  H    0.115138
    12  H    0.111756
    13  H    0.126768
    14  H    0.122149
    15  H    0.128360
    16  H    0.116056
    17  H    0.123516
    18  H    0.121795
 Sum of Mulliken charges =   0.00000

 Dipole moment (field-independent basis, Debye):
    X=             -2.5605    Y=              0.2780    Z=              0.3327  Tot=              2.5969
 Quadrupole moment (field-independent basis, Debye-Ang):
   XX=            -45.4718   YY=            -38.4015   ZZ=            -38.9745
   XY=              2.2871   XZ=             -0.7518   YZ=             -2.2038

 Normal termination of Gaussian 16 at Mon Oct 18 20:37:00 2021.
