 Gaussian 16, Revision C.01,
 Gaussian 16:  ES64L-G16RevC.01  3-Jul-2019

 ----------------------------------------------------------------------
 #P PBE1PBE/Def2TZVP SP SCF=(YQC,MaxCycle=900) int=(Grid=Superfinegrid)
  EmpiricalDispersion=GD3 SCRF=(PCM,Solvent=Chloroform)
 ----------------------------------------------------------------------

 -------------
 _ami2_opt_cfm
 -------------
 Symbolic Z-matrix:
 Charge =  0 Multiplicity = 1

                         Standard orientation:
 ---------------------------------------------------------------------
 Center     Atomic      Atomic             Coordinates (Angstroms)
 Number     Number       Type             X           Y           Z
 ---------------------------------------------------------------------
      1          6           0       -0.408976    0.001366    0.015249
      2          6           0        0.873970   -0.609880   -0.601942
      3          7           0       -0.294162   -0.143998    1.464484
      4          6           0       -1.637475   -0.723087   -0.556258
      5          6           0       -0.502133    1.496602   -0.298492
      6          7           0        2.119960   -0.089189   -0.078601
      7          1           0       -0.269427   -1.127000    1.716361
      8          1           0       -1.095027    0.274511    1.925321
      9          1           0        2.220534    0.888640   -0.329830
     10          1           0        2.088331   -0.136640    0.935511
     11          1           0        0.863099   -0.459717   -1.684162
     12          1           0        0.870131   -1.688360   -0.410903
     13          1           0       -0.445035    1.664757   -1.370974
     14          1           0        0.306138    2.034026    0.191149
     15          1           0       -1.444417    1.900690    0.066283
     16          1           0       -1.690751   -0.592639   -1.634127
     17          1           0       -2.551241   -0.326500   -0.115446
     18          1           0       -1.585236   -1.789474   -0.341710
 ---------------------------------------------------------------------

 SCF Done:  E(RPBE1PBE) =  -268.943361797     a.u. after    5 cycles
 SCF Done:  E(RPBE1PBE) =  -268.943383446     A.U. after    8 cycles

 The electronic state is 1-A.
 Alpha  occ. eigenvalues --  -14.35884 -14.35196 -10.25264 -10.23419 -10.20393
 Alpha  occ. eigenvalues --  -10.20344  -0.93224  -0.88694  -0.77748  -0.70919
 Alpha  occ. eigenvalues --   -0.67604  -0.57156  -0.51728  -0.50061  -0.46753
 Alpha  occ. eigenvalues --   -0.45190  -0.43990  -0.40322  -0.39236  -0.37852
 Alpha  occ. eigenvalues --   -0.36869  -0.36297  -0.34162  -0.25625  -0.24761
 Alpha virt. eigenvalues --    0.03388   0.07069   0.08213   0.08995   0.09720
 Alpha virt. eigenvalues --    0.11071   0.11445   0.13683   0.14822   0.15415
 Alpha virt. eigenvalues --    0.16437   0.16663   0.17925   0.18449   0.18951

 Mulliken charges:
               1
     1  C    0.116515
     2  C   -0.117426
     3  N   -0.554882
     4  C   -0.369747
     5  C   -0.410022
     6  N   -0.525069
     7  H    0.228537
     8  H    0.226951
     9  H    0.222744
    10  H    0.227241
    11  H    0.113479
    12  H    0.110210
    13  H    0.125495
    14  H    0.122876
    15  H    0.126140
    16  H    0.115056
    17  H    0.121636
    18  H    0.120265
 Sum of Mulliken charges =   0.00000

 Dipole moment (field-independent basis, Debye):
    X=             -2.4757    Y=              0.2766    Z=              0.3345  Tot=              2.5134
 Quadrupole moment (field-independent basis, Debye-Ang):
   XX=            -45.3775   YY=            -38.4322   ZZ=            -38.9806
   XY=              2.2404   XZ=             -0.7292   YZ=             -2.1590

 Normal termination of Gaussian 16 at Mon Oct 18 18:09:28 2021.
