 Gaussian 16, Revision C.01,
 Gaussian 16:  ES64L-G16RevC.01  3-Jul-2019

 ---------------------------------------------------------------------
 #P MP2/aug-cc-pVDZ SP SCF=(YQC,MaxCycle=900) int=(Grid=Superfinegrid)
 ---------------------------------------------------------------------

 -----------------
 _ami2_opt_gas_mp2
 -----------------
 Symbolic Z-matrix:
 Charge =  0 Multiplicity = 1

                         Standard orientation:
 ---------------------------------------------------------------------
 Center     Atomic      Atomic             Coordinates (Angstroms)
 Number     Number       Type             X           Y           Z
 ---------------------------------------------------------------------
      1          6           0       -0.408976    0.001366    0.015249
      2          6           0        0.873970   -0.609880   -0.601942
      3          7           0       -0.294162   -0.143998    1.464484
      4          6           0       -1.637475   -0.723087   -0.556258
      5          6           0       -0.502133    1.496602   -0.298492
      6          7           0        2.119960   -0.089189   -0.078601
      7          1           0       -0.269427   -1.127000    1.716361
      8          1           0       -1.095027    0.274511    1.925321
      9          1           0        2.220534    0.888640   -0.329830
     10          1           0        2.088331   -0.136640    0.935511
     11          1           0        0.863099   -0.459717   -1.684162
     12          1           0        0.870131   -1.688360   -0.410903
     13          1           0       -0.445035    1.664757   -1.370974
     14          1           0        0.306138    2.034026    0.191149
     15          1           0       -1.444417    1.900690    0.066283
     16          1           0       -1.690751   -0.592639   -1.634127
     17          1           0       -2.551241   -0.326500   -0.115446
     18          1           0       -1.585236   -1.789474   -0.341710
 ---------------------------------------------------------------------

 SCF Done:  E(RHF) =  -267.387619204     a.u. after    5 cycles
 SCF Done:  E(RHF) =  -267.387634487     A.U. after    9 cycles
 E2 =    -0.9749861542D+00 EUMP2 =    -0.26836262064160D+03

 The electronic state is 1-A.
 Alpha  occ. eigenvalues --  -15.54824 -15.53400 -11.26179 -11.24609 -11.21952
 Alpha  occ. eigenvalues --  -11.21848  -1.21223  -1.15568  -1.02529  -0.94082
 Alpha  occ. eigenvalues --   -0.89511  -0.75801  -0.67898  -0.65788  -0.61881
 Alpha  occ. eigenvalues --   -0.60538  -0.58555  -0.54765  -0.53330  -0.51642
 Alpha  occ. eigenvalues --   -0.50711  -0.49944  -0.47122  -0.39236  -0.37353
 Alpha virt. eigenvalues --    0.03344   0.04445   0.04584   0.04881   0.06635
 Alpha virt. eigenvalues --    0.06710   0.06872   0.07182   0.07396   0.09360
 Alpha virt. eigenvalues --    0.09560   0.09958   0.12637   0.14001   0.14398

 Mulliken charges:
               1
     1  C   -3.358687
     2  C    1.582266
     3  N   -0.102438
     4  C    1.404613
     5  C    1.267103
     6  N   -0.525648
     7  H   -0.007885
     8  H   -0.051570
     9  H    0.008880
    10  H    0.082535
    11  H   -0.125476
    12  H   -0.087514
    13  H    0.021443
    14  H    0.011597
    15  H   -0.052076
    16  H    0.016388
    17  H   -0.023871
    18  H   -0.059661
 Sum of Mulliken charges =   0.00000

 Dipole moment (field-independent basis, Debye):
    X=             -2.2382    Y=              0.2611    Z=              0.2301  Tot=              2.2651
 Quadrupole moment (field-independent basis, Debye-Ang):
   XX=            -45.7467   YY=            -38.8444   ZZ=            -39.5621
   XY=              2.1033   XZ=             -0.5545   YZ=             -1.9396

 Normal termination of Gaussian 16 at Mon Nov  8 12:14:44 2021.
