 Gaussian 16, Revision C.01,
 Gaussian 16:  ES64L-G16RevC.01  3-Jul-2019

 ----------------------------------------------------------------------
 #P PBE1PBE/Def2TZVP SP SCF=(YQC,MaxCycle=900) int=(Grid=Superfinegrid)
  EmpiricalDispersion=GD3
 ----------------------------------------------------------------------

 -------------
 _ami2_opt_gas
 -------------
 Symbolic Z-matrix:
 Charge =  0 Multiplicity = 1

                         Standard orientation:
 ---------------------------------------------------------------------
 Center     Atomic      Atomic             Coordinates (Angstroms)
 Number     Number       Type             X           Y           Z
 ---------------------------------------------------------------------
      1          6           0       -0.408976    0.001366    0.015249
      2          6           0        0.873970   -0.609880   -0.601942
      3          7           0       -0.294162   -0.143998    1.464484
      4          6           0       -1.637475   -0.723087   -0.556258
      5          6           0       -0.502133    1.496602   -0.298492
      6          7           0        2.119960   -0.089189   -0.078601
      7          1           0       -0.269427   -1.127000    1.716361
      8          1           0       -1.095027    0.274511    1.925321
      9          1           0        2.220534    0.888640   -0.329830
     10          1           0        2.088331   -0.136640    0.935511
     11          1           0        0.863099   -0.459717   -1.684162
     12          1           0        0.870131   -1.688360   -0.410903
     13          1           0       -0.445035    1.664757   -1.370974
     14          1           0        0.306138    2.034026    0.191149
     15          1           0       -1.444417    1.900690    0.066283
     16          1           0       -1.690751   -0.592639   -1.634127
     17          1           0       -2.551241   -0.326500   -0.115446
     18          1           0       -1.585236   -1.789474   -0.341710
 ---------------------------------------------------------------------

 SCF Done:  E(RPBE1PBE) =  -268.938504359     a.u. after    6 cycles
 SCF Done:  E(RPBE1PBE) =  -268.938504980     A.U. after    6 cycles

 The electronic state is 1-A.
 Alpha  occ. eigenvalues --  -14.36194 -14.34706 -10.25485 -10.23427 -10.20777
 Alpha  occ. eigenvalues --  -10.20769  -0.93358  -0.88531  -0.78054  -0.71281
 Alpha  occ. eigenvalues --   -0.67648  -0.57357  -0.51819  -0.50141  -0.46912
 Alpha  occ. eigenvalues --   -0.45407  -0.44140  -0.40657  -0.39466  -0.38145
 Alpha  occ. eigenvalues --   -0.37041  -0.36377  -0.34395  -0.25746  -0.24162
 Alpha virt. eigenvalues --    0.02789   0.06789   0.07711   0.08292   0.09263
 Alpha virt. eigenvalues --    0.10798   0.11153   0.13453   0.14488   0.15136
 Alpha virt. eigenvalues --    0.15947   0.16286   0.17735   0.18114   0.18825

 Mulliken charges:
               1
     1  C    0.094858
     2  C   -0.116318
     3  N   -0.519203
     4  C   -0.349198
     5  C   -0.398671
     6  N   -0.475517
     7  H    0.214839
     8  H    0.212743
     9  H    0.206537
    10  H    0.222592
    11  H    0.105653
    12  H    0.103279
    13  H    0.119801
    14  H    0.124429
    15  H    0.116737
    16  H    0.110236
    17  H    0.113662
    18  H    0.113541
 Sum of Mulliken charges =   0.00000

 Dipole moment (field-independent basis, Debye):
    X=             -2.0779    Y=              0.2598    Z=              0.3275  Tot=              2.1196
 Quadrupole moment (field-independent basis, Debye-Ang):
   XX=            -44.9009   YY=            -38.5918   ZZ=            -39.0392
   XY=              2.0173   XZ=             -0.6451   YZ=             -1.9753

 Normal termination of Gaussian 16 at Mon Oct 18 11:11:46 2021.
