 Gaussian 16, Revision C.01,
 Gaussian 16:  ES64L-G16RevC.01  3-Jul-2019

 ----------------------------------------------------------------------
 #P MP2/aug-cc-pVDZ SP SCF=(YQC,MaxCycle=900) int=(Grid=Superfinegrid)
 SCRF=(PCM,Solvent=Chloroform)
 ----------------------------------------------------------------------

 -----------------
 _ami2_opt_cfm_mp2
 -----------------
 Symbolic Z-matrix:
 Charge =  0 Multiplicity = 1

                         Standard orientation:
 ---------------------------------------------------------------------
 Center     Atomic      Atomic             Coordinates (Angstroms)
 Number     Number       Type             X           Y           Z
 ---------------------------------------------------------------------
      1          6           0       -0.408976    0.001366    0.015249
      2          6           0        0.873970   -0.609880   -0.601942
      3          7           0       -0.294162   -0.143998    1.464484
      4          6           0       -1.637475   -0.723087   -0.556258
      5          6           0       -0.502133    1.496602   -0.298492
      6          7           0        2.119960   -0.089189   -0.078601
      7          1           0       -0.269427   -1.127000    1.716361
      8          1           0       -1.095027    0.274511    1.925321
      9          1           0        2.220534    0.888640   -0.329830
     10          1           0        2.088331   -0.136640    0.935511
     11          1           0        0.863099   -0.459717   -1.684162
     12          1           0        0.870131   -1.688360   -0.410903
     13          1           0       -0.445035    1.664757   -1.370974
     14          1           0        0.306138    2.034026    0.191149
     15          1           0       -1.444417    1.900690    0.066283
     16          1           0       -1.690751   -0.592639   -1.634127
     17          1           0       -2.551241   -0.326500   -0.115446
     18          1           0       -1.585236   -1.789474   -0.341710
 ---------------------------------------------------------------------

 SCF Done:  E(RHF) =  -267.392770438     a.u. after    5 cycles
 SCF Done:  E(RHF) =  -267.392790487     A.U. after    9 cycles
 E2 =    -0.9748099816D+00 EUMP2 =    -0.26836760046904D+03

 The electronic state is 1-A.
 Alpha  occ. eigenvalues --  -15.54500 -15.53969 -11.25928 -11.24588 -11.21456
 Alpha  occ. eigenvalues --  -11.21428  -1.21104  -1.15773  -1.02197  -0.93671
 Alpha  occ. eigenvalues --   -0.89467  -0.75589  -0.67866  -0.65713  -0.61676
 Alpha  occ. eigenvalues --   -0.60318  -0.58383  -0.54405  -0.53100  -0.51371
 Alpha  occ. eigenvalues --   -0.50481  -0.49925  -0.46860  -0.39099  -0.37808
 Alpha virt. eigenvalues --    0.03731   0.04715   0.04864   0.05013   0.06834
 Alpha virt. eigenvalues --    0.06912   0.07129   0.07247   0.07507   0.09485
 Alpha virt. eigenvalues --    0.09787   0.10065   0.12792   0.14190   0.14528

 Mulliken charges:
               1
     1  C   -3.362273
     2  C    1.601639
     3  N   -0.140859
     4  C    1.412645
     5  C    1.272027
     6  N   -0.570537
     7  H    0.004582
     8  H   -0.039480
     9  H    0.022705
    10  H    0.086103
    11  H   -0.122220
    12  H   -0.082587
    13  H    0.024430
    14  H    0.000713
    15  H   -0.045450
    16  H    0.018002
    17  H   -0.021376
    18  H   -0.058065
 Sum of Mulliken charges =   0.00000

 Dipole moment (field-independent basis, Debye):
    X=             -2.6578    Y=              0.2813    Z=              0.2258  Tot=              2.6822
 Quadrupole moment (field-independent basis, Debye-Ang):
   XX=            -46.3362   YY=            -38.6961   ZZ=            -39.5364
   XY=              2.3646   XZ=             -0.6285   YZ=             -2.1409

 Normal termination of Gaussian 16 at Mon Nov 15 12:13:32 2021.
