 Gaussian 16, Revision C.01,
 Gaussian 16:  ES64L-G16RevC.01  3-Jul-2019

 ---------------------------------------------------------------------
 #P MP2/aug-cc-pVDZ SP SCF=(YQC,MaxCycle=900) int=(Grid=Superfinegrid)
 ---------------------------------------------------------------------

 -----------------
 _ami3_opt_gas_mp2
 -----------------
 Symbolic Z-matrix:
 Charge =  0 Multiplicity = 1

                         Standard orientation:
 ---------------------------------------------------------------------
 Center     Atomic      Atomic             Coordinates (Angstroms)
 Number     Number       Type             X           Y           Z
 ---------------------------------------------------------------------
      1          6           0        0.634200    0.690671   -0.300960
      2          6           0        0.606895   -0.731096    0.297165
      3          7           0        1.885921    1.331393    0.081961
      4          7           0        1.766191   -1.528095   -0.066520
      5          1           0        1.949879    2.255579   -0.331471
      6          1           0        1.918666    1.444632    1.091077
      7          1           0        2.605207   -1.001041    0.155511
      8          1           0        1.770759   -1.681085   -1.070901
      9          6           0       -0.671922   -1.451595   -0.127679
     10          1           0        0.620982   -0.641476    1.391753
     11          6           0       -1.910977   -0.672865    0.300471
     12          1           0       -0.673940   -2.448982    0.313300
     13          1           0       -0.669389   -1.566248   -1.214702
     14          6           0       -1.887677    0.732745   -0.292318
     15          1           0       -1.939325   -0.606647    1.390399
     16          1           0       -2.809935   -1.199116   -0.026534
     17          6           0       -0.618728    1.466308    0.128653
     18          1           0       -2.765386    1.293147    0.037259
     19          1           0       -1.922193    0.667604   -1.382457
     20          1           0       -0.607701    1.580788    1.216802
     21          1           0       -0.599585    2.466858   -0.313880
     22          1           0        0.646440    0.607898   -1.396233
 ---------------------------------------------------------------------

 SCF Done:  E(RHF) =  -344.307261641     a.u. after    5 cycles
 SCF Done:  E(RHF) =  -344.307309359     A.U. after    9 cycles
 E2 =    -0.1250251744D+01 EUMP2 =    -0.34555756110301D+03

 The electronic state is 1-A.
 Alpha  occ. eigenvalues --  -15.54767 -15.53112 -11.25168 -11.24806 -11.22224
 Alpha  occ. eigenvalues --  -11.22158 -11.22025 -11.21648  -1.21033  -1.15659
 Alpha  occ. eigenvalues --   -1.09256  -0.99220  -0.95734  -0.82928  -0.81224
 Alpha  occ. eigenvalues --   -0.77078  -0.66842  -0.65254  -0.63538  -0.61451
 Alpha  occ. eigenvalues --   -0.59188  -0.57929  -0.54949  -0.54800  -0.52092
 Alpha  occ. eigenvalues --   -0.48753  -0.48423  -0.46541  -0.45822  -0.44424
 Alpha  occ. eigenvalues --   -0.38571  -0.37022
 Alpha virt. eigenvalues --    0.03416   0.04054   0.04133   0.04587   0.06073
 Alpha virt. eigenvalues --    0.06343   0.06447   0.06558   0.06747   0.08792
 Alpha virt. eigenvalues --    0.08915   0.09046   0.09470   0.09778   0.13121

 Mulliken charges:
               1
     1  C    0.096227
     2  C   -0.029078
     3  N   -0.379460
     4  N   -0.348581
     5  H   -0.068136
     6  H    0.047400
     7  H    0.043148
     8  H    0.002963
     9  C    0.639974
    10  H   -0.269702
    11  C    0.409474
    12  H   -0.097085
    13  H   -0.112557
    14  C    0.372500
    15  H   -0.101457
    16  H   -0.140609
    17  C    0.628071
    18  H   -0.148303
    19  H   -0.117708
    20  H   -0.080250
    21  H   -0.126437
    22  H   -0.220396
 Sum of Mulliken charges =   0.00000

 Dipole moment (field-independent basis, Debye):
    X=             -1.1105    Y=              2.0236    Z=             -0.2765  Tot=              2.3248
 Quadrupole moment (field-independent basis, Debye-Ang):
   XX=            -55.6265   YY=            -54.4624   ZZ=            -49.1837
   XY=              3.6793   XZ=             -0.1009   YZ=              1.9763

 Normal termination of Gaussian 16 at Tue Nov  9 08:03:43 2021.
