 Gaussian 16, Revision C.01,
 Gaussian 16:  ES64L-G16RevC.01  3-Jul-2019

 ----------------------------------------------------------------------
 #P PBE1PBE/Def2TZVP SP SCF=(YQC,MaxCycle=900) int=(Grid=Superfinegrid)
  EmpiricalDispersion=GD3 SCRF=(PCM,Solvent=Chloroform)
 ----------------------------------------------------------------------

 -------------
 _ami3_opt_cfm
 -------------
 Symbolic Z-matrix:
 Charge =  0 Multiplicity = 1

                         Standard orientation:
 ---------------------------------------------------------------------
 Center     Atomic      Atomic             Coordinates (Angstroms)
 Number     Number       Type             X           Y           Z
 ---------------------------------------------------------------------
      1          6           0        0.634200    0.690671   -0.300960
      2          6           0        0.606895   -0.731096    0.297165
      3          7           0        1.885921    1.331393    0.081961
      4          7           0        1.766191   -1.528095   -0.066520
      5          1           0        1.949879    2.255579   -0.331471
      6          1           0        1.918666    1.444632    1.091077
      7          1           0        2.605207   -1.001041    0.155511
      8          1           0        1.770759   -1.681085   -1.070901
      9          6           0       -0.671922   -1.451595   -0.127679
     10          1           0        0.620982   -0.641476    1.391753
     11          6           0       -1.910977   -0.672865    0.300471
     12          1           0       -0.673940   -2.448982    0.313300
     13          1           0       -0.669389   -1.566248   -1.214702
     14          6           0       -1.887677    0.732745   -0.292318
     15          1           0       -1.939325   -0.606647    1.390399
     16          1           0       -2.809935   -1.199116   -0.026534
     17          6           0       -0.618728    1.466308    0.128653
     18          1           0       -2.765386    1.293147    0.037259
     19          1           0       -1.922193    0.667604   -1.382457
     20          1           0       -0.607701    1.580788    1.216802
     21          1           0       -0.599585    2.466858   -0.313880
     22          1           0        0.646440    0.607898   -1.396233
 ---------------------------------------------------------------------

 SCF Done:  E(RPBE1PBE) =  -346.308682159     a.u. after    5 cycles
 SCF Done:  E(RPBE1PBE) =  -346.308711394     A.U. after    8 cycles

 The electronic state is 1-A.
 Alpha  occ. eigenvalues --  -14.35891 -14.34950 -10.24014 -10.23967 -10.21071
 Alpha  occ. eigenvalues --  -10.21042 -10.20928 -10.20877  -0.93134  -0.88721
 Alpha  occ. eigenvalues --   -0.83347  -0.75064  -0.72356  -0.62341  -0.61076
 Alpha  occ. eigenvalues --   -0.58200  -0.50783  -0.49756  -0.48258  -0.46154
 Alpha  occ. eigenvalues --   -0.44286  -0.43205  -0.40900  -0.40571  -0.38299
 Alpha  occ. eigenvalues --   -0.35345  -0.35209  -0.33538  -0.33056  -0.31857
 Alpha  occ. eigenvalues --   -0.25216  -0.24535
 Alpha virt. eigenvalues --    0.04685   0.05292   0.05568   0.07057   0.09778
 Alpha virt. eigenvalues --    0.10997   0.11178   0.12127   0.12249   0.13311
 Alpha virt. eigenvalues --    0.13749   0.14025   0.16072   0.16738   0.16957

 Mulliken charges:
               1
     1  C   -0.019472
     2  C   -0.016266
     3  N   -0.533801
     4  N   -0.515863
     5  H    0.227985
     6  H    0.226548
     7  H    0.227218
     8  H    0.217066
     9  C   -0.191635
    10  H    0.083129
    11  C   -0.189577
    12  H    0.109542
    13  H    0.094064
    14  C   -0.192643
    15  H    0.093745
    16  H    0.109084
    17  C   -0.199525
    18  H    0.108812
    19  H    0.092199
    20  H    0.091366
    21  H    0.102086
    22  H    0.075938
 Sum of Mulliken charges =   0.00000

 Dipole moment (field-independent basis, Debye):
    X=             -1.1519    Y=              2.3452    Z=             -0.3173  Tot=              2.6320
 Quadrupole moment (field-independent basis, Debye-Ang):
   XX=            -54.9600   YY=            -53.7208   ZZ=            -48.4444
   XY=              3.9866   XZ=             -0.0938   YZ=              2.2094

 Normal termination of Gaussian 16 at Sun Oct 17 22:23:00 2021.
