 Gaussian 16, Revision C.01,
 Gaussian 16:  ES64L-G16RevC.01  3-Jul-2019

 ----------------------------------------------------------------------
 #P PBE1PBE/Def2TZVP SP SCF=(YQC,MaxCycle=900) int=(Grid=Superfinegrid)
  EmpiricalDispersion=GD3
 ----------------------------------------------------------------------

 -------------
 _ami3_opt_gas
 -------------
 Symbolic Z-matrix:
 Charge =  0 Multiplicity = 1

                         Standard orientation:
 ---------------------------------------------------------------------
 Center     Atomic      Atomic             Coordinates (Angstroms)
 Number     Number       Type             X           Y           Z
 ---------------------------------------------------------------------
      1          6           0        0.634200    0.690671   -0.300960
      2          6           0        0.606895   -0.731096    0.297165
      3          7           0        1.885921    1.331393    0.081961
      4          7           0        1.766191   -1.528095   -0.066520
      5          1           0        1.949879    2.255579   -0.331471
      6          1           0        1.918666    1.444632    1.091077
      7          1           0        2.605207   -1.001041    0.155511
      8          1           0        1.770759   -1.681085   -1.070901
      9          6           0       -0.671922   -1.451595   -0.127679
     10          1           0        0.620982   -0.641476    1.391753
     11          6           0       -1.910977   -0.672865    0.300471
     12          1           0       -0.673940   -2.448982    0.313300
     13          1           0       -0.669389   -1.566248   -1.214702
     14          6           0       -1.887677    0.732745   -0.292318
     15          1           0       -1.939325   -0.606647    1.390399
     16          1           0       -2.809935   -1.199116   -0.026534
     17          6           0       -0.618728    1.466308    0.128653
     18          1           0       -2.765386    1.293147    0.037259
     19          1           0       -1.922193    0.667604   -1.382457
     20          1           0       -0.607701    1.580788    1.216802
     21          1           0       -0.599585    2.466858   -0.313880
     22          1           0        0.646440    0.607898   -1.396233
 ---------------------------------------------------------------------

 SCF Done:  E(RPBE1PBE) =  -346.303824096     a.u. after    5 cycles
 SCF Done:  E(RPBE1PBE) =  -346.303849652     A.U. after    8 cycles

 The electronic state is 1-A.
 Alpha  occ. eigenvalues --  -14.36111 -14.34405 -10.24216 -10.23946 -10.21393
 Alpha  occ. eigenvalues --  -10.21309 -10.21262 -10.20908  -0.93154  -0.88603
 Alpha  occ. eigenvalues --   -0.83529  -0.75245  -0.72468  -0.62514  -0.61192
 Alpha  occ. eigenvalues --   -0.58413  -0.50940  -0.49771  -0.48222  -0.46299
 Alpha  occ. eigenvalues --   -0.44386  -0.43394  -0.40967  -0.40730  -0.38454
 Alpha  occ. eigenvalues --   -0.35585  -0.35359  -0.33748  -0.33193  -0.31957
 Alpha  occ. eigenvalues --   -0.25225  -0.23936
 Alpha virt. eigenvalues --    0.04083   0.04783   0.05257   0.06948   0.09468
 Alpha virt. eigenvalues --    0.10517   0.10820   0.11887   0.11989   0.13089
 Alpha virt. eigenvalues --    0.13432   0.13922   0.15933   0.16325   0.16745

 Mulliken charges:
               1
     1  C   -0.023366
     2  C   -0.027930
     3  N   -0.497475
     4  N   -0.468729
     5  H    0.213292
     6  H    0.212737
     7  H    0.223232
     8  H    0.201275
     9  C   -0.190567
    10  H    0.074356
    11  C   -0.184012
    12  H    0.118226
    13  H    0.084411
    14  C   -0.186059
    15  H    0.090059
    16  H    0.106505
    17  C   -0.186949
    18  H    0.106219
    19  H    0.087960
    20  H    0.084011
    21  H    0.095240
    22  H    0.067564
 Sum of Mulliken charges =   0.00000

 Dipole moment (field-independent basis, Debye):
    X=             -0.9320    Y=              1.9418    Z=             -0.2664  Tot=              2.1703
 Quadrupole moment (field-independent basis, Debye-Ang):
   XX=            -54.5105   YY=            -53.4991   ZZ=            -48.7427
   XY=              3.6067   XZ=             -0.0813   YZ=              1.9581

 1\1\GINC-CX3-6-10\SP\RPBE1PBE\def2TZVP\C6H14N2\ATARZIA\18-Oct-2021\0\\
 #P PBE1PBE/Def2TZVP SP SCF=(YQC,MaxCycle=900) int=(Grid=Superfinegrid)
  EmpiricalDispersion=GD3\\_ami3_opt_gas\\0,1\C,0,0.5657,-0.4062,1.9071
 \C,0,1.7457,-0.5905,0.9306\N,0,1.0823,-0.4322,3.2696\N,0,2.8127,0.375,
 1.1325\H,0,0.3325,-0.2729,3.9341\H,0,1.4787,-1.3462,3.4688\H,0,3.0797,
 0.3638,2.1121\H,0,2.4672,1.309,0.9313\C,0,1.246,-0.5174,-0.5116\H,0,2.
 1843,-1.5817,1.1081\C,0,0.171,-1.566,-0.7758\H,0,2.0938,-0.6592,-1.182
 7\H,0,0.8373,0.4797,-0.6947\C,0,-0.9985,-1.3839,0.1869\H,0,0.5969,-2.5

 Normal termination of Gaussian 16 at Mon Oct 18 12:34:21 2021.
