 Gaussian 16, Revision C.01,
 Gaussian 16:  ES64L-G16RevC.01  3-Jul-2019

 ----------------------------------------------------------------------
 #P PBE1PBE/Def2TZVP SP SCF=(YQC,MaxCycle=900) int=(Grid=Superfinegrid)
  EmpiricalDispersion=GD3 SCRF=(PCM,Solvent=Dichloromethane)
 ----------------------------------------------------------------------

 -------------
 _ami3_opt_dcm
 -------------
 Symbolic Z-matrix:
 Charge =  0 Multiplicity = 1

                         Standard orientation:
 ---------------------------------------------------------------------
 Center     Atomic      Atomic             Coordinates (Angstroms)
 Number     Number       Type             X           Y           Z
 ---------------------------------------------------------------------
      1          6           0        0.634200    0.690671   -0.300960
      2          6           0        0.606895   -0.731096    0.297165
      3          7           0        1.885921    1.331393    0.081961
      4          7           0        1.766191   -1.528095   -0.066520
      5          1           0        1.949879    2.255579   -0.331471
      6          1           0        1.918666    1.444632    1.091077
      7          1           0        2.605207   -1.001041    0.155511
      8          1           0        1.770759   -1.681085   -1.070901
      9          6           0       -0.671922   -1.451595   -0.127679
     10          1           0        0.620982   -0.641476    1.391753
     11          6           0       -1.910977   -0.672865    0.300471
     12          1           0       -0.673940   -2.448982    0.313300
     13          1           0       -0.669389   -1.566248   -1.214702
     14          6           0       -1.887677    0.732745   -0.292318
     15          1           0       -1.939325   -0.606647    1.390399
     16          1           0       -2.809935   -1.199116   -0.026534
     17          6           0       -0.618728    1.466308    0.128653
     18          1           0       -2.765386    1.293147    0.037259
     19          1           0       -1.922193    0.667604   -1.382457
     20          1           0       -0.607701    1.580788    1.216802
     21          1           0       -0.599585    2.466858   -0.313880
     22          1           0        0.646440    0.607898   -1.396233
 ---------------------------------------------------------------------

 SCF Done:  E(RPBE1PBE) =  -346.309717738     a.u. after    5 cycles
 SCF Done:  E(RPBE1PBE) =  -346.309745869     A.U. after    8 cycles

 The electronic state is 1-A.
 Alpha  occ. eigenvalues --  -14.35861 -14.35083 -10.23995 -10.23971 -10.21025
 Alpha  occ. eigenvalues --  -10.20998 -10.20888 -10.20852  -0.93150  -0.88758
 Alpha  occ. eigenvalues --   -0.83321  -0.75038  -0.72344  -0.62317  -0.61064
 Alpha  occ. eigenvalues --   -0.58165  -0.50766  -0.49775  -0.48276  -0.46136
 Alpha  occ. eigenvalues --   -0.44281  -0.43173  -0.40900  -0.40549  -0.38279
 Alpha  occ. eigenvalues --   -0.35308  -0.35186  -0.33508  -0.33035  -0.31850
 Alpha  occ. eigenvalues --   -0.25241  -0.24663
 Alpha virt. eigenvalues --    0.04790   0.05395   0.05617   0.07065   0.09826
 Alpha virt. eigenvalues --    0.11063   0.11255   0.12155   0.12298   0.13340
 Alpha virt. eigenvalues --    0.13806   0.14043   0.16084   0.16807   0.17001

 Mulliken charges:
               1
     1  C   -0.018894
     2  C   -0.013341
     3  N   -0.541589
     4  N   -0.525814
     5  H    0.230952
     6  H    0.229440
     7  H    0.227899
     8  H    0.220401
     9  C   -0.191880
    10  H    0.085184
    11  C   -0.190712
    12  H    0.107139
    13  H    0.096492
    14  C   -0.194110
    15  H    0.094530
    16  H    0.109500
    17  C   -0.202347
    18  H    0.109257
    19  H    0.093200
    20  H    0.093126
    21  H    0.103570
    22  H    0.077998
 Sum of Mulliken charges =   0.00000

 Dipole moment (field-independent basis, Debye):
    X=             -1.1995    Y=              2.4366    Z=             -0.3296  Tot=              2.7357
 Quadrupole moment (field-independent basis, Debye-Ang):
   XX=            -55.0683   YY=            -53.7796   ZZ=            -48.3759
   XY=              4.0612   XZ=             -0.0922   YZ=              2.2667

 Normal termination of Gaussian 16 at Sun Oct 17 22:00:18 2021.
