 Gaussian 16, Revision C.01,
 Gaussian 16:  ES64L-G16RevC.01  3-Jul-2019

 ----------------------------------------------------------------------
 #P MP2/aug-cc-pVDZ SP SCF=(YQC,MaxCycle=900) int=(Grid=Superfinegrid)
 SCRF=(PCM,Solvent=Dichloromethane)
 ----------------------------------------------------------------------

 -----------------
 _ami3_opt_dcm_mp2
 -----------------
 Symbolic Z-matrix:
 Charge =  0 Multiplicity = 1

                         Standard orientation:
 ---------------------------------------------------------------------
 Center     Atomic      Atomic             Coordinates (Angstroms)
 Number     Number       Type             X           Y           Z
 ---------------------------------------------------------------------
      1          6           0        0.634200    0.690671   -0.300960
      2          6           0        0.606895   -0.731096    0.297165
      3          7           0        1.885921    1.331393    0.081961
      4          7           0        1.766191   -1.528095   -0.066520
      5          1           0        1.949879    2.255579   -0.331471
      6          1           0        1.918666    1.444632    1.091077
      7          1           0        2.605207   -1.001041    0.155511
      8          1           0        1.770759   -1.681085   -1.070901
      9          6           0       -0.671922   -1.451595   -0.127679
     10          1           0        0.620982   -0.641476    1.391753
     11          6           0       -1.910977   -0.672865    0.300471
     12          1           0       -0.673940   -2.448982    0.313300
     13          1           0       -0.669389   -1.566248   -1.214702
     14          6           0       -1.887677    0.732745   -0.292318
     15          1           0       -1.939325   -0.606647    1.390399
     16          1           0       -2.809935   -1.199116   -0.026534
     17          6           0       -0.618728    1.466308    0.128653
     18          1           0       -2.765386    1.293147    0.037259
     19          1           0       -1.922193    0.667604   -1.382457
     20          1           0       -0.607701    1.580788    1.216802
     21          1           0       -0.599585    2.466858   -0.313880
     22          1           0        0.646440    0.607898   -1.396233
 ---------------------------------------------------------------------

 SCF Done:  E(RHF) =  -344.313522393     a.u. after    5 cycles
 SCF Done:  E(RHF) =  -344.313558699     A.U. after    9 cycles
 E2 =    -0.1250047226D+01 EUMP2 =    -0.34556360592501D+03

 The electronic state is 1-A.
 Alpha  occ. eigenvalues --  -15.54511 -15.53871 -11.24898 -11.24820 -11.21769
 Alpha  occ. eigenvalues --  -11.21710 -11.21633 -11.21584  -1.21052  -1.15847
 Alpha  occ. eigenvalues --   -1.08999  -0.98965  -0.95584  -0.82695  -0.81045
 Alpha  occ. eigenvalues --   -0.76813  -0.66687  -0.65343  -0.63535  -0.61228
 Alpha  occ. eigenvalues --   -0.59099  -0.57646  -0.54942  -0.54556  -0.51873
 Alpha  occ. eigenvalues --   -0.48534  -0.48156  -0.46248  -0.45644  -0.44329
 Alpha  occ. eigenvalues --   -0.38616  -0.37475
 Alpha virt. eigenvalues --    0.03848   0.04346   0.04458   0.04582   0.06268
 Alpha virt. eigenvalues --    0.06513   0.06656   0.06735   0.06933   0.08990
 Alpha virt. eigenvalues --    0.09086   0.09212   0.09724   0.09847   0.13350

 Mulliken charges:
               1
     1  C    0.102823
     2  C   -0.002576
     3  N   -0.426136
     4  N   -0.405266
     5  H   -0.053791
     6  H    0.061991
     7  H    0.045696
     8  H    0.017466
     9  C    0.640161
    10  H   -0.260632
    11  C    0.408512
    12  H   -0.111098
    13  H   -0.103872
    14  C    0.374149
    15  H   -0.099038
    16  H   -0.140587
    17  C    0.625170
    18  H   -0.147546
    19  H   -0.115420
    20  H   -0.074861
    21  H   -0.120945
    22  H   -0.214199
 Sum of Mulliken charges =   0.00000

 Dipole moment (field-independent basis, Debye):
    X=             -1.4031    Y=              2.5381    Z=             -0.3460  Tot=              2.9207
 Quadrupole moment (field-independent basis, Debye-Ang):
   XX=            -56.2961   YY=            -54.8573   ZZ=            -48.8128
   XY=              4.1754   XZ=             -0.1259   YZ=              2.3181

 Normal termination of Gaussian 16 at Tue Oct 26 04:31:16 2021.
