 Gaussian 16, Revision C.01,
 Gaussian 16:  ES64L-G16RevC.01  3-Jul-2019

 ----------------------------------------------------------------------
 #P MP2/aug-cc-pVDZ SP SCF=(YQC,MaxCycle=900) int=(Grid=Superfinegrid)
 SCRF=(PCM,Solvent=Chloroform)
 ----------------------------------------------------------------------

 -----------------
 _ami3_opt_cfm_mp2
 -----------------
 Symbolic Z-matrix:
 Charge =  0 Multiplicity = 1

                         Standard orientation:
 ---------------------------------------------------------------------
 Center     Atomic      Atomic             Coordinates (Angstroms)
 Number     Number       Type             X           Y           Z
 ---------------------------------------------------------------------
      1          6           0        0.634200    0.690671   -0.300960
      2          6           0        0.606895   -0.731096    0.297165
      3          7           0        1.885921    1.331393    0.081961
      4          7           0        1.766191   -1.528095   -0.066520
      5          1           0        1.949879    2.255579   -0.331471
      6          1           0        1.918666    1.444632    1.091077
      7          1           0        2.605207   -1.001041    0.155511
      8          1           0        1.770759   -1.681085   -1.070901
      9          6           0       -0.671922   -1.451595   -0.127679
     10          1           0        0.620982   -0.641476    1.391753
     11          6           0       -1.910977   -0.672865    0.300471
     12          1           0       -0.673940   -2.448982    0.313300
     13          1           0       -0.669389   -1.566248   -1.214702
     14          6           0       -1.887677    0.732745   -0.292318
     15          1           0       -1.939325   -0.606647    1.390399
     16          1           0       -2.809935   -1.199116   -0.026534
     17          6           0       -0.618728    1.466308    0.128653
     18          1           0       -2.765386    1.293147    0.037259
     19          1           0       -1.922193    0.667604   -1.382457
     20          1           0       -0.607701    1.580788    1.216802
     21          1           0       -0.599585    2.466858   -0.313880
     22          1           0        0.646440    0.607898   -1.396233
 ---------------------------------------------------------------------

 SCF Done:  E(RHF) =  -344.312418928     a.u. after    5 cycles
 SCF Done:  E(RHF) =  -344.312456740     A.U. after    9 cycles
 E2 =    -0.1250074394D+01 EUMP2 =    -0.34556253113401D+03

 The electronic state is 1-A.
 Alpha  occ. eigenvalues --  -15.54541 -15.53722 -11.24932 -11.24810 -11.21832
 Alpha  occ. eigenvalues --  -11.21758 -11.21717 -11.21581  -1.21032  -1.15804
 Alpha  occ. eigenvalues --   -1.09032  -0.98997  -0.95600  -0.82724  -0.81064
 Alpha  occ. eigenvalues --   -0.76850  -0.66699  -0.65308  -0.63527  -0.61256
 Alpha  occ. eigenvalues --   -0.59100  -0.57688  -0.54932  -0.54587  -0.51898
 Alpha  occ. eigenvalues --   -0.48557  -0.48194  -0.46287  -0.45667  -0.44332
 Alpha  occ. eigenvalues --   -0.38585  -0.37399
 Alpha virt. eigenvalues --    0.03795   0.04319   0.04411   0.04590   0.06249
 Alpha virt. eigenvalues --    0.06507   0.06625   0.06708   0.06900   0.08974
 Alpha virt. eigenvalues --    0.09061   0.09185   0.09694   0.09837   0.13327

 Mulliken charges:
               1
     1  C    0.102015
     2  C   -0.007927
     3  N   -0.417571
     4  N   -0.394796
     5  H   -0.056285
     6  H    0.059351
     7  H    0.045264
     8  H    0.014889
     9  C    0.639999
    10  H   -0.262421
    11  C    0.408754
    12  H   -0.108124
    13  H   -0.105713
    14  C    0.373954
    15  H   -0.099525
    16  H   -0.140520
    17  C    0.625960
    18  H   -0.147645
    19  H   -0.115972
    20  H   -0.076071
    21  H   -0.122063
    22  H   -0.215553
 Sum of Mulliken charges =   0.00000

 Dipole moment (field-independent basis, Debye):
    X=             -1.3516    Y=              2.4428    Z=             -0.3325  Tot=              2.8115
 Quadrupole moment (field-independent basis, Debye-Ang):
   XX=            -56.1666   YY=            -54.7762   ZZ=            -48.8822
   XY=              4.0922   XZ=             -0.1248   YZ=              2.2541

 Normal termination of Gaussian 16 at Tue Oct 26 07:46:17 2021.
