 Gaussian 16, Revision C.01,
 Gaussian 16:  ES64L-G16RevC.01  3-Jul-2019

 ---------------------------------------------------------------------
 #P MP2/aug-cc-pVDZ SP SCF=(YQC,MaxCycle=900) int=(Grid=Superfinegrid)
 ---------------------------------------------------------------------

 -----------------
 _ami4_opt_gas_mp2
 -----------------
 Symbolic Z-matrix:
 Charge =  0 Multiplicity = 1

                         Standard orientation:
 ---------------------------------------------------------------------
 Center     Atomic      Atomic             Coordinates (Angstroms)
 Number     Number       Type             X           Y           Z
 ---------------------------------------------------------------------
      1          6           0        0.726573    0.580760    0.315576
      2          6           0       -0.687108    0.614822   -0.286409
      3          7           0        1.516238   -0.565022   -0.090041
      4          7           0       -1.395162   -0.602517    0.081956
      5          1           0        1.651834   -0.548515   -1.096502
      6          1           0        0.992525   -1.409003    0.122829
      7          1           0       -1.509090   -0.645361    1.090155
      8          1           0       -2.319186   -0.618636   -0.335055
      9          1           0       -0.616803    0.636153   -1.378826
     10          1           0       -1.195541    1.538069    0.040011
     11          1           0        0.649655    0.556064    1.407141
     12          1           0        1.262285    1.490506    0.031844
 ---------------------------------------------------------------------

 SCF Done:  E(RHF) =  -189.307434428     a.u. after    5 cycles
 SCF Done:  E(RHF) =  -189.307445845     A.U. after    9 cycles
 E2 =    -0.6687241788D+00 EUMP2 =    -0.18997617002353D+03

 The electronic state is 1-A.
 Alpha  occ. eigenvalues --  -15.55235 -15.53592 -11.25341 -11.24928  -1.20145
 Alpha  occ. eigenvalues --   -1.15453  -0.95070  -0.81615  -0.68597  -0.64784
 Alpha  occ. eigenvalues --   -0.62512  -0.57462  -0.55673  -0.51403  -0.49193
 Alpha  occ. eigenvalues --   -0.39838  -0.37797
 Alpha virt. eigenvalues --    0.03398   0.04584   0.04801   0.05213   0.07200
 Alpha virt. eigenvalues --    0.07445   0.07695   0.08267   0.11757   0.13463
 Alpha virt. eigenvalues --    0.14769   0.15292   0.16925   0.17174   0.17874

 Mulliken charges:
               1
     1  C    0.653016
     2  C    0.699560
     3  N   -0.435502
     4  N   -0.425038
     5  H    0.008060
     6  H    0.070155
     7  H    0.043968
     8  H   -0.052017
     9  H   -0.176453
    10  H   -0.107811
    11  H   -0.156954
    12  H   -0.120983
 Sum of Mulliken charges =   0.00000

 Dipole moment (field-independent basis, Debye):
    X=             -2.1142    Y=              0.9339    Z=             -0.2850  Tot=              2.3287
 Quadrupole moment (field-independent basis, Debye-Ang):
   XX=            -28.9635   YY=            -27.6416   ZZ=            -24.2528
   XY=              0.9088   XZ=             -2.3717   YZ=             -0.3640

 Normal termination of Gaussian 16 at Fri Nov  5 12:05:07 2021.
