 Gaussian 16, Revision C.01,
 Gaussian 16:  ES64L-G16RevC.01  3-Jul-2019

 ----------------------------------------------------------------------
 #P PBE1PBE/Def2TZVP SP SCF=(YQC,MaxCycle=900) int=(Grid=Superfinegrid)
  EmpiricalDispersion=GD3
 ----------------------------------------------------------------------

 -------------
 _ami4_opt_gas
 -------------
 Symbolic Z-matrix:
 Charge =  0 Multiplicity = 1

                         Standard orientation:
 ---------------------------------------------------------------------
 Center     Atomic      Atomic             Coordinates (Angstroms)
 Number     Number       Type             X           Y           Z
 ---------------------------------------------------------------------
      1          6           0        0.726573    0.580760    0.315576
      2          6           0       -0.687108    0.614822   -0.286409
      3          7           0        1.516238   -0.565022   -0.090041
      4          7           0       -1.395162   -0.602517    0.081956
      5          1           0        1.651834   -0.548515   -1.096502
      6          1           0        0.992525   -1.409003    0.122829
      7          1           0       -1.509090   -0.645361    1.090155
      8          1           0       -2.319186   -0.618636   -0.335055
      9          1           0       -0.616803    0.636153   -1.378826
     10          1           0       -1.195541    1.538069    0.040011
     11          1           0        0.649655    0.556064    1.407141
     12          1           0        1.262285    1.490506    0.031844
 ---------------------------------------------------------------------

 SCF Done:  E(RPBE1PBE) =  -190.371448395     a.u. after    6 cycles
 SCF Done:  E(RPBE1PBE) =  -190.371449070     A.U. after    7 cycles

 The electronic state is 1-A.
 Alpha  occ. eigenvalues --  -14.36412 -14.34741 -10.23962 -10.23626  -0.92384
 Alpha  occ. eigenvalues --   -0.88396  -0.71997  -0.61653  -0.52382  -0.49194
 Alpha  occ. eigenvalues --   -0.47032  -0.42957  -0.41564  -0.37627  -0.35757
 Alpha  occ. eigenvalues --   -0.25884  -0.24270
 Alpha virt. eigenvalues --    0.03633   0.06777   0.08254   0.08351   0.12191
 Alpha virt. eigenvalues --    0.13078   0.13879   0.15023   0.16860   0.19484
 Alpha virt. eigenvalues --    0.22173   0.24490   0.28306   0.29814   0.32518

 Mulliken charges:
               1
     1  C   -0.121352
     2  C   -0.126011
     3  N   -0.486196
     4  N   -0.527940
     5  H    0.204432
     6  H    0.224249
     7  H    0.218751
     8  H    0.219684
     9  H    0.096648
    10  H    0.086614
    11  H    0.103017
    12  H    0.108103
 Sum of Mulliken charges =   0.00000

 Dipole moment (field-independent basis, Debye):
    X=             -2.0591    Y=              0.7808    Z=             -0.2785  Tot=              2.2197
 Quadrupole moment (field-independent basis, Debye-Ang):
   XX=            -28.3024   YY=            -27.4072   ZZ=            -24.0773
   XY=              0.9239   XZ=             -2.4263   YZ=             -0.3814

 Normal termination of Gaussian 16 at Mon Oct 18 06:44:25 2021.
