 Gaussian 16, Revision C.01,
 Gaussian 16:  ES64L-G16RevC.01  3-Jul-2019

 ----------------------------------------------------------------------
 #P MP2/aug-cc-pVDZ SP SCF=(YQC,MaxCycle=900) int=(Grid=Superfinegrid)
 SCRF=(PCM,Solvent=Chloroform)
 ----------------------------------------------------------------------

 -----------------
 _ami4_opt_cfm_mp2
 -----------------
 Symbolic Z-matrix:
 Charge =  0 Multiplicity = 1

                         Standard orientation:
 ---------------------------------------------------------------------
 Center     Atomic      Atomic             Coordinates (Angstroms)
 Number     Number       Type             X           Y           Z
 ---------------------------------------------------------------------
      1          6           0        0.726573    0.580760    0.315576
      2          6           0       -0.687108    0.614822   -0.286409
      3          7           0        1.516238   -0.565022   -0.090041
      4          7           0       -1.395162   -0.602517    0.081956
      5          1           0        1.651834   -0.548515   -1.096502
      6          1           0        0.992525   -1.409003    0.122829
      7          1           0       -1.509090   -0.645361    1.090155
      8          1           0       -2.319186   -0.618636   -0.335055
      9          1           0       -0.616803    0.636153   -1.378826
     10          1           0       -1.195541    1.538069    0.040011
     11          1           0        0.649655    0.556064    1.407141
     12          1           0        1.262285    1.490506    0.031844
 ---------------------------------------------------------------------

 SCF Done:  E(RHF) =  -189.312644222     a.u. after    5 cycles
 SCF Done:  E(RHF) =  -189.312656343     A.U. after    8 cycles
 E2 =    -0.6685791483D+00 EUMP2 =    -0.18998123549169D+03

 The electronic state is 1-A.
 Alpha  occ. eigenvalues --  -15.54899 -15.54146 -11.25022 -11.24887  -1.20097
 Alpha  occ. eigenvalues --   -1.15553  -0.94958  -0.81513  -0.68557  -0.64747
 Alpha  occ. eigenvalues --   -0.62349  -0.57396  -0.55728  -0.51391  -0.49073
 Alpha  occ. eigenvalues --   -0.39793  -0.38233
 Alpha virt. eigenvalues --    0.03803   0.04910   0.05011   0.05257   0.07383
 Alpha virt. eigenvalues --    0.07603   0.07928   0.08325   0.11771   0.13720
 Alpha virt. eigenvalues --    0.14733   0.15540   0.17310   0.17508   0.18052

 Mulliken charges:
               1
     1  C    0.666754
     2  C    0.695695
     3  N   -0.471036
     4  N   -0.456408
     5  H    0.019817
     6  H    0.073348
     7  H    0.055536
     8  H   -0.041439
     9  H   -0.171303
    10  H   -0.099891
    11  H   -0.153330
    12  H   -0.117744
 Sum of Mulliken charges =   0.00000

 Dipole moment (field-independent basis, Debye):
    X=             -2.4540    Y=              1.1451    Z=             -0.3264  Tot=              2.7277
 Quadrupole moment (field-independent basis, Debye-Ang):
   XX=            -29.2237   YY=            -27.7049   ZZ=            -24.0708
   XY=              0.9302   XZ=             -2.6289   YZ=             -0.3704

 Normal termination of Gaussian 16 at Mon Nov  8 15:39:50 2021.
