 Gaussian 16, Revision C.01,
 Gaussian 16:  ES64L-G16RevC.01  3-Jul-2019

 ----------------------------------------------------------------------
 #P PBE1PBE/Def2TZVP SP SCF=(YQC,MaxCycle=900) int=(Grid=Superfinegrid)
  EmpiricalDispersion=GD3 SCRF=(PCM,Solvent=Chloroform)
 ----------------------------------------------------------------------

 -------------
 _ami4_opt_cfm
 -------------
 Symbolic Z-matrix:
 Charge =  0 Multiplicity = 1

                         Standard orientation:
 ---------------------------------------------------------------------
 Center     Atomic      Atomic             Coordinates (Angstroms)
 Number     Number       Type             X           Y           Z
 ---------------------------------------------------------------------
      1          6           0        0.726573    0.580760    0.315576
      2          6           0       -0.687108    0.614822   -0.286409
      3          7           0        1.516238   -0.565022   -0.090041
      4          7           0       -1.395162   -0.602517    0.081956
      5          1           0        1.651834   -0.548515   -1.096502
      6          1           0        0.992525   -1.409003    0.122829
      7          1           0       -1.509090   -0.645361    1.090155
      8          1           0       -2.319186   -0.618636   -0.335055
      9          1           0       -0.616803    0.636153   -1.378826
     10          1           0       -1.195541    1.538069    0.040011
     11          1           0        0.649655    0.556064    1.407141
     12          1           0        1.262285    1.490506    0.031844
 ---------------------------------------------------------------------

 SCF Done:  E(RPBE1PBE) =  -190.376443716     a.u. after    6 cycles
 SCF Done:  E(RPBE1PBE) =  -190.376444380     A.U. after    7 cycles

 The electronic state is 1-A.
 Alpha  occ. eigenvalues --  -14.36104 -14.35248 -10.23698 -10.23627  -0.92325
 Alpha  occ. eigenvalues --   -0.88485  -0.71910  -0.61571  -0.52320  -0.49143
 Alpha  occ. eigenvalues --   -0.46925  -0.42871  -0.41615  -0.37608  -0.35661
 Alpha  occ. eigenvalues --   -0.25867  -0.24850
 Alpha virt. eigenvalues --    0.04196   0.07286   0.08441   0.08803   0.12499
 Alpha virt. eigenvalues --    0.13514   0.14241   0.15220   0.16898   0.19737
 Alpha virt. eigenvalues --    0.22371   0.24688   0.28322   0.29490   0.32713

 Mulliken charges:
               1
     1  C   -0.113204
     2  C   -0.126605
     3  N   -0.534996
     4  N   -0.562360
     5  H    0.221506
     6  H    0.228902
     7  H    0.232864
     8  H    0.234270
     9  H    0.104264
    10  H    0.092360
    11  H    0.109677
    12  H    0.113322
 Sum of Mulliken charges =   0.00000

 Dipole moment (field-independent basis, Debye):
    X=             -2.3767    Y=              0.9639    Z=             -0.3149  Tot=              2.5840
 Quadrupole moment (field-independent basis, Debye-Ang):
   XX=            -28.4637   YY=            -27.4395   ZZ=            -23.8954
   XY=              0.9468   XZ=             -2.6438   YZ=             -0.3916

 Normal termination of Gaussian 16 at Mon Oct 18 11:33:56 2021.
