 Gaussian 16, Revision C.01,
 Gaussian 16:  ES64L-G16RevC.01  3-Jul-2019

 ----------------------------------------------------------------------
 #P PBE1PBE/Def2TZVP SP SCF=(YQC,MaxCycle=900) int=(Grid=Superfinegrid)
  EmpiricalDispersion=GD3 SCRF=(PCM,Solvent=Dichloromethane)
 ----------------------------------------------------------------------

 -------------
 _ami4_opt_dcm
 -------------
 Symbolic Z-matrix:
 Charge =  0 Multiplicity = 1

                         Standard orientation:
 ---------------------------------------------------------------------
 Center     Atomic      Atomic             Coordinates (Angstroms)
 Number     Number       Type             X           Y           Z
 ---------------------------------------------------------------------
      1          6           0        0.726573    0.580760    0.315576
      2          6           0       -0.687108    0.614822   -0.286409
      3          7           0        1.516238   -0.565022   -0.090041
      4          7           0       -1.395162   -0.602517    0.081956
      5          1           0        1.651834   -0.548515   -1.096502
      6          1           0        0.992525   -1.409003    0.122829
      7          1           0       -1.509090   -0.645361    1.090155
      8          1           0       -2.319186   -0.618636   -0.335055
      9          1           0       -0.616803    0.636153   -1.378826
     10          1           0       -1.195541    1.538069    0.040011
     11          1           0        0.649655    0.556064    1.407141
     12          1           0        1.262285    1.490506    0.031844
 ---------------------------------------------------------------------

 SCF Done:  E(RPBE1PBE) =  -190.377471923     a.u. after    6 cycles
 SCF Done:  E(RPBE1PBE) =  -190.377472346     A.U. after    7 cycles

 The electronic state is 1-A.
 Alpha  occ. eigenvalues --  -14.36057 -14.35364 -10.23654 -10.23629  -0.92332
 Alpha  occ. eigenvalues --   -0.88509  -0.71900  -0.61563  -0.52324  -0.49142
 Alpha  occ. eigenvalues --   -0.46911  -0.42864  -0.41631  -0.37613  -0.35646
 Alpha  occ. eigenvalues --   -0.25895  -0.24961
 Alpha virt. eigenvalues --    0.04289   0.07382   0.08452   0.08900   0.12550
 Alpha virt. eigenvalues --    0.13602   0.14306   0.15249   0.16896   0.19779
 Alpha virt. eigenvalues --    0.22408   0.24725   0.28302   0.29424   0.32743

 Mulliken charges:
               1
     1  C   -0.110889
     2  C   -0.127047
     3  N   -0.544971
     4  N   -0.569581
     5  H    0.224994
     6  H    0.229634
     7  H    0.235731
     8  H    0.237092
     9  H    0.105944
    10  H    0.093695
    11  H    0.111060
    12  H    0.114338
 Sum of Mulliken charges =   0.00000

 Dipole moment (field-independent basis, Debye):
    X=             -2.4418    Y=              1.0071    Z=             -0.3214  Tot=              2.6608
 Quadrupole moment (field-independent basis, Debye-Ang):
   XX=            -28.4997   YY=            -27.4469   ZZ=            -23.8588
   XY=              0.9465   XZ=             -2.6906   YZ=             -0.3953

 Normal termination of Gaussian 16 at Mon Oct 18 09:58:29 2021.
