 Gaussian 16, Revision C.01,
 Gaussian 16:  ES64L-G16RevC.01  3-Jul-2019

 ----------------------------------------------------------------------
 #P MP2/aug-cc-pVDZ SP SCF=(YQC,MaxCycle=900) int=(Grid=Superfinegrid)
 SCRF=(PCM,Solvent=Dichloromethane)
 ----------------------------------------------------------------------

 -----------------
 _ami4_opt_dcm_mp2
 -----------------
 Symbolic Z-matrix:
 Charge =  0 Multiplicity = 1

                         Standard orientation:
 ---------------------------------------------------------------------
 Center     Atomic      Atomic             Coordinates (Angstroms)
 Number     Number       Type             X           Y           Z
 ---------------------------------------------------------------------
      1          6           0        0.726573    0.580760    0.315576
      2          6           0       -0.687108    0.614822   -0.286409
      3          7           0        1.516238   -0.565022   -0.090041
      4          7           0       -1.395162   -0.602517    0.081956
      5          1           0        1.651834   -0.548515   -1.096502
      6          1           0        0.992525   -1.409003    0.122829
      7          1           0       -1.509090   -0.645361    1.090155
      8          1           0       -2.319186   -0.618636   -0.335055
      9          1           0       -0.616803    0.636153   -1.378826
     10          1           0       -1.195541    1.538069    0.040011
     11          1           0        0.649655    0.556064    1.407141
     12          1           0        1.262285    1.490506    0.031844
 ---------------------------------------------------------------------

 SCF Done:  E(RHF) =  -189.313726239     a.u. after    5 cycles
 SCF Done:  E(RHF) =  -189.313739037     A.U. after    8 cycles
 E2 =    -0.6685605666D+00 EUMP2 =    -0.18998229960371D+03

 The electronic state is 1-A.
 Alpha  occ. eigenvalues --  -15.54849 -15.54273 -11.24967 -11.24882  -1.20107
 Alpha  occ. eigenvalues --   -1.15580  -0.94944  -0.81501  -0.68567  -0.64749
 Alpha  occ. eigenvalues --   -0.62324  -0.57396  -0.55747  -0.51399  -0.49054
 Alpha  occ. eigenvalues --   -0.39812  -0.38318
 Alpha virt. eigenvalues --    0.03859   0.04960   0.05045   0.05259   0.07406
 Alpha virt. eigenvalues --    0.07633   0.07971   0.08332   0.11754   0.13744
 Alpha virt. eigenvalues --    0.14727   0.15592   0.17386   0.17572   0.18075

 Mulliken charges:
               1
     1  C    0.670008
     2  C    0.694420
     3  N   -0.478722
     4  N   -0.463358
     5  H    0.022309
     6  H    0.073923
     7  H    0.058023
     8  H   -0.039333
     9  H   -0.170020
    10  H   -0.097908
    11  H   -0.152418
    12  H   -0.116923
 Sum of Mulliken charges =   0.00000

 Dipole moment (field-independent basis, Debye):
    X=             -2.5248    Y=              1.1947    Z=             -0.3340  Tot=              2.8131
 Quadrupole moment (field-independent basis, Debye-Ang):
   XX=            -29.2824   YY=            -27.7202   ZZ=            -24.0341
   XY=              0.9296   XZ=             -2.6859   YZ=             -0.3736

 Normal termination of Gaussian 16 at Mon Nov  8 14:39:37 2021.
