 Gaussian 16, Revision C.01,
 Gaussian 16:  ES64L-G16RevC.01  3-Jul-2019

 ----------------------------------------------------------------------
 #P PBE1PBE/Def2TZVP SP SCF=(YQC,MaxCycle=900) int=(Grid=Superfinegrid)
  EmpiricalDispersion=GD3
 ----------------------------------------------------------------------

 --------------
 _water_opt_gas
 --------------
 Symbolic Z-matrix:
 Charge =  0 Multiplicity = 1

                         Standard orientation:
 ---------------------------------------------------------------------
 Center     Atomic      Atomic             Coordinates (Angstroms)
 Number     Number       Type             X           Y           Z
 ---------------------------------------------------------------------
      1          8           0        0.000000    0.113822    0.000000
      2          1           0        0.772116   -0.455280    0.000000
      3          1           0       -0.772116   -0.455295   -0.000000
 ---------------------------------------------------------------------

 SCF Done:  E(RPBE1PBE) =  -76.3772014714     a.u. after    3 cycles
 SCF Done:  E(RPBE1PBE) =  -76.3772130685     A.U. after    7 cycles

 The electronic state is 1-A'.
 Alpha  occ. eigenvalues --  -19.20070  -1.03747  -0.55079  -0.39831  -0.32638
 Alpha virt. eigenvalues --    0.03186   0.10649   0.37809   0.41828   0.44517
 Alpha virt. eigenvalues --    0.45384   0.59005   0.61147   1.19189   1.19221
 Alpha virt. eigenvalues --    1.31273   1.53767   1.63882   1.75313   1.99499

 Mulliken charges:
               1
     1  O   -0.652524
     2  H    0.326261
     3  H    0.326263
 Sum of Mulliken charges =  -0.00000

 Dipole moment (field-independent basis, Debye):
    X=              0.0000    Y=             -2.0332    Z=             -0.0000  Tot=              2.0332
 Quadrupole moment (field-independent basis, Debye-Ang):
   XX=             -4.2013   YY=             -6.3335   ZZ=             -7.5379
   XY=              0.0000   XZ=              0.0000   YZ=             -0.0000

 Normal termination of Gaussian 16 at Sun Oct 17 23:27:01 2021.
