 Gaussian 16, Revision C.01,
 Gaussian 16:  ES64L-G16RevC.01  3-Jul-2019

 ----------------------------------------------------------------------
 #P MP2/aug-cc-pVDZ SP SCF=(YQC,MaxCycle=900) int=(Grid=Superfinegrid)
 SCRF=(PCM,Solvent=Chloroform)
 ----------------------------------------------------------------------

 ------------------
 _water_opt_cfm_mp2
 ------------------
 Symbolic Z-matrix:
 Charge =  0 Multiplicity = 1

                         Standard orientation:
 ---------------------------------------------------------------------
 Center     Atomic      Atomic             Coordinates (Angstroms)
 Number     Number       Type             X           Y           Z
 ---------------------------------------------------------------------
      1          8           0        0.000000    0.113822    0.000000
      2          1           0        0.772116   -0.455280    0.000000
      3          1           0       -0.772116   -0.455295   -0.000000
 ---------------------------------------------------------------------

 SCF Done:  E(RHF) =  -76.0463041886     a.u. after    4 cycles
 SCF Done:  E(RHF) =  -76.0463256026     A.U. after    8 cycles
 E2 =    -0.2189157303D+00 EUMP2 =    -0.76265241332915D+02

 The electronic state is 1-A'.
 Alpha  occ. eigenvalues --  -20.57701  -1.35461  -0.72369  -0.58358  -0.51108
 Alpha virt. eigenvalues --    0.03947   0.06278   0.17330   0.18815   0.21872
 Alpha virt. eigenvalues --    0.22852   0.30075   0.32978   0.39015   0.41309
 Alpha virt. eigenvalues --    0.44250   0.54524   0.65430   0.65988   0.82073

 Mulliken charges:
               1
     1  O   -0.346880
     2  H    0.173434
     3  H    0.173445
 Sum of Mulliken charges =  -0.00000

 Dipole moment (field-independent basis, Debye):
    X=              0.0000    Y=             -2.1486    Z=             -0.0000  Tot=              2.1486
 Quadrupole moment (field-independent basis, Debye-Ang):
   XX=             -4.0896   YY=             -6.3441   ZZ=             -7.6346
   XY=              0.0000   XZ=              0.0000   YZ=             -0.0000

 Normal termination of Gaussian 16 at Fri Nov  5 09:22:41 2021.
