 Gaussian 16, Revision C.01,
 Gaussian 16:  ES64L-G16RevC.01  3-Jul-2019

 ----------------------------------------------------------------------
 #P PBE1PBE/Def2TZVP SP SCF=(YQC,MaxCycle=900) int=(Grid=Superfinegrid)
  EmpiricalDispersion=GD3 SCRF=(PCM,Solvent=Chloroform)
 ----------------------------------------------------------------------

 --------------
 _water_opt_cfm
 --------------
 Symbolic Z-matrix:
 Charge =  0 Multiplicity = 1

                         Standard orientation:
 ---------------------------------------------------------------------
 Center     Atomic      Atomic             Coordinates (Angstroms)
 Number     Number       Type             X           Y           Z
 ---------------------------------------------------------------------
      1          8           0        0.000000    0.113822    0.000000
      2          1           0        0.772116   -0.455280    0.000000
      3          1           0       -0.772116   -0.455295   -0.000000
 ---------------------------------------------------------------------

 SCF Done:  E(RPBE1PBE) =  -76.3824863393     a.u. after    3 cycles
 SCF Done:  E(RPBE1PBE) =  -76.3824954617     A.U. after    6 cycles

 The electronic state is 1-A'.
 Alpha  occ. eigenvalues --  -19.20200  -1.03815  -0.55061  -0.40251  -0.33004
 Alpha virt. eigenvalues --    0.04090   0.11861   0.37517   0.41697   0.43781
 Alpha virt. eigenvalues --    0.44846   0.59104   0.61301   1.19125   1.19281
 Alpha virt. eigenvalues --    1.31039   1.53838   1.63891   1.75830   1.99744

 Mulliken charges:
               1
     1  O   -0.695794
     2  H    0.347896
     3  H    0.347898
 Sum of Mulliken charges =  -0.00000

 Dipole moment (field-independent basis, Debye):
    X=              0.0000    Y=             -2.2005    Z=             -0.0000  Tot=              2.2005
 Quadrupole moment (field-independent basis, Debye-Ang):
   XX=             -4.1240   YY=             -6.3248   ZZ=             -7.5653
   XY=              0.0000   XZ=              0.0000   YZ=             -0.0000

 Normal termination of Gaussian 16 at Mon Oct 18 06:33:10 2021.
