 Gaussian 16, Revision C.01,
 Gaussian 16:  ES64L-G16RevC.01  3-Jul-2019

 ----------------------------------------------------------------------
 #P MP2/aug-cc-pVDZ SP SCF=(YQC,MaxCycle=900) int=(Grid=Superfinegrid)
 SCRF=(PCM,Solvent=Dichloromethane)
 ----------------------------------------------------------------------

 ------------------
 _water_opt_dcm_mp2
 ------------------
 Symbolic Z-matrix:
 Charge =  0 Multiplicity = 1

                         Standard orientation:
 ---------------------------------------------------------------------
 Center     Atomic      Atomic             Coordinates (Angstroms)
 Number     Number       Type             X           Y           Z
 ---------------------------------------------------------------------
      1          8           0        0.000000    0.113822    0.000000
      2          1           0        0.772116   -0.455280    0.000000
      3          1           0       -0.772116   -0.455295   -0.000000
 ---------------------------------------------------------------------

 SCF Done:  E(RHF) =  -76.0472777594     a.u. after    4 cycles
 SCF Done:  E(RHF) =  -76.0472968657     A.U. after    8 cycles
 E2 =    -0.2188372428D+00 EUMP2 =    -0.76266134108516D+02

 The electronic state is 1-A'.
 Alpha  occ. eigenvalues --  -20.57725  -1.35487  -0.72384  -0.58436  -0.51167
 Alpha virt. eigenvalues --    0.04005   0.06366   0.17280   0.18647   0.21812
 Alpha virt. eigenvalues --    0.22782   0.30254   0.33033   0.39121   0.41395
 Alpha virt. eigenvalues --    0.44344   0.54689   0.65528   0.66025   0.82119

 Mulliken charges:
               1
     1  O   -0.354326
     2  H    0.177158
     3  H    0.177169
 Sum of Mulliken charges =   0.00000

 Dipole moment (field-independent basis, Debye):
    X=              0.0000    Y=             -2.1861    Z=             -0.0000  Tot=              2.1861
 Quadrupole moment (field-independent basis, Debye-Ang):
   XX=             -4.0778   YY=             -6.3444   ZZ=             -7.6417
   XY=              0.0000   XZ=              0.0000   YZ=             -0.0000

 1\1\GINC-CX3-12-23\SP\RMP2-FC\Aug-CC-pVDZ\H2O1\ATARZIA\01-Nov-2021\0\\
 #P MP2/aug-cc-pVDZ SP SCF=(YQC,MaxCycle=900) int=(Grid=Superfinegrid)
 SCRF=(PCM,Solvent=Dichloromethane)\\_water_opt_dcm_mp2\\0,1\O,0,-0.984
 1,0.6351,-0.004\H,0,-0.0251,0.6464,0.0112\H,0,-1.286,1.1785,0.7265\\Ve
 rsion=ES64L-G16RevC.01\State=1-A'\HF=-76.0472969\MP2=-76.2661341\RMSD=
 4.466e-09\PG=CS [SG(H2O1)]\\@
 The archive entry for this job was punched.

 Normal termination of Gaussian 16 at Mon Nov  1 18:11:45 2021.
