 Gaussian 16, Revision C.01,
 Gaussian 16:  ES64L-G16RevC.01  3-Jul-2019

 ----------------------------------------------------------------------
 #P PBE1PBE/Def2TZVP SP SCF=(YQC,MaxCycle=900) int=(Grid=Superfinegrid)
  EmpiricalDispersion=GD3 SCRF=(PCM,Solvent=Dichloromethane)
 ----------------------------------------------------------------------

 --------------
 _water_opt_dcm
 --------------
 Symbolic Z-matrix:
 Charge =  0 Multiplicity = 1

                         Standard orientation:
 ---------------------------------------------------------------------
 Center     Atomic      Atomic             Coordinates (Angstroms)
 Number     Number       Type             X           Y           Z
 ---------------------------------------------------------------------
      1          8           0        0.000000    0.113822    0.000000
      2          1           0        0.772116   -0.455280    0.000000
      3          1           0       -0.772116   -0.455295   -0.000000
 ---------------------------------------------------------------------

 SCF Done:  E(RPBE1PBE) =  -76.3834875864     a.u. after    3 cycles
 SCF Done:  E(RPBE1PBE) =  -76.3834961004     A.U. after    6 cycles

 The electronic state is 1-A'.
 Alpha  occ. eigenvalues --  -19.20235  -1.03837  -0.55067  -0.40340  -0.33082
 Alpha virt. eigenvalues --    0.04252   0.12079   0.37449   0.41621   0.43634
 Alpha virt. eigenvalues --    0.44783   0.59120   0.61330   1.19107   1.19284
 Alpha virt. eigenvalues --    1.30988   1.53843   1.63884   1.75922   1.99783

 Mulliken charges:
               1
     1  O   -0.703812
     2  H    0.351905
     3  H    0.351907
 Sum of Mulliken charges =  -0.00000

 Dipole moment (field-independent basis, Debye):
    X=              0.0000    Y=             -2.2322    Z=             -0.0000  Tot=              2.2322
 Quadrupole moment (field-independent basis, Debye-Ang):
   XX=             -4.1104   YY=             -6.3236   ZZ=             -7.5707
   XY=              0.0000   XZ=              0.0000   YZ=             -0.0000

 Normal termination of Gaussian 16 at Mon Oct 18 07:05:59 2021.
