 Gaussian 16, Revision C.01,
 Gaussian 16:  ES64L-G16RevC.01  3-Jul-2019

 ---------------------------------------------------------------------
 #P MP2/aug-cc-pVDZ SP SCF=(YQC,MaxCycle=900) int=(Grid=Superfinegrid)
 ---------------------------------------------------------------------

 ------------------
 _water_opt_gas_mp2
 ------------------
 Symbolic Z-matrix:
 Charge =  0 Multiplicity = 1

                         Standard orientation:
 ---------------------------------------------------------------------
 Center     Atomic      Atomic             Coordinates (Angstroms)
 Number     Number       Type             X           Y           Z
 ---------------------------------------------------------------------
      1          8           0        0.000000    0.113822    0.000000
      2          1           0        0.772116   -0.455280    0.000000
      3          1           0       -0.772116   -0.455295   -0.000000
 ---------------------------------------------------------------------

 SCF Done:  E(RHF) =  -76.0412352660     a.u. after    5 cycles
 SCF Done:  E(RHF) =  -76.0412438645     A.U. after    8 cycles
 E2 =    -0.2193589190D+00 EUMP2 =    -0.76260602783511D+02

 The electronic state is 1-A'.
 Alpha  occ. eigenvalues --  -20.57634  -1.35370  -0.72342  -0.57995  -0.50849
 Alpha virt. eigenvalues --    0.03562   0.05768   0.17435   0.19646   0.22206
 Alpha virt. eigenvalues --    0.23064   0.29189   0.32712   0.38414   0.40913
 Alpha virt. eigenvalues --    0.43761   0.53619   0.64892   0.65748   0.81811

 Mulliken charges:
               1
     1  O   -0.308065
     2  H    0.154027
     3  H    0.154038
 Sum of Mulliken charges =  -0.00000

 Dipole moment (field-independent basis, Debye):
    X=              0.0000    Y=             -1.9555    Z=             -0.0000  Tot=              1.9555
 Quadrupole moment (field-independent basis, Debye-Ang):
   XX=             -4.1556   YY=             -6.3477   ZZ=             -7.5993
   XY=              0.0000   XZ=              0.0000   YZ=             -0.0000

 Normal termination of Gaussian 16 at Fri Oct 29 09:41:00 2021.
