 Gaussian 16, Revision C.01,
 Gaussian 16:  ES64L-G16RevC.01  3-Jul-2019

 ----------------------------------------------------------------------
 #P PBE1PBE/Def2SVP SP SCF=(YQC,MaxCycle=900) int=(Grid=Superfinegrid)
 EmpiricalDispersion=GD3BJ SCRF=(PCM,Solvent=DiMethylSulfoxide)
 ----------------------------------------------------------------------

 --------
 _s_4c1_b
 --------
 Symbolic Z-matrix:
 Charge =  4 Multiplicity = 1

                         Standard orientation:
 ---------------------------------------------------------------------
 Center     Atomic      Atomic             Coordinates (Angstroms)
 Number     Number       Type             X           Y           Z
 ---------------------------------------------------------------------
      1         46           0        5.968199    0.083373   -0.516146
      2         46           0       -6.375914   -0.563397   -0.154706
      3          6           0       -2.584018    2.453918   -3.593410
      4          6           0       -3.211110    1.571732   -4.134284
      5          6           0       -4.034095    0.660244   -4.827697
      6          6           0       -3.869659    0.449757   -6.183196
      7          6           0       -4.784146   -0.325127   -6.906391
      8          6           0       -5.890364   -0.867626   -6.300584
      9          6           0       -6.086947   -0.696269   -4.918379
     10          6           0       -7.211016   -1.198404   -4.224620
     11          6           0       -7.309412   -1.030935   -2.873314
     12          7           0       -6.330841   -0.435633   -2.146369
     13          6           0       -5.289323    0.086768   -2.765753
     14          6           0       -5.126536    0.031009   -4.158381
     15          1           0       -3.039412    0.911515   -6.695132
     16          1           0       -4.626996   -0.467652   -7.964768
     17          1           0       -6.617224   -1.423651   -6.871579
     18          1           0       -7.986534   -1.710664   -4.771192
     19          1           0       -8.177636   -1.375029   -2.320654
     20          1           0       -4.528411    0.569639   -2.155954
     21          6           0       -1.935459    3.566143   -3.011630
     22          6           0       -2.678265    4.756196   -2.898995
     23          6           0       -2.110852    5.910243   -2.407668
     24          6           0       -0.780663    5.861430   -2.014801
     25          7           0        0.012478    6.855550   -1.500851
     26          6           0        1.260516    6.357435   -1.261801
     27          6           0        2.387258    6.981505   -0.744011
     28          6           0        3.534728    6.234191   -0.603472
     29          6           0        3.596781    4.880109   -0.980848
     30          6           0        2.457649    4.256377   -1.488489
     31          6           0        1.289271    4.985913   -1.617012
     32          6           0       -0.028006    4.665714   -2.100848
     33          6           0       -0.606350    3.510722   -2.605476
     34          1           0       -3.706605    4.760880   -3.225757
     35          1           0       -2.680583    6.823418   -2.342464
     36          1           0       -0.250449    7.824607   -1.431818
     37          1           0        2.370853    8.023054   -0.462850
     38          1           0        4.401675    6.705569   -0.169416
     39          1           0        2.478105    3.232381   -1.822098
     40          1           0       -0.042639    2.596468   -2.694309
     41          6           0        4.857830    4.147357   -0.845454
     42          6           0        6.102296    4.792508   -0.882581
     43          6           0        7.267800    4.066866   -0.714741
     44          6           0        7.190464    2.694492   -0.545367
     45          7           0        6.011618    2.068303   -0.550872
     46          6           0        4.881330    2.760325   -0.680492
     47          1           0        6.158536    5.854691   -1.058066
     48          1           0        8.227702    4.557354   -0.726835
     49          1           0        8.074464    2.076085   -0.404135
     50          1           0        3.964130    2.176400   -0.645135
     51          6           0        2.208502   -3.025295   -3.594999
     52          6           0        2.728434   -2.165357   -4.268243
     53          6           0        3.456545   -1.247595   -5.052053
     54          6           0        3.219781   -1.102319   -6.404727
     55          6           0        4.048020   -0.295306   -7.194565
     56          6           0        5.138001    0.345484   -6.659065
     57          6           0        5.406896    0.239642   -5.282207
     58          6           0        6.522341    0.839368   -4.655608
     59          6           0        6.698504    0.713220   -3.307372
     60          7           0        5.801967    0.069205   -2.517830
     61          6           0        4.764345   -0.529986   -3.073002
     62          6           0        4.533253   -0.523502   -4.456074
     63          1           0        2.402029   -1.637351   -6.862194
     64          1           0        3.836793   -0.204487   -8.249149
     65          1           0        5.798055    0.928438   -7.281773
     66          1           0        7.233711    1.389402   -5.250569
     67          1           0        7.564970    1.131200   -2.807174
     68          1           0        4.065380   -1.040982   -2.413454
     69          6           0        1.649617   -4.065767   -2.821537
     70          6           0        2.469196   -5.162092   -2.496129
     71          6           0        1.986815   -6.224347   -1.763817
     72          6           0        0.665200   -6.175594   -1.340407
     73          7           0       -0.047953   -7.077681   -0.595360
     74          6           0       -1.320257   -6.613061   -0.421076
     75          6           0       -2.390998   -7.178890    0.259181
     76          6           0       -3.583962   -6.490805    0.271633
     77          6           0       -3.734823   -5.250899   -0.374952
     78          6           0       -2.655003   -4.679295   -1.043479
     79          6           0       -1.448283   -5.357121   -1.066141
     80          6           0       -0.167669   -5.073393   -1.655723
     81          6           0        0.323644   -4.015202   -2.403336
     82          1           0        3.490527   -5.171182   -2.845282
     83          1           0        2.616132   -7.069683   -1.534309
     84          1           0        0.292059   -7.970404   -0.277514
     85          1           0       -2.296130   -8.129085    0.760961
     86          1           0       -4.416176   -6.907238    0.816825
     87          1           0       -2.757550   -3.748102   -1.576435
     88          1           0       -0.299376   -3.174548   -2.661861
     89          6           0       -5.033950   -4.575886   -0.344658
     90          6           0       -6.235887   -5.294560   -0.347810
     91          6           0       -7.442885   -4.621503   -0.291305
     92          6           0       -7.439231   -3.238048   -0.246790
     93          7           0       -6.296809   -2.546693   -0.268310
     94          6           0       -5.128539   -3.183552   -0.308917
     95          1           0       -6.221155   -6.371090   -0.409940
     96          1           0       -8.375892   -5.161351   -0.286979
     97          1           0       -8.362426   -2.664863   -0.194170
     98          1           0       -4.242712   -2.552566   -0.300613
     99          6           0        2.432716   -3.364578    2.666255
    100          6           0        3.117840   -3.955822    1.863323
    101          6           0        3.985504   -4.668090    1.010225
    102          6           0        3.980557   -6.048761    0.986320
    103          6           0        4.918261   -6.758950    0.227272
    104          6           0        5.886497   -6.108704   -0.496196
    105          6           0        5.931951   -4.702861   -0.500834
    106          6           0        6.924077   -3.962075   -1.182667
    107          6           0        6.909919   -2.597630   -1.136468
    108          7           0        5.937388   -1.911392   -0.484876
    109          6           0        4.997446   -2.568019    0.168779
    110          6           0        4.954783   -3.968299    0.230720
    111          1           0        3.257664   -6.584240    1.581849
    112          1           0        4.888859   -7.838278    0.234257
    113          1           0        6.625094   -6.661686   -1.055060
    114          1           0        7.694821   -4.483740   -1.727255
    115          1           0        7.672402   -1.996230   -1.623856
    116          1           0        4.231358   -1.981324    0.672283
    117          6           0        1.727847   -2.674087    3.677413
    118          6           0        2.446843   -2.312146    4.831896
    119          6           0        1.835569   -1.662621    5.880588
    120          6           0        0.485270   -1.362583    5.760727
    121          7           0       -0.343496   -0.722270    6.643045
    122          6           0       -1.598946   -0.652604    6.112087
    123          6           0       -2.757429   -0.103138    6.645792
    124          6           0       -3.911023   -0.179732    5.898385
    125          6           0       -3.933373   -0.782712    4.628288
    126          6           0       -2.766151   -1.317807    4.088325
    127          6           0       -1.596779   -1.257555    4.829072
    128          6           0       -0.250216   -1.714168    4.601085
    129          6           0        0.373963   -2.377065    3.554338
    130          1           0        3.494165   -2.565496    4.894183
    131          1           0        2.387813   -1.404595    6.770386
    132          1           0       -0.082942   -0.401123    7.560829
    133          1           0       -2.757775    0.365323    7.617582
    134          1           0       -4.814840    0.260045    6.289819
    135          1           0       -2.772787   -1.815047    3.132222
    136          1           0       -0.169919   -2.665198    2.669335
    137          6           0       -5.200425   -0.844843    3.894364
    138          6           0       -6.419303   -1.046483    4.554530
    139          6           0       -7.599058   -1.075199    3.833174
    140          6           0       -7.551296   -0.910769    2.459145
    141          7           0       -6.391638   -0.732405    1.824361
    142          6           0       -5.248713   -0.697665    2.508234
    143          1           0       -6.435031   -1.196730    5.622460
    144          1           0       -8.544494   -1.228800    4.327457
    145          1           0       -8.450324   -0.919910    1.848404
    146          1           0       -4.345855   -0.531465    1.923942
    147          6           0        2.156290    2.629647    3.230715
    148          6           0        2.965847    1.871587    3.715433
    149          6           0        3.951072    1.080404    4.342495
    150          6           0        3.961038    0.934161    5.716060
    151          6           0        4.998401    0.251312    6.361392
    152          6           0        6.052086   -0.272533    5.655001
    153          6           0        6.087703   -0.146605    4.254509
    154          6           0        7.155405   -0.624264    3.460962
    155          6           0        7.120715   -0.471618    2.104361
    156          7           0        6.064893    0.099919    1.474559
    157          6           0        5.055565    0.571088    2.182444
    158          6           0        5.014838    0.507842    3.582566
    159          1           0        3.167185    1.375042    6.298487
    160          1           0        4.975441    0.157680    7.436784
    161          1           0        6.863453   -0.772616    6.160096
    162          1           0        7.996914   -1.102149    3.936651
    163          1           0        7.932972   -0.805954    1.465854
    164          1           0        4.225398    1.022051    1.641687
    165          6           0        1.338994    3.658397    2.707739
    166          6           0        1.916132    4.941774    2.662267
    167          6           0        1.199777    6.031528    2.225159
    168          6           0       -0.111465    5.823494    1.822084
    169          7           0       -1.023670    6.733591    1.356833
    170          6           0       -2.198678    6.094642    1.088923
    171          6           0       -3.392432    6.609869    0.603899
    172          6           0       -4.445671    5.742639    0.429926
    173          6           0       -4.342320    4.373440    0.736040
    174          6           0       -3.132568    3.857567    1.199049
    175          6           0       -2.055059    4.712433    1.370459
    176          6           0       -0.703493    4.536948    1.842537
    177          6           0        0.028490    3.445442    2.291950
    178          1           0        2.935077    5.066087    2.994541
    179          1           0        1.640352    7.015657    2.208107
    180          1           0       -0.885880    7.730448    1.338335
    181          1           0       -3.497377    7.659405    0.376776
    182          1           0       -5.367510    6.127815    0.024404
    183          1           0       -3.034863    2.819065    1.468221
    184          1           0       -0.405810    2.459964    2.333178
    185          6           0       -5.528136    3.526961    0.570762
    186          6           0       -6.821052    4.043642    0.737039
    187          6           0       -7.925182    3.238209    0.525163
    188          6           0       -7.733786    1.912478    0.174811
    189          7           0       -6.506013    1.403076    0.055381
    190          6           0       -5.434814    2.174061    0.239501
    191          1           0       -6.959424    5.066841    1.047738
    192          1           0       -8.922730    3.630247    0.639568
    193          1           0       -8.567755    1.239018   -0.014455
    194          1           0       -4.469507    1.691743    0.104949
 ---------------------------------------------------------------------

 SCF Done:  E(RPBE1PBE) =  -5212.29257545     a.u. after   16 cycles
 SCF Done:  E(RPBE1PBE) =  -5212.29263729     A.U. after   10 cycles

 The electronic state is 1-A.
 Alpha  occ. eigenvalues --  -14.48465 -14.48455 -14.48424 -14.48404 -14.48382
 Alpha  occ. eigenvalues --  -14.48351 -14.48260 -14.48222 -14.45467 -14.45416
 Alpha  occ. eigenvalues --  -14.45325 -14.45252 -10.32289 -10.32259 -10.32202
 Alpha  occ. eigenvalues --  -10.32149 -10.31526 -10.31510 -10.31504 -10.31465
 Alpha  occ. eigenvalues --  -10.31343 -10.31333 -10.31257 -10.31199 -10.30879
 Alpha  occ. eigenvalues --  -10.30864 -10.30821 -10.30795 -10.29589 -10.29588
 Alpha  occ. eigenvalues --  -10.29585 -10.29569 -10.29448 -10.29426 -10.29374
 Alpha  occ. eigenvalues --  -10.29344 -10.29272 -10.29236 -10.29220 -10.29183
 Alpha  occ. eigenvalues --  -10.29060 -10.29038 -10.28975 -10.28963 -10.28947
 Alpha  occ. eigenvalues --  -10.28915 -10.28910 -10.28904 -10.28857 -10.28856
 Alpha  occ. eigenvalues --  -10.28836 -10.28811 -10.28376 -10.28359 -10.28357
 Alpha  occ. eigenvalues --  -10.28298 -10.27760 -10.27750 -10.27702 -10.27702
 Alpha  occ. eigenvalues --  -10.27697 -10.27690 -10.27667 -10.27622 -10.27209
 Alpha  occ. eigenvalues --  -10.27207 -10.27130 -10.27126 -10.27119 -10.27104
 Alpha  occ. eigenvalues --  -10.27083 -10.27070 -10.27060 -10.27036 -10.27016
 Alpha  occ. eigenvalues --  -10.26984 -10.26815 -10.26802 -10.26732 -10.26719
 Alpha  occ. eigenvalues --  -10.26462 -10.26453 -10.26452 -10.26424 -10.26197
 Alpha  occ. eigenvalues --  -10.26171 -10.26104 -10.26079 -10.26064 -10.26057
 Alpha  occ. eigenvalues --  -10.26056 -10.26046 -10.26039 -10.26028 -10.26027
 Alpha  occ. eigenvalues --  -10.25998 -10.25799 -10.25785 -10.25772 -10.25733
 Alpha  occ. eigenvalues --  -10.25733 -10.25693 -10.25683 -10.25668 -10.25661
 Alpha  occ. eigenvalues --  -10.25657 -10.25639 -10.25620 -10.25606 -10.25577
 Alpha  occ. eigenvalues --  -10.25544 -10.25482 -10.25448 -10.25437 -10.25417
 Alpha  occ. eigenvalues --  -10.25399 -10.25395 -10.25391 -10.25362 -10.25354
 Alpha  occ. eigenvalues --  -10.25309 -10.25307 -10.25252 -10.25249  -3.57124
 Alpha  occ. eigenvalues --   -3.57101  -2.25085  -2.25058  -2.24939  -2.24935
 Alpha  occ. eigenvalues --   -2.20820  -2.20799  -1.03836  -1.03792  -1.03260
 Alpha  occ. eigenvalues --   -1.03186  -1.03182  -1.03118  -1.03110  -1.03051
 Alpha  occ. eigenvalues --   -1.02960  -1.02892  -1.02841  -1.02817  -0.92623
 Alpha  occ. eigenvalues --   -0.92539  -0.92514  -0.92513  -0.90642  -0.90602
 Alpha  occ. eigenvalues --   -0.90570  -0.90468  -0.90056  -0.90021  -0.89959
 Alpha  occ. eigenvalues --   -0.89871  -0.86702  -0.86559  -0.86546  -0.86462
 Alpha  occ. eigenvalues --   -0.85863  -0.85825  -0.85798  -0.85774  -0.83655
 Alpha  occ. eigenvalues --   -0.83562  -0.83548  -0.83449  -0.83151  -0.83064
 Alpha  occ. eigenvalues --   -0.83024  -0.83014  -0.82713  -0.82671  -0.82639
 Alpha  occ. eigenvalues --   -0.82589  -0.81402  -0.81394  -0.81352  -0.81282
 Alpha  occ. eigenvalues --   -0.80156  -0.80125  -0.80045  -0.80031  -0.77971
 Alpha  occ. eigenvalues --   -0.77918  -0.77874  -0.77834  -0.76412  -0.76376
 Alpha  occ. eigenvalues --   -0.76335  -0.76305  -0.75345  -0.75323  -0.75253
 Alpha  occ. eigenvalues --   -0.75216  -0.71202  -0.71118  -0.71079  -0.71007
 Alpha  occ. eigenvalues --   -0.70954  -0.70850  -0.70839  -0.70666  -0.69585
 Alpha  occ. eigenvalues --   -0.69460  -0.69434  -0.69376  -0.69058  -0.68893
 Alpha  occ. eigenvalues --   -0.68771  -0.68736  -0.68471  -0.68393  -0.68277
 Alpha  occ. eigenvalues --   -0.68266  -0.66928  -0.66903  -0.66857  -0.66726
 Alpha  occ. eigenvalues --   -0.64892  -0.64829  -0.64801  -0.64715  -0.63911
 Alpha  occ. eigenvalues --   -0.63811  -0.63796  -0.63665  -0.61782  -0.61715
 Alpha  occ. eigenvalues --   -0.61688  -0.61494  -0.60555  -0.59956  -0.59920
 Alpha  occ. eigenvalues --   -0.59817  -0.59712  -0.59156  -0.59011  -0.58829
 Alpha  occ. eigenvalues --   -0.57980  -0.57906  -0.57857  -0.57827  -0.57820
 Alpha  occ. eigenvalues --   -0.57789  -0.57758  -0.57643  -0.57205  -0.56746
 Alpha  occ. eigenvalues --   -0.56510  -0.56187  -0.56101  -0.56058  -0.55908
 Alpha  occ. eigenvalues --   -0.55862  -0.55681  -0.55646  -0.55621  -0.55582
 Alpha  occ. eigenvalues --   -0.54913  -0.54856  -0.54729  -0.54684  -0.52777
 Alpha  occ. eigenvalues --   -0.52666  -0.52574  -0.52484  -0.51729  -0.51641
 Alpha  occ. eigenvalues --   -0.51416  -0.51361  -0.51343  -0.51094  -0.50888
 Alpha  occ. eigenvalues --   -0.50703  -0.50631  -0.50480  -0.50329  -0.50293
 Alpha  occ. eigenvalues --   -0.50257  -0.50184  -0.50084  -0.49865  -0.49845
 Alpha  occ. eigenvalues --   -0.49718  -0.49504  -0.49218  -0.49048  -0.49033
 Alpha  occ. eigenvalues --   -0.49009  -0.48900  -0.48816  -0.48729  -0.48417
 Alpha  occ. eigenvalues --   -0.48267  -0.48180  -0.48077  -0.48010  -0.47894
 Alpha  occ. eigenvalues --   -0.47823  -0.47729  -0.47550  -0.47451  -0.47426
 Alpha  occ. eigenvalues --   -0.47378  -0.47333  -0.47214  -0.47186  -0.47104
 Alpha  occ. eigenvalues --   -0.46987  -0.46832  -0.46810  -0.46806  -0.46624
 Alpha  occ. eigenvalues --   -0.46522  -0.46495  -0.46395  -0.46148  -0.45835
 Alpha  occ. eigenvalues --   -0.45540  -0.45468  -0.45421  -0.45371  -0.45120
 Alpha  occ. eigenvalues --   -0.44516  -0.44501  -0.44339  -0.44039  -0.43899
 Alpha  occ. eigenvalues --   -0.43853  -0.43716  -0.43630  -0.43286  -0.43119
 Alpha  occ. eigenvalues --   -0.43089  -0.42485  -0.42419  -0.42176  -0.42074
 Alpha  occ. eigenvalues --   -0.42001  -0.41950  -0.41867  -0.41686  -0.41501
 Alpha  occ. eigenvalues --   -0.41103  -0.41065  -0.40844  -0.40604  -0.40447
 Alpha  occ. eigenvalues --   -0.40427  -0.40407  -0.40377  -0.40259  -0.40113
 Alpha  occ. eigenvalues --   -0.39830  -0.39656  -0.39449  -0.39400  -0.39333
 Alpha  occ. eigenvalues --   -0.39292  -0.39192  -0.38934  -0.38573  -0.38231
 Alpha  occ. eigenvalues --   -0.38101  -0.38034  -0.37976  -0.37792  -0.37696
 Alpha  occ. eigenvalues --   -0.37598  -0.37429  -0.37362  -0.37076  -0.36745
 Alpha  occ. eigenvalues --   -0.36735  -0.36539  -0.36517  -0.36355  -0.35984
 Alpha  occ. eigenvalues --   -0.35934  -0.35741  -0.34517  -0.34316  -0.34124
 Alpha  occ. eigenvalues --   -0.33941  -0.33899  -0.33820  -0.33752  -0.33687
 Alpha  occ. eigenvalues --   -0.33543  -0.33520  -0.33271  -0.32880  -0.32498
 Alpha  occ. eigenvalues --   -0.32433  -0.32342  -0.32203  -0.31722  -0.31545
 Alpha  occ. eigenvalues --   -0.31525  -0.31370  -0.31276  -0.31196  -0.31142
 Alpha  occ. eigenvalues --   -0.31019  -0.30782  -0.30658  -0.30524  -0.30124
 Alpha  occ. eigenvalues --   -0.28788  -0.28691  -0.28161  -0.27988  -0.27911
 Alpha  occ. eigenvalues --   -0.27325  -0.26175  -0.26092  -0.26074  -0.26024
 Alpha  occ. eigenvalues --   -0.25223  -0.24848  -0.24837  -0.24239  -0.23865
 Alpha  occ. eigenvalues --   -0.23316  -0.23202  -0.22431
 Alpha virt. eigenvalues --   -0.09964  -0.09869  -0.09792  -0.09721  -0.07660
 Alpha virt. eigenvalues --   -0.07571  -0.07524  -0.06914  -0.06700  -0.06600
 Alpha virt. eigenvalues --   -0.06444  -0.06273  -0.06164  -0.06123  -0.06094

 Mulliken charges:
               1
     1  Pd   0.477279
     2  Pd   0.495307
     3  C    0.031996
     4  C   -0.102734
     5  C   -0.013859
     6  C    0.006883
     7  C    0.012247
     8  C    0.005806
     9  C    0.033158
    10  C   -0.021273
    11  C    0.148726
    12  N   -0.316114
    13  C    0.183414
    14  C   -0.018231
    15  H    0.039434
    16  H    0.054841
    17  H    0.040057
    18  H    0.052596
    19  H    0.087299
    20  H    0.073843
    21  C   -0.086699
    22  C   -0.002769
    23  C   -0.017997
    24  C    0.110470
    25  N   -0.127545
    26  C    0.128036
    27  C   -0.050259
    28  C   -0.047314
    29  C    0.052173
    30  C   -0.079328
    31  C    0.014047
    32  C    0.031963
    33  C   -0.041710
    34  H    0.028690
    35  H    0.020873
    36  H    0.163825
    37  H    0.021586
    38  H    0.030652
    39  H    0.018241
    40  H    0.016872
    41  C   -0.020221
    42  C    0.048011
    43  C   -0.028270
    44  C    0.131522
    45  N   -0.312662
    46  C    0.131070
    47  H    0.058987
    48  H    0.064280
    49  H    0.108031
    50  H    0.092492
    51  C    0.025604
    52  C   -0.096227
    53  C   -0.011857
    54  C    0.007524
    55  C    0.012813
    56  C    0.006079
    57  C    0.035359
    58  C   -0.020764
    59  C    0.145127
    60  N   -0.328293
    61  C    0.177620
    62  C   -0.020145
    63  H    0.039316
    64  H    0.054933
    65  H    0.040046
    66  H    0.052778
    67  H    0.092505
    68  H    0.090900
    69  C   -0.087520
    70  C   -0.002815
    71  C   -0.034560
    72  C    0.115938
    73  N   -0.121449
    74  C    0.121000
    75  C   -0.050107
    76  C   -0.041174
    77  C    0.033292
    78  C   -0.067538
    79  C    0.008041
    80  C    0.023500
    81  C   -0.037398
    82  H    0.031036
    83  H    0.022519
    84  H    0.166114
    85  H    0.023268
    86  H    0.033671
    87  H    0.021355
    88  H    0.018666
    89  C   -0.029194
    90  C    0.055081
    91  C   -0.029847
    92  C    0.128147
    93  N   -0.312050
    94  C    0.144981
    95  H    0.059062
    96  H    0.064508
    97  H    0.102253
    98  H    0.088300
    99  C    0.012265
   100  C   -0.086034
   101  C   -0.004772
   102  C    0.009086
   103  C    0.008721
   104  C    0.005224
   105  C    0.033283
   106  C   -0.016538
   107  C    0.141843
   108  N   -0.333234
   109  C    0.167737
   110  C   -0.012223
   111  H    0.037910
   112  H    0.056688
   113  H    0.039874
   114  H    0.052753
   115  H    0.108071
   116  H    0.094733
   117  C   -0.089192
   118  C   -0.001393
   119  C   -0.031501
   120  C    0.111752
   121  N   -0.119915
   122  C    0.118331
   123  C   -0.049495
   124  C   -0.038496
   125  C    0.027432
   126  C   -0.062496
   127  C    0.008064
   128  C    0.022578
   129  C   -0.032970
   130  H    0.029437
   131  H    0.020601
   132  H    0.165702
   133  H    0.023285
   134  H    0.033749
   135  H    0.019820
   136  H    0.017322
   137  C   -0.033346
   138  C    0.056064
   139  C   -0.031911
   140  C    0.142871
   141  N   -0.310385
   142  C    0.144443
   143  H    0.059386
   144  H    0.064606
   145  H    0.098318
   146  H    0.083842
   147  C    0.007150
   148  C   -0.080402
   149  C   -0.009005
   150  C    0.011048
   151  C    0.009165
   152  C    0.005529
   153  C    0.033699
   154  C   -0.018699
   155  C    0.144989
   156  N   -0.323871
   157  C    0.173813
   158  C   -0.012742
   159  H    0.038910
   160  H    0.055991
   161  H    0.039703
   162  H    0.052715
   163  H    0.103842
   164  H    0.077124
   165  C   -0.085899
   166  C   -0.005474
   167  C   -0.015120
   168  C    0.104550
   169  N   -0.125479
   170  C    0.122191
   171  C   -0.050150
   172  C   -0.045199
   173  C    0.045337
   174  C   -0.071528
   175  C    0.014836
   176  C    0.032446
   177  C   -0.037766
   178  H    0.028558
   179  H    0.020451
   180  H    0.163628
   181  H    0.021592
   182  H    0.031620
   183  H    0.016198
   184  H    0.014655
   185  C   -0.026864
   186  C    0.047312
   187  C   -0.029402
   188  C    0.142392
   189  N   -0.308861
   190  C    0.130509
   191  H    0.059444
   192  H    0.063459
   193  H    0.109128
   194  H    0.084470
 Sum of Mulliken charges =   4.00000

 Dipole moment (field-independent basis, Debye):
    X=             -3.8691    Y=              0.3993    Z=              0.4429  Tot=              3.9148
 Quadrupole moment (field-independent basis, Debye-Ang):
   XX=             29.4041   YY=           -368.7592   ZZ=           -479.3683
   XY=             21.3741   XZ=            -15.0094   YZ=             -0.7417

 Normal termination of Gaussian 16 at Fri Feb 26 13:07:58 2021.
