 Gaussian 16, Revision C.01,
 Gaussian 16:  ES64L-G16RevC.01  3-Jul-2019

 ------------------------------------------------------------------
 # SP PBE1PBE/def2svp empiricaldispersion=GD3BJ scrf=(solvent=dmso)
 ------------------------------------------------------------------

 -----------
 trans_l3_la
 -----------
 Symbolic Z-matrix:
 Charge =  4 Multiplicity = 1

                         Standard orientation:
 ---------------------------------------------------------------------
 Center     Atomic      Atomic             Coordinates (Angstroms)
 Number     Number       Type             X           Y           Z
 ---------------------------------------------------------------------
      1         46           0        7.683198   -0.018788    0.006197
      2         46           0       -5.823702    0.006289   -0.003203
      3          6           0        3.868895    1.646205   -0.891403
      4          6           0        5.155096    1.186608   -1.119903
      5          7           0        6.131595    1.324409   -0.209803
      6          6           0        5.875294    2.037809    0.903397
      7          6           0        4.623293    2.538707    1.195297
      8          6           0        3.551494    2.276905    0.325397
      9          6           0        2.184393    2.561603    0.727997
     10          6           0        1.741892    3.083902    1.932997
     11          6           0        0.341292    3.059700    2.066697
     12          6           0       -0.293507    2.530898    0.958197
     13         16           0        0.850294    2.072300   -0.253403
     14          6           0       -1.704506    2.244896    0.755197
     15          6           0       -2.222506    2.028295   -0.531903
     16          6           0       -3.514705    1.569593   -0.679103
     17          7           0       -4.303305    1.310092    0.377397
     18          6           0       -3.866605    1.611493    1.608897
     19          6           0       -2.587506    2.092495    1.836397
     20          1           0        3.107995    1.457604   -1.650803
     21          1           0        5.402996    0.644808   -2.034403
     22          1           0        6.697294    2.166810    1.611897
     23          1           0        4.483592    3.074306    2.133097
     24          1           0        2.407792    3.460903    2.708597
     25          1           0       -0.189608    3.430199    2.943697
     26          1           0       -1.615806    2.189896   -1.423903
     27          1           0       -3.928105    1.363192   -1.667603
     28          1           0       -4.549005    1.408191    2.437297
     29          1           0       -2.265706    2.269195    2.862597
     30          6           0        3.837200   -1.637595    0.866897
     31          6           0        5.126100   -1.190892    1.106397
     32          7           0        6.110100   -1.341191    0.206297
     33          6           0        5.856201   -2.053091   -0.908403
     34          6           0        4.601802   -2.541393   -1.211003
     35          6           0        3.524601   -2.268595   -0.351003
     36          6           0        2.159102   -2.546097   -0.764203
     37          6           0        1.724503   -3.054498   -1.977803
     38          6           0        0.324503   -3.030700   -2.120003
     39          6           0       -0.317498   -2.517302   -1.008703
     40         16           0        0.818201   -2.071300    0.215397
     41          6           0       -1.730799   -2.238204   -0.809403
     42          6           0       -2.263299   -2.076705    0.479797
     43          6           0       -3.557000   -1.622807    0.631597
     44          7           0       -4.330600   -1.314308   -0.422603
     45          6           0       -3.881400   -1.564207   -1.661103
     46          6           0       -2.600899   -2.039405   -1.893803
     47          1           0        3.071300   -1.439296    1.618597
     48          1           0        5.370899   -0.649792    2.022097
     49          1           0        6.683201   -2.192990   -1.608803
     50          1           0        4.465803   -3.077894   -2.148803
     51          1           0        2.395803   -3.420997   -2.753803
     52          1           0       -0.200497   -3.391301   -3.004603
     53          1           0       -1.666399   -2.278404    1.370197
     54          1           0       -3.985700   -1.462208    1.622497
     55          1           0       -4.554100   -1.324009   -2.487803
     56          1           0       -2.266299   -2.172805   -2.922503
     57          6           0       11.178295    1.728118   -1.780203
     58          6           0       10.261796    0.860616   -1.246603
     59          7           0        9.095395    1.297214   -0.683003
     60          6           0        8.801093    2.583014   -0.746003
     61          6           0        9.628492    3.540115   -1.361403
     62          6           0        9.208689    4.900914   -1.487503
     63          6           0        7.795789    5.237412   -1.194003
     64          6           0        7.428787    6.128511   -0.178603
     65          6           0        6.088087    6.341109    0.124497
     66          6           0        5.076088    5.676407   -0.593103
     67          6           0        3.706388    5.837705   -0.241503
     68          6           0        2.538388    5.943003    0.090997
     69          6           0        1.211887    6.088301    0.588997
     70          6           0        0.089988    5.729199   -0.175903
     71          6           0       -1.177712    5.886897    0.386397
     72          6           0       -2.545312    5.642195   -0.040903
     73          6           0       -3.157711    5.116594   -1.179303
     74          6           0       -4.557511    4.999491   -1.196403
     75          6           0       -5.249010    4.338090   -2.253603
     76          6           0       -5.926909    3.677989   -3.025103
     77          6           0       -6.756107    2.727888   -3.690703
     78          6           0       -6.195905    1.646289   -4.396203
     79          6           0       -6.971903    0.531387   -4.692503
     80          6           0       -8.317203    0.470485   -4.298803
     81          6           0       -8.929201   -0.861816   -4.037203
     82          6           0       -9.770900   -1.588017   -4.846403
     83          6           0      -10.236798   -2.864518   -4.435703
     84          6           0       -9.861297   -3.426817   -3.235903
     85          6           0       -8.992198   -2.717016   -2.370203
     86          6           0       -8.516997   -3.206015   -1.123903
     87          6           0       -7.650698   -2.457114   -0.364003
     88          7           0       -7.255800   -1.219113   -0.765503
     89          6           0       -7.699201   -0.724014   -1.905303
     90          6           0       -8.548500   -1.428415   -2.777103
     91          6           0       -8.915505    1.621484   -3.770003
     92          6           0       -8.147507    2.741785   -3.471803
     93          6           0       -5.325011    5.447990   -0.091703
     94          6           0       -4.730112    5.969791    1.047097
     95          6           0       -3.344112    6.040693    1.049197
     96          8           0       -2.590513    6.492295    2.083997
     97          6           0       -1.292713    6.398397    1.694097
     98          6           0       -0.202314    6.757099    2.473797
     99          6           0        1.050987    6.595701    1.902797
    100          6           0        5.444690    4.817808   -1.644603
    101          6           0        6.783390    4.599610   -1.931203
    102          6           0       10.126188    5.820816   -1.953203
    103          6           0       11.421689    5.415818   -2.353803
    104          6           0       11.802891    4.092019   -2.326903
    105          6           0       10.904292    3.118917   -1.830303
    106          1           0       12.115495    1.336519   -2.179303
    107          1           0       10.436298   -0.214684   -1.240203
    108          1           0        7.869193    2.910512   -0.294503
    109          1           0        8.202987    6.633513    0.403497
    110          1           0        5.813086    7.014909    0.937997
    111          1           0        0.217489    5.331399   -1.183703
    112          1           0       -2.568810    4.778895   -2.033303
    113          1           0       -5.126905    1.642190   -4.617603
    114          1           0       -6.498102   -0.352412   -5.126503
    115          1           0      -10.078800   -1.187618   -5.814303
    116          1           0      -10.905397   -3.416019   -5.100503
    117          1           0      -10.221595   -4.415918   -2.945903
    118          1           0       -8.828995   -4.190116   -0.769303
    119          1           0       -7.242598   -2.814913    0.582597
    120          1           0       -7.360103    0.278287   -2.164603
    121          1           0       -9.968005    1.597582   -3.477703
    122          1           0       -8.604908    3.597485   -2.971403
    123          1           0       -6.411311    5.363988   -0.139803
    124          1           0       -5.317713    6.300090    1.904397
    125          1           0       -0.330814    7.147098    3.484097
    126          1           0        1.942586    6.861102    2.473197
    127          1           0        4.670190    4.311507   -2.223203
    128          1           0        7.054991    3.916511   -2.739703
    129          1           0        9.834686    6.868215   -2.056903
    130          1           0       12.117287    6.170619   -2.727003
    131          1           0       12.787791    3.784220   -2.683503
    132          6           0       11.136401   -1.811982    1.827897
    133          6           0       10.236599   -0.931884    1.286297
    134          7           0        9.071100   -1.352786    0.709197
    135          6           0        8.759902   -2.634786    0.766297
    136          6           0        9.568404   -3.603485    1.388497
    137          6           0        9.129906   -4.958986    1.507397
    138          6           0        7.715506   -5.276788    1.200297
    139          6           0        7.345708   -6.163389    0.181997
    140          6           0        6.004908   -6.359791   -0.131603
    141          6           0        4.995307   -5.683393    0.578397
    142          6           0        3.626007   -5.830095    0.218597
    143          6           0        2.458007   -5.923797   -0.117503
    144          6           0        1.130108   -6.058099   -0.614803
    145          6           0        0.011107   -5.712201    0.160397
    146          6           0       -1.259093   -5.864903   -0.397603
    147          6           0       -2.625093   -5.633105    0.041597
    148          6           0       -3.232694   -5.127706    1.191597
    149          6           0       -4.632394   -5.011409    1.216897
    150          6           0       -5.317095   -4.356210    2.282397
    151          6           0       -5.985496   -3.690311    3.057097
    152          6           0       -6.799098   -2.725612    3.721097
    153          6           0       -6.220800   -1.657611    4.432597
    154          6           0       -6.974802   -0.526513    4.724697
    155          6           0       -8.315202   -0.435915    4.320697
    156          6           0       -8.900904    0.908384    4.061397
    157          6           0       -9.733605    1.644483    4.871197
    158          6           0      -10.181007    2.928282    4.463497
    159          6           0       -9.797608    3.487283    3.264597
    160          6           0       -8.937907    2.767084    2.398197
    161          6           0       -8.459808    3.250885    1.150997
    162          6           0       -7.606207    2.490986    0.387997
    163          7           0       -7.223705    1.248787    0.788997
    164          6           0       -7.668104    0.759186    1.930997
    165          6           0       -8.509605    1.472685    2.803497
    166          6           0       -8.934300   -1.572916    3.785297
    167          6           0       -8.188598   -2.709215    3.491497
    168          6           0       -5.404793   -5.445310    0.109797
    169          6           0       -4.814893   -5.948809   -1.039703
    170          6           0       -3.428692   -6.016007   -1.050603
    171          8           0       -2.679292   -6.448105   -2.096803
    172          6           0       -1.379592   -6.356003   -1.712603
    173          6           0       -0.292191   -6.699501   -2.503303
    174          6           0        0.963608   -6.544899   -1.935803
    175          6           0        5.366106   -4.828392    1.632097
    176          6           0        6.705105   -4.626090    1.928997
    177          6           0       10.030807   -5.891484    1.980397
    178          6           0       11.327007   -5.503782    2.395297
    179          6           0       11.725305   -4.184981    2.375697
    180          6           0       10.844403   -3.199383    1.871797
    181          1           0       12.074100   -1.433181    2.237697
    182          1           0       10.424597    0.141216    1.283997
    183          1           0        7.828802   -2.949688    0.304197
    184          1           0        8.118209   -6.678088   -0.393603
    185          1           0        5.728209   -7.030691   -0.946903
    186          1           0        0.142706   -5.330901    1.173997
    187          1           0       -2.640194   -4.802305    2.047897
    188          1           0       -5.153800   -1.676910    4.662397
    189          1           0       -6.485603    0.345888    5.164697
    190          1           0      -10.049405    1.245082    5.836897
    191          1           0      -10.842608    3.487581    5.128797
    192          1           0      -10.145110    4.481082    2.975497
    193          1           0       -8.760709    4.238784    0.797497
    194          1           0       -7.198207    2.842787   -0.561103
    195          1           0       -7.338302   -0.246013    2.191997
    196          1           0       -9.983800   -1.525918    3.485497
    197          1           0       -8.660597   -3.554215    2.986397
    198          1           0       -6.490994   -5.363412    0.164697
    199          1           0       -5.406292   -6.267210   -1.898903
    200          1           0       -0.424791   -7.073902   -3.519003
    201          1           0        1.852809   -6.800198   -2.514403
    202          1           0        4.593405   -4.312693    2.204697
    203          1           0        6.978604   -3.945989    2.739397
    204          1           0        9.724909   -6.935285    2.078897
    205          1           0       12.009108   -6.268281    2.774097
    206          1           0       12.710104   -3.890480    2.743497
 ---------------------------------------------------------------------

 SCF Done:  E(RPBE1PBE) =  -6246.28738343     A.U. after   18 cycles

 The electronic state is 1-A.
 Alpha  occ. eigenvalues --  -89.07128 -89.07116 -19.30029 -19.30021 -14.48456
 Alpha  occ. eigenvalues --  -14.48454 -14.48351 -14.48345 -14.48263 -14.48258
 Alpha  occ. eigenvalues --  -14.48245 -14.48224 -10.32268 -10.32261 -10.32235
 Alpha  occ. eigenvalues --  -10.32226 -10.32175 -10.32157 -10.32049 -10.32034
 Alpha  occ. eigenvalues --  -10.32028 -10.32026 -10.31982 -10.31981 -10.31978
 Alpha  occ. eigenvalues --  -10.31974 -10.31969 -10.31952 -10.31528 -10.31522
 Alpha  occ. eigenvalues --  -10.31321 -10.31308 -10.31019 -10.31014 -10.30906
 Alpha  occ. eigenvalues --  -10.30902 -10.30701 -10.30700 -10.30627 -10.30611
 Alpha  occ. eigenvalues --  -10.29098 -10.29094 -10.28964 -10.28961 -10.28842
 Alpha  occ. eigenvalues --  -10.28837 -10.28830 -10.28817 -10.28676 -10.28665
 Alpha  occ. eigenvalues --  -10.28660 -10.28632 -10.28617 -10.28599 -10.28565
 Alpha  occ. eigenvalues --  -10.28555 -10.28550 -10.28549 -10.28527 -10.28522
 Alpha  occ. eigenvalues --  -10.28509 -10.28507 -10.28418 -10.28416 -10.28410
 Alpha  occ. eigenvalues --  -10.28409 -10.28268 -10.28263 -10.28002 -10.27996
 Alpha  occ. eigenvalues --  -10.27805 -10.27801 -10.27726 -10.27713 -10.27579
 Alpha  occ. eigenvalues --  -10.27563 -10.27519 -10.27509 -10.27439 -10.27436
 Alpha  occ. eigenvalues --  -10.27233 -10.27232 -10.27226 -10.27222 -10.27176
 Alpha  occ. eigenvalues --  -10.27175 -10.27157 -10.27151 -10.27114 -10.27107
 Alpha  occ. eigenvalues --  -10.27043 -10.27033 -10.27015 -10.27014 -10.26896
 Alpha  occ. eigenvalues --  -10.26895 -10.26893 -10.26892 -10.26852 -10.26851
 Alpha  occ. eigenvalues --  -10.26750 -10.26749 -10.26736 -10.26729 -10.26724
 Alpha  occ. eigenvalues --  -10.26719 -10.26714 -10.26699 -10.26507 -10.26496
 Alpha  occ. eigenvalues --  -10.26487 -10.26480 -10.26461 -10.26449 -10.26392
 Alpha  occ. eigenvalues --  -10.26389 -10.26343 -10.26342 -10.26341 -10.26340
 Alpha  occ. eigenvalues --  -10.26307 -10.26298 -10.26278 -10.26277 -10.26245
 Alpha  occ. eigenvalues --  -10.26245 -10.26042 -10.26034 -10.25809 -10.25807
 Alpha  occ. eigenvalues --  -10.25507 -10.25507  -8.07182  -8.07170  -6.01314
 Alpha  occ. eigenvalues --   -6.01304  -6.00929  -6.00919  -6.00639  -6.00627
 Alpha  occ. eigenvalues --   -3.57222  -3.57077  -2.25166  -2.25030  -2.24937
 Alpha  occ. eigenvalues --   -2.24767  -2.20839  -2.20819  -1.16346  -1.16343
 Alpha  occ. eigenvalues --   -1.03705  -1.03554  -1.02821  -1.02732  -1.02689
 Alpha  occ. eigenvalues --   -1.02642  -1.02610  -1.02425  -0.95439  -0.95389
 Alpha  occ. eigenvalues --   -0.92694  -0.92680  -0.92516  -0.92465  -0.91320
 Alpha  occ. eigenvalues --   -0.91313  -0.90777  -0.90774  -0.90524  -0.90499
 Alpha  occ. eigenvalues --   -0.90301  -0.90289  -0.89532  -0.89345  -0.87144
 Alpha  occ. eigenvalues --   -0.86923  -0.85566  -0.85497  -0.85413  -0.85381
 Alpha  occ. eigenvalues --   -0.84046  -0.84018  -0.83307  -0.83281  -0.83156
 Alpha  occ. eigenvalues --   -0.83101  -0.83008  -0.82878  -0.82716  -0.82665
 Alpha  occ. eigenvalues --   -0.82471  -0.82402  -0.81874  -0.81752  -0.81435
 Alpha  occ. eigenvalues --   -0.81393  -0.80318  -0.80287  -0.79279  -0.79249
 Alpha  occ. eigenvalues --   -0.78909  -0.78898  -0.78753  -0.78700  -0.78646
 Alpha  occ. eigenvalues --   -0.78618  -0.78521  -0.78365  -0.78205  -0.78137
 Alpha  occ. eigenvalues --   -0.77156  -0.77141  -0.75211  -0.75203  -0.74714
 Alpha  occ. eigenvalues --   -0.74712  -0.71657  -0.71436  -0.70808  -0.70690
 Alpha  occ. eigenvalues --   -0.70565  -0.70408  -0.70357  -0.70248  -0.69931
 Alpha  occ. eigenvalues --   -0.69706  -0.69544  -0.69527  -0.69238  -0.69181
 Alpha  occ. eigenvalues --   -0.68531  -0.68445  -0.68427  -0.68327  -0.67511
 Alpha  occ. eigenvalues --   -0.67453  -0.67429  -0.67357  -0.66634  -0.66632
 Alpha  occ. eigenvalues --   -0.64749  -0.64740  -0.64511  -0.64508  -0.64142
 Alpha  occ. eigenvalues --   -0.64094  -0.62994  -0.62903  -0.62859  -0.62740
 Alpha  occ. eigenvalues --   -0.62355  -0.62341  -0.61947  -0.61728  -0.61452
 Alpha  occ. eigenvalues --   -0.61289  -0.58856  -0.58837  -0.58783  -0.58541
 Alpha  occ. eigenvalues --   -0.58432  -0.58198  -0.58054  -0.58035  -0.57924
 Alpha  occ. eigenvalues --   -0.57814  -0.57731  -0.57482  -0.57450  -0.57310
 Alpha  occ. eigenvalues --   -0.57189  -0.56920  -0.56599  -0.56576  -0.56359
 Alpha  occ. eigenvalues --   -0.56147  -0.55850  -0.55769  -0.55726  -0.55648
 Alpha  occ. eigenvalues --   -0.55412  -0.55372  -0.54811  -0.54780  -0.54497
 Alpha  occ. eigenvalues --   -0.54346  -0.53644  -0.53371  -0.53217  -0.53129
 Alpha  occ. eigenvalues --   -0.51829  -0.51769  -0.51719  -0.51650  -0.51460
 Alpha  occ. eigenvalues --   -0.51437  -0.51354  -0.51295  -0.51214  -0.51191
 Alpha  occ. eigenvalues --   -0.51147  -0.50848  -0.50726  -0.50563  -0.50554
 Alpha  occ. eigenvalues --   -0.50520  -0.50318  -0.50035  -0.50023  -0.49687
 Alpha  occ. eigenvalues --   -0.49382  -0.49318  -0.49244  -0.49048  -0.48996
 Alpha  occ. eigenvalues --   -0.48857  -0.48793  -0.48698  -0.48602  -0.48548
 Alpha  occ. eigenvalues --   -0.48230  -0.48135  -0.48126  -0.47971  -0.47931
 Alpha  occ. eigenvalues --   -0.47861  -0.47688  -0.47664  -0.47568  -0.47326
 Alpha  occ. eigenvalues --   -0.47316  -0.47256  -0.47060  -0.46868  -0.46799
 Alpha  occ. eigenvalues --   -0.46758  -0.46725  -0.46556  -0.46524  -0.46448
 Alpha  occ. eigenvalues --   -0.46402  -0.46034  -0.46001  -0.45695  -0.45630
 Alpha  occ. eigenvalues --   -0.45600  -0.45460  -0.45397  -0.45021  -0.45008
 Alpha  occ. eigenvalues --   -0.44775  -0.44539  -0.44380  -0.44354  -0.44300
 Alpha  occ. eigenvalues --   -0.44242  -0.44219  -0.43936  -0.43457  -0.43384
 Alpha  occ. eigenvalues --   -0.43115  -0.43072  -0.42981  -0.42958  -0.42685
 Alpha  occ. eigenvalues --   -0.42534  -0.42398  -0.42357  -0.42281  -0.42275
 Alpha  occ. eigenvalues --   -0.42254  -0.42168  -0.41937  -0.41524  -0.41483
 Alpha  occ. eigenvalues --   -0.41444  -0.41401  -0.41292  -0.41085  -0.41064
 Alpha  occ. eigenvalues --   -0.41029  -0.40976  -0.40909  -0.40768  -0.40657
 Alpha  occ. eigenvalues --   -0.40435  -0.40169  -0.39987  -0.39744  -0.39726
 Alpha  occ. eigenvalues --   -0.39250  -0.38951  -0.38946  -0.38515  -0.38476
 Alpha  occ. eigenvalues --   -0.38411  -0.38338  -0.38164  -0.38136  -0.38017
 Alpha  occ. eigenvalues --   -0.37782  -0.37736  -0.37536  -0.37448  -0.37416
 Alpha  occ. eigenvalues --   -0.37371  -0.37364  -0.36764  -0.36531  -0.36427
 Alpha  occ. eigenvalues --   -0.36383  -0.35774  -0.35165  -0.35092  -0.35050
 Alpha  occ. eigenvalues --   -0.34864  -0.34638  -0.34523  -0.34373  -0.34251
 Alpha  occ. eigenvalues --   -0.34137  -0.33625  -0.33417  -0.33257  -0.33074
 Alpha  occ. eigenvalues --   -0.32795  -0.32584  -0.32332  -0.32309  -0.32271
 Alpha  occ. eigenvalues --   -0.32117  -0.31935  -0.31352  -0.31291  -0.31255
 Alpha  occ. eigenvalues --   -0.30728  -0.30707  -0.30659  -0.30570  -0.30523
 Alpha  occ. eigenvalues --   -0.30273  -0.29832  -0.29805  -0.29487  -0.29329
 Alpha  occ. eigenvalues --   -0.29195  -0.29194  -0.29165  -0.29138  -0.29002
 Alpha  occ. eigenvalues --   -0.28780  -0.28601  -0.27577  -0.27567  -0.27174
 Alpha  occ. eigenvalues --   -0.27084  -0.26884  -0.26705  -0.25820  -0.25677
 Alpha  occ. eigenvalues --   -0.24298  -0.24285  -0.23662  -0.23657
 Alpha virt. eigenvalues --   -0.11958  -0.11933  -0.10137  -0.09426  -0.09357
 Alpha virt. eigenvalues --   -0.09331  -0.08842  -0.08397  -0.07804  -0.07486
 Alpha virt. eigenvalues --   -0.07380  -0.06956  -0.06596  -0.06571  -0.06487

 Mulliken charges:
               1
     1  Pd   0.525163
     2  Pd   0.446434
     3  C   -0.060001
     4  C    0.133907
     5  N   -0.348924
     6  C    0.118919
     7  C   -0.023332
     8  C    0.106059
     9  C   -0.092221
    10  C    0.014353
    11  C    0.008373
    12  C   -0.099685
    13  S    0.158644
    14  C    0.096295
    15  C   -0.044375
    16  C    0.144495
    17  N   -0.332985
    18  C    0.135324
    19  C   -0.033326
    20  H    0.075312
    21  H    0.113724
    22  H    0.115342
    23  H    0.066452
    24  H    0.059027
    25  H    0.060832
    26  H    0.072339
    27  H    0.117088
    28  H    0.114191
    29  H    0.065859
    30  C   -0.059773
    31  C    0.133623
    32  N   -0.348734
    33  C    0.119049
    34  C   -0.023694
    35  C    0.106575
    36  C   -0.092276
    37  C    0.010757
    38  C    0.011653
    39  C   -0.101537
    40  S    0.160148
    41  C    0.092644
    42  C   -0.039672
    43  C    0.143881
    44  N   -0.332176
    45  C    0.130117
    46  C   -0.030574
    47  H    0.074953
    48  H    0.113562
    49  H    0.115146
    50  H    0.066431
    51  H    0.058992
    52  H    0.060532
    53  H    0.071741
    54  H    0.120300
    55  H    0.112201
    56  H    0.066100
    57  C   -0.027985
    58  C    0.106476
    59  N   -0.324811
    60  C    0.184530
    61  C   -0.047110
    62  C    0.046037
    63  C   -0.089663
    64  C    0.011283
    65  C    0.001089
    66  C   -0.075571
    67  C   -0.025516
    68  C    0.003747
    69  C   -0.085644
    70  C   -0.019406
    71  C    0.037333
    72  C    0.017262
    73  C   -0.008807
    74  C   -0.089567
    75  C    0.016007
    76  C   -0.044902
    77  C   -0.087199
    78  C    0.005597
    79  C    0.001866
    80  C   -0.132024
    81  C    0.029344
    82  C   -0.027910
    83  C    0.000774
    84  C   -0.005633
    85  C    0.046429
    86  C   -0.041961
    87  C    0.135011
    88  N   -0.327976
    89  C    0.185850
    90  C   -0.023501
    91  C    0.016708
    92  C   -0.006583
    93  C   -0.003696
    94  C   -0.075733
    95  C    0.202747
    96  O   -0.260676
    97  C    0.195726
    98  C   -0.075450
    99  C    0.001704
   100  C   -0.001364
   101  C   -0.030420
   102  C   -0.013585
   103  C    0.000808
   104  C   -0.005853
   105  C    0.043437
   106  H    0.060410
   107  H    0.111986
   108  H    0.084108
   109  H    0.040293
   110  H    0.039665
   111  H    0.032000
   112  H    0.036107
   113  H    0.046674
   114  H    0.049897
   115  H    0.044506
   116  H    0.061212
   117  H    0.046951
   118  H    0.062996
   119  H    0.087817
   120  H    0.116002
   121  H    0.049160
   122  H    0.047510
   123  H    0.042148
   124  H    0.045494
   125  H    0.045262
   126  H    0.045172
   127  H    0.042854
   128  H    0.050824
   129  H    0.044960
   130  H    0.060916
   131  H    0.046624
   132  C   -0.027839
   133  C    0.106377
   134  N   -0.324801
   135  C    0.184512
   136  C   -0.047283
   137  C    0.046263
   138  C   -0.089435
   139  C    0.011153
   140  C    0.001239
   141  C   -0.075541
   142  C   -0.025538
   143  C    0.004374
   144  C   -0.087128
   145  C   -0.018106
   146  C    0.036151
   147  C    0.018912
   148  C   -0.012374
   149  C   -0.089445
   150  C    0.016401
   151  C   -0.045724
   152  C   -0.085967
   153  C    0.006081
   154  C    0.001734
   155  C   -0.132665
   156  C    0.028508
   157  C   -0.027156
   158  C    0.000848
   159  C   -0.005583
   160  C    0.046464
   161  C   -0.041245
   162  C    0.134761
   163  N   -0.329326
   164  C    0.185259
   165  C   -0.022890
   166  C    0.016982
   167  C   -0.006898
   168  C   -0.003489
   169  C   -0.075452
   170  C    0.203009
   171  O   -0.260668
   172  C    0.196394
   173  C   -0.076093
   174  C    0.002551
   175  C   -0.001373
   176  C   -0.030493
   177  C   -0.013513
   178  C    0.000716
   179  C   -0.005755
   180  C    0.043303
   181  H    0.060352
   182  H    0.111974
   183  H    0.083881
   184  H    0.040216
   185  H    0.039635
   186  H    0.032170
   187  H    0.036457
   188  H    0.046338
   189  H    0.049583
   190  H    0.044461
   191  H    0.061229
   192  H    0.046915
   193  H    0.063263
   194  H    0.088090
   195  H    0.117773
   196  H    0.048979
   197  H    0.047476
   198  H    0.042623
   199  H    0.045690
   200  H    0.045294
   201  H    0.045097
   202  H    0.042804
   203  H    0.050894
   204  H    0.044974
   205  H    0.060991
   206  H    0.046612
 Sum of Mulliken charges =   4.00000

 Dipole moment (field-independent basis, Debye):
    X=             14.5959    Y=             -0.0479    Z=             -0.0191  Tot=             14.5960
 Quadrupole moment (field-independent basis, Debye-Ang):
   XX=            291.7099   YY=           -617.1093   ZZ=           -662.7826
   XY=             -1.8844   XZ=              0.7835   YZ=             58.1290

 Normal termination of Gaussian 16 at Sat Jun  3 03:52:48 2023.
