 Gaussian 16, Revision C.01,
 Gaussian 16:  ES64L-G16RevC.01  3-Jul-2019

 ------------------------------------------------------------------
 # SP PBE1PBE/def2svp empiricaldispersion=GD3BJ scrf=(solvent=dmso)
 ------------------------------------------------------------------

 -----------
 trans_l1_ld
 -----------
 Symbolic Z-matrix:
 Charge =  4 Multiplicity = 1

                         Standard orientation:
 ---------------------------------------------------------------------
 Center     Atomic      Atomic             Coordinates (Angstroms)
 Number     Number       Type             X           Y           Z
 ---------------------------------------------------------------------
      1         46           0       -7.506498   -0.061195   -0.107600
      2         46           0        7.506202   -0.061608   -0.107500
      3          6           0       -5.068496    1.573003   -0.521200
      4          7           0       -6.072797    1.316104    0.333600
      5          6           0       -6.125996    1.985304    1.498000
      6          6           0       -5.179295    2.932003    1.844100
      7          6           0       -4.110695    3.203402    0.977000
      8          6           0       -3.053094    4.158001    1.350000
      9          6           0       -3.383993    5.353201    2.023400
     10          6           0       -2.411392    6.259800    2.429200
     11          6           0       -1.091693    5.915599    2.173200
     12          8           0        0.000108    6.634298    2.549200
     13          6           0        1.091807    5.915697    2.173000
     14          6           0        2.411508    6.259996    2.428700
     15          6           0        3.384207    5.353495    2.022900
     16          6           0        3.053206    4.158196    1.349500
     17          6           0        4.110905    3.203595    0.976600
     18          6           0        4.079304    2.498495   -0.235200
     19          6           0        5.068704    1.573094   -0.521500
     20          7           0        6.072903    1.316093    0.333400
     21          6           0        6.126104    1.985393    1.497700
     22          6           0        5.179405    2.932194    1.843700
     23          6           0        1.715106    3.851897    1.076100
     24          6           0        0.724406    4.729298    1.511600
     25          6           0       -0.724194    4.729299    1.511700
     26          6           0       -1.714994    3.851700    1.076400
     27          6           0       -4.079096    2.498302   -0.234800
     28          1           0       -5.068097    1.020003   -1.462000
     29          1           0       -6.951996    1.743304    2.168800
     30          1           0       -5.259695    3.428403    2.811800
     31          1           0       -4.433893    5.584302    2.213400
     32          1           0       -2.668591    7.189401    2.937800
     33          1           0        2.668809    7.189696    2.937400
     34          1           0        4.434107    5.584694    2.212700
     35          1           0        3.296305    2.682495   -0.971900
     36          1           0        5.068303    1.019994   -1.462200
     37          1           0        6.951904    1.743292    2.168700
     38          1           0        5.259805    3.428594    2.811400
     39          1           0        1.450305    2.918697    0.575300
     40          1           0       -1.450195    2.918600    0.575600
     41          1           0       -3.295995    2.682201   -0.971400
     42          6           0       -6.043300   -2.078996   -1.657700
     43          7           0       -6.038899   -1.413496   -0.490400
     44          6           0       -5.090399   -1.690997    0.419200
     45          6           0       -4.108800   -2.640098    0.188500
     46          6           0       -4.095601   -3.347598   -1.021500
     47          6           0       -3.047202   -4.331299   -1.340500
     48          6           0       -3.379203   -5.525999   -2.014900
     49          6           0       -2.410303   -6.449000   -2.392100
     50          6           0       -1.091703   -6.116901   -2.114100
     51          8           0       -0.000304   -6.840502   -2.481300
     52          6           0        1.091097   -6.116903   -2.113900
     53          6           0        2.409797   -6.449004   -2.391900
     54          6           0        3.378597   -5.526105   -2.014500
     55          6           0        3.046598   -4.331404   -1.340200
     56          6           0        4.094999   -3.347605   -1.021300
     57          6           0        5.102500   -3.049306   -1.949800
     58          6           0        6.042700   -2.079207   -1.657600
     59          7           0        6.038401   -1.413707   -0.490300
     60          6           0        5.089901   -1.691006    0.419300
     61          6           0        4.108200   -2.640005    0.188700
     62          6           0        1.711799   -4.040103   -1.038100
     63          6           0        0.723498   -4.928802   -1.455600
     64          6           0       -0.724102   -4.928801   -1.455600
     65          6           0       -1.712401   -4.040100   -1.038200
     66          6           0       -5.103100   -3.049197   -1.950000
     67          1           0       -6.825299   -1.818296   -2.372400
     68          1           0       -5.130899   -1.137697    1.359000
     69          1           0       -3.372200   -2.843699    0.966800
     70          1           0       -4.426603   -5.739198   -2.237000
     71          1           0       -2.668204   -7.375799   -2.905600
     72          1           0        2.667696   -7.375904   -2.905300
     73          1           0        4.426097   -5.739306   -2.236500
     74          1           0        5.139199   -3.545806   -2.920000
     75          1           0        6.824801   -1.818608   -2.372300
     76          1           0        5.130401   -1.137706    1.359100
     77          1           0        3.371500   -2.843505    0.967000
     78          1           0        1.446300   -3.105203   -0.540700
     79          1           0       -1.447000   -3.105200   -0.540800
     80          1           0       -5.139901   -3.545697   -2.920200
     81          6           0       10.911000   -2.290911   -1.509300
     82          6           0       10.678599   -3.605811   -1.032200
     83          6           0        9.484599   -3.834210   -0.285900
     84          6           0        9.128698   -5.157510    0.134200
     85          6           0        9.993497   -6.189110   -0.173900
     86          6           0       11.203797   -5.953312   -0.865800
     87          6           0       11.545798   -4.692012   -1.296900
     88          6           0        7.806097   -5.407409    0.755300
     89          6           0        7.402198   -4.766608    1.937300
     90          6           0        6.097698   -4.879807    2.397900
     91          6           0        5.156497   -5.651306    1.689700
     92          6           0        3.788497   -5.648405    2.073000
     93          6           0        2.605097   -5.555504    2.359300
     94          6           0        1.246097   -5.392203    2.678500
     95          6           0        0.702198   -4.647702    3.717600
     96          6           0       -0.703502   -4.647701    3.717500
     97          6           0       -1.247403   -5.392101    2.678400
     98          6           0       -2.606303   -5.555299    2.358900
     99          6           0       -3.789703   -5.648098    2.072600
    100          6           0       -5.157703   -5.650997    1.689200
    101          6           0       -6.098902   -4.879596    2.397500
    102          6           0       -7.403402   -4.766195    1.936900
    103          6           0       -7.807203   -5.406795    0.754800
    104          6           0       -9.129802   -5.156694    0.133500
    105          6           0       -9.485501   -3.833393   -0.286400
    106          6           0      -10.679401   -3.604792   -1.032800
    107          6           0      -10.911500   -2.289792   -1.509900
    108          6           0      -10.009399   -1.290693   -1.255500
    109          7           0       -8.889599   -1.513394   -0.510000
    110          6           0       -8.647600   -2.727994   -0.045500
    111          6           0      -11.546602   -4.690892   -1.297800
    112          6           0      -11.204803   -5.952292   -0.866800
    113          6           0       -9.994603   -6.188193   -0.174800
    114          6           0       -6.888403   -6.235996    0.094800
    115          6           0       -5.584203   -6.363797    0.554200
    116         16           0       -0.000603   -6.104002    1.703100
    117          6           0        5.582997   -6.364307    0.554800
    118          6           0        6.887297   -6.236608    0.095400
    119          6           0        8.646800   -2.728709   -0.045300
    120          7           0        8.889001   -1.514210   -0.509800
    121          6           0       10.009001   -1.291711   -1.255100
    122          1           0       11.799900   -2.073012   -2.103500
    123          1           0        9.737496   -7.208110    0.124100
    124          1           0       11.867096   -6.796112   -1.072200
    125          1           0       12.469198   -4.518913   -1.853100
    126          1           0        8.115599   -4.155409    2.495200
    127          1           0        5.788698   -4.348607    3.299800
    128          1           0        1.320399   -4.118003    4.442200
    129          1           0       -1.321901   -4.117901    4.442000
    130          1           0       -5.789902   -4.348497    3.299500
    131          1           0       -8.116801   -4.155095    2.494800
    132          1           0      -11.800300   -2.071691   -2.104200
    133          1           0      -10.148298   -0.280293   -1.640000
    134          1           0       -7.737500   -2.859395    0.535600
    135          1           0      -12.469902   -4.517591   -1.854100
    136          1           0      -11.868204   -6.794891   -1.073400
    137          1           0       -9.738804   -7.207293    0.123100
    138          1           0       -7.191204   -6.751995   -0.819200
    139          1           0       -4.871504   -6.988997    0.014600
    140          1           0        4.870296   -6.989506    0.015200
    141          1           0        7.190096   -6.752908   -0.818400
    142          1           0        7.736500   -2.860009    0.535600
    143          1           0       10.148102   -0.281411   -1.639600
    144          6           0       11.131804    1.994789    0.946900
    145          6           0       10.922405    3.317889    0.482100
    146          6           0        9.652005    3.620390   -0.092100
    147          6           0        9.327307    4.961190   -0.479000
    148          6           0       10.298807    5.931189   -0.324700
    149          6           0       11.578207    5.618888    0.188900
    150          6           0       11.890706    4.342688    0.597900
    151          6           0        7.944607    5.312691   -0.883100
    152          6           0        7.282806    4.700092   -1.959200
    153          6           0        5.937907    4.948793   -2.206000
    154          6           0        5.215507    5.832594   -1.384000
    155          6           0        3.818008    6.045195   -1.531800
    156          6           0        2.614808    6.251696   -1.512000
    157          6           0        1.247808    6.552597   -1.387000
    158          6           0        0.703409    7.632398   -0.705400
    159          6           0       -0.701391    7.632399   -0.705300
    160          6           0       -1.245992    6.552699   -1.386800
    161          6           0       -2.612992    6.251801   -1.511600
    162          6           0       -3.816292    6.045502   -1.531200
    163          6           0       -5.213793    5.833003   -1.383300
    164          6           0       -5.936293    4.949303   -2.205400
    165          6           0       -7.281194    4.700805   -1.958500
    166          6           0       -7.942893    5.313405   -0.882400
    167          6           0       -9.325793    4.962306   -0.478400
    168          6           0       -9.650995    3.621507   -0.091900
    169          6           0      -10.921495    3.319408    0.482300
    170          6           0      -11.131496    1.996208    0.946800
    171          6           0      -10.145197    1.053907    0.824400
    172          7           0       -8.954697    1.340706    0.224000
    173          6           0       -8.723296    2.569206   -0.207400
    174          6           0      -11.889494    4.344609    0.598200
    175          6           0      -11.576493    5.620708    0.189400
    176          6           0      -10.296893    5.932607   -0.324000
    177          6           0       -7.234592    6.239805   -0.102600
    178          6           0       -5.894392    6.500803   -0.347000
    179         16           0        0.000807    5.531598   -2.033700
    180          6           0        5.896208    6.500393   -0.347800
    181          6           0        7.236408    6.239192   -0.103300
    182          6           0        8.724004    2.568391   -0.207600
    183          7           0        8.954903    1.339890    0.224100
    184          6           0       10.145203    1.052689    0.824600
    185          1           0       12.076204    1.724288    1.422000
    186          1           0       10.072408    6.962689   -0.603000
    187          1           0       12.320908    6.414787    0.277000
    188          1           0       12.869906    4.111287    1.021600
    189          1           0        7.825806    4.011891   -2.611300
    190          1           0        5.433106    4.446194   -3.032800
    191          1           0        1.322510    8.384297   -0.216600
    192          1           0       -1.320390    8.384399   -0.216300
    193          1           0       -5.431594    4.446703   -3.032200
    194          1           0       -7.824394    4.012805   -2.610700
    195          1           0      -12.075996    1.726009    1.421700
    196          1           0      -10.272598    0.038007    1.197700
    197          1           0       -7.754595    2.754305   -0.665100
    198          1           0      -12.868794    4.113410    1.021700
    199          1           0      -12.318992    6.416909    0.277600
    200          1           0      -10.070192    6.964107   -0.602200
    201          1           0       -7.735292    6.731105    0.734600
    202          1           0       -5.349891    7.205003    0.284200
    203          1           0        5.351909    7.204694    0.283400
    204          1           0        7.737208    6.730491    0.733900
    205          1           0        7.755305    2.753691   -0.665400
    206          1           0       10.272202    0.036889    1.198100
 ---------------------------------------------------------------------

 SCF Done:  E(RPBE1PBE) =  -6246.34063809     A.U. after   19 cycles

 The electronic state is 1-A.
 Alpha  occ. eigenvalues --  -89.06115 -89.05999 -19.30114 -19.29987 -14.48442
 Alpha  occ. eigenvalues --  -14.48442 -14.48411 -14.48411 -14.48340 -14.48339
 Alpha  occ. eigenvalues --  -14.48324 -14.48323 -10.32179 -10.32173 -10.32073
 Alpha  occ. eigenvalues --  -10.32072 -10.32027 -10.32027 -10.31991 -10.31987
 Alpha  occ. eigenvalues --  -10.31897 -10.31897 -10.31867 -10.31867 -10.31809
 Alpha  occ. eigenvalues --  -10.31809 -10.31795 -10.31794 -10.30944 -10.30943
 Alpha  occ. eigenvalues --  -10.30902 -10.30902 -10.30572 -10.30570 -10.30394
 Alpha  occ. eigenvalues --  -10.30392 -10.30201 -10.30200 -10.30170 -10.30169
 Alpha  occ. eigenvalues --  -10.29087 -10.29087 -10.29064 -10.29062 -10.28835
 Alpha  occ. eigenvalues --  -10.28835 -10.28812 -10.28811 -10.28598 -10.28597
 Alpha  occ. eigenvalues --  -10.28575 -10.28575 -10.28565 -10.28565 -10.28539
 Alpha  occ. eigenvalues --  -10.28538 -10.28094 -10.28093 -10.28072 -10.28071
 Alpha  occ. eigenvalues --  -10.28066 -10.28065 -10.28039 -10.28039 -10.27847
 Alpha  occ. eigenvalues --  -10.27846 -10.27820 -10.27820 -10.27592 -10.27592
 Alpha  occ. eigenvalues --  -10.27582 -10.27582 -10.27575 -10.27574 -10.27415
 Alpha  occ. eigenvalues --  -10.27414 -10.27260 -10.27249 -10.27188 -10.27188
 Alpha  occ. eigenvalues --  -10.27169 -10.27169 -10.27142 -10.27122 -10.27094
 Alpha  occ. eigenvalues --  -10.27083 -10.26958 -10.26944 -10.26943 -10.26940
 Alpha  occ. eigenvalues --  -10.26907 -10.26907 -10.26880 -10.26880 -10.26796
 Alpha  occ. eigenvalues --  -10.26796 -10.26778 -10.26778 -10.26761 -10.26760
 Alpha  occ. eigenvalues --  -10.26759 -10.26755 -10.26684 -10.26656 -10.26651
 Alpha  occ. eigenvalues --  -10.26647 -10.26582 -10.26581 -10.26559 -10.26559
 Alpha  occ. eigenvalues --  -10.26548 -10.26544 -10.26510 -10.26484 -10.26479
 Alpha  occ. eigenvalues --  -10.26476 -10.26475 -10.26470 -10.26465 -10.26460
 Alpha  occ. eigenvalues --  -10.26457 -10.26456 -10.26450 -10.26450 -10.26418
 Alpha  occ. eigenvalues --  -10.26418 -10.26310 -10.26310 -10.26247 -10.26242
 Alpha  occ. eigenvalues --  -10.26226 -10.26225  -8.06158  -8.06073  -6.00300
 Alpha  occ. eigenvalues --   -6.00215  -5.99913  -5.99832  -5.99588  -5.99499
 Alpha  occ. eigenvalues --   -3.57029  -3.57028  -2.24891  -2.24891  -2.24846
 Alpha  occ. eigenvalues --   -2.24846  -2.20608  -2.20608  -1.16337  -1.16139
 Alpha  occ. eigenvalues --   -1.03430  -1.03429  -1.02749  -1.02748  -1.02564
 Alpha  occ. eigenvalues --   -1.02563  -1.02370  -1.02370  -0.93786  -0.93630
 Alpha  occ. eigenvalues --   -0.92550  -0.92547  -0.92490  -0.92487  -0.91987
 Alpha  occ. eigenvalues --   -0.91783  -0.91537  -0.91360  -0.90474  -0.90462
 Alpha  occ. eigenvalues --   -0.90418  -0.90408  -0.87704  -0.87553  -0.87324
 Alpha  occ. eigenvalues --   -0.87178  -0.85575  -0.85523  -0.85484  -0.85438
 Alpha  occ. eigenvalues --   -0.83642  -0.83516  -0.82974  -0.82862  -0.82793
 Alpha  occ. eigenvalues --   -0.82701  -0.82659  -0.82573  -0.82547  -0.82484
 Alpha  occ. eigenvalues --   -0.82417  -0.82333  -0.82209  -0.81935  -0.81475
 Alpha  occ. eigenvalues --   -0.81286  -0.80528  -0.80365  -0.79591  -0.79481
 Alpha  occ. eigenvalues --   -0.78849  -0.78827  -0.78786  -0.78693  -0.78383
 Alpha  occ. eigenvalues --   -0.78242  -0.78170  -0.78134  -0.78054  -0.77968
 Alpha  occ. eigenvalues --   -0.77105  -0.76924  -0.76273  -0.76214  -0.73884
 Alpha  occ. eigenvalues --   -0.73718  -0.71013  -0.70880  -0.70825  -0.70771
 Alpha  occ. eigenvalues --   -0.70742  -0.70711  -0.70326  -0.70203  -0.69875
 Alpha  occ. eigenvalues --   -0.69700  -0.69525  -0.69429  -0.69047  -0.68972
 Alpha  occ. eigenvalues --   -0.68749  -0.68643  -0.68205  -0.68157  -0.67472
 Alpha  occ. eigenvalues --   -0.67390  -0.67304  -0.67149  -0.65039  -0.64907
 Alpha  occ. eigenvalues --   -0.64640  -0.64560  -0.64535  -0.64505  -0.64475
 Alpha  occ. eigenvalues --   -0.64383  -0.63293  -0.63203  -0.63194  -0.63030
 Alpha  occ. eigenvalues --   -0.62598  -0.62530  -0.62497  -0.62365  -0.61140
 Alpha  occ. eigenvalues --   -0.60895  -0.59921  -0.59314  -0.59270  -0.58420
 Alpha  occ. eigenvalues --   -0.58129  -0.58059  -0.58053  -0.58014  -0.57710
 Alpha  occ. eigenvalues --   -0.57655  -0.57249  -0.57105  -0.57039  -0.56993
 Alpha  occ. eigenvalues --   -0.56937  -0.56821  -0.56749  -0.56647  -0.56596
 Alpha  occ. eigenvalues --   -0.56496  -0.55925  -0.55883  -0.55698  -0.55682
 Alpha  occ. eigenvalues --   -0.55671  -0.55555  -0.55063  -0.54859  -0.54092
 Alpha  occ. eigenvalues --   -0.53859  -0.53021  -0.52921  -0.51915  -0.51837
 Alpha  occ. eigenvalues --   -0.51633  -0.51556  -0.51299  -0.51271  -0.51238
 Alpha  occ. eigenvalues --   -0.51158  -0.51120  -0.51036  -0.50911  -0.50768
 Alpha  occ. eigenvalues --   -0.50628  -0.50621  -0.50518  -0.50433  -0.50369
 Alpha  occ. eigenvalues --   -0.50115  -0.50020  -0.49731  -0.49647  -0.49601
 Alpha  occ. eigenvalues --   -0.49457  -0.49415  -0.49162  -0.49080  -0.49014
 Alpha  occ. eigenvalues --   -0.48891  -0.48728  -0.48614  -0.48562  -0.48544
 Alpha  occ. eigenvalues --   -0.48190  -0.48163  -0.48130  -0.47848  -0.47788
 Alpha  occ. eigenvalues --   -0.47707  -0.47639  -0.47461  -0.47447  -0.47380
 Alpha  occ. eigenvalues --   -0.47321  -0.47224  -0.47124  -0.46940  -0.46773
 Alpha  occ. eigenvalues --   -0.46638  -0.46623  -0.46560  -0.46414  -0.46318
 Alpha  occ. eigenvalues --   -0.45949  -0.45794  -0.45682  -0.45601  -0.45558
 Alpha  occ. eigenvalues --   -0.45547  -0.45534  -0.45508  -0.45387  -0.45262
 Alpha  occ. eigenvalues --   -0.44890  -0.44468  -0.44391  -0.44175  -0.44085
 Alpha  occ. eigenvalues --   -0.44068  -0.43601  -0.43502  -0.43438  -0.43416
 Alpha  occ. eigenvalues --   -0.43320  -0.43270  -0.42732  -0.42601  -0.42441
 Alpha  occ. eigenvalues --   -0.42299  -0.42258  -0.42237  -0.42142  -0.42123
 Alpha  occ. eigenvalues --   -0.41836  -0.41729  -0.41728  -0.41558  -0.41460
 Alpha  occ. eigenvalues --   -0.41395  -0.41359  -0.41318  -0.41248  -0.41170
 Alpha  occ. eigenvalues --   -0.40967  -0.40786  -0.40670  -0.40506  -0.40214
 Alpha  occ. eigenvalues --   -0.40028  -0.39974  -0.39763  -0.39593  -0.39497
 Alpha  occ. eigenvalues --   -0.38775  -0.38661  -0.38607  -0.38522  -0.38292
 Alpha  occ. eigenvalues --   -0.38257  -0.38217  -0.38202  -0.37735  -0.37715
 Alpha  occ. eigenvalues --   -0.37645  -0.37635  -0.37502  -0.37378  -0.37351
 Alpha  occ. eigenvalues --   -0.37150  -0.36915  -0.36906  -0.36504  -0.36306
 Alpha  occ. eigenvalues --   -0.36147  -0.36034  -0.35665  -0.35520  -0.35315
 Alpha  occ. eigenvalues --   -0.35080  -0.34849  -0.34653  -0.34380  -0.34234
 Alpha  occ. eigenvalues --   -0.33908  -0.33585  -0.33179  -0.33164  -0.32977
 Alpha  occ. eigenvalues --   -0.32875  -0.32310  -0.32153  -0.32090  -0.31945
 Alpha  occ. eigenvalues --   -0.31708  -0.31641  -0.31452  -0.31270  -0.30956
 Alpha  occ. eigenvalues --   -0.30844  -0.30819  -0.30816  -0.30692  -0.30648
 Alpha  occ. eigenvalues --   -0.30428  -0.29742  -0.29317  -0.29280  -0.29173
 Alpha  occ. eigenvalues --   -0.29152  -0.29118  -0.29008  -0.28986  -0.28913
 Alpha  occ. eigenvalues --   -0.28848  -0.28803  -0.28184  -0.27977  -0.27051
 Alpha  occ. eigenvalues --   -0.26866  -0.26255  -0.26147  -0.26048  -0.25876
 Alpha  occ. eigenvalues --   -0.25814  -0.25617  -0.22628  -0.22353
 Alpha virt. eigenvalues --   -0.09845  -0.09756  -0.09341  -0.09266  -0.08743
 Alpha virt. eigenvalues --   -0.08735  -0.08699  -0.08663  -0.08448  -0.08407
 Alpha virt. eigenvalues --   -0.08196  -0.08099  -0.06575  -0.06563  -0.06349

 Mulliken charges:
               1
     1  Pd   0.477819
     2  Pd   0.477811
     3  C    0.144893
     4  N   -0.350047
     5  C    0.136549
     6  C   -0.034016
     7  C    0.051939
     8  C    0.021585
     9  C   -0.028080
    10  C   -0.075353
    11  C    0.212352
    12  O   -0.271744
    13  C    0.212440
    14  C   -0.075500
    15  C   -0.028052
    16  C    0.021513
    17  C    0.051952
    18  C   -0.034842
    19  C    0.144905
    20  N   -0.350025
    21  C    0.136558
    22  C   -0.034037
    23  C   -0.050284
    24  C    0.031543
    25  C    0.031561
    26  C   -0.050223
    27  C   -0.034825
    28  H    0.112882
    29  H    0.117218
    30  H    0.065999
    31  H    0.049721
    32  H    0.044167
    33  H    0.044248
    34  H    0.049711
    35  H    0.062581
    36  H    0.112864
    37  H    0.117212
    38  H    0.065994
    39  H    0.033993
    40  H    0.033954
    41  H    0.062572
    42  C    0.141378
    43  N   -0.351205
    44  C    0.143542
    45  C   -0.026109
    46  C    0.046727
    47  C    0.013669
    48  C   -0.036955
    49  C   -0.070504
    50  C    0.206265
    51  O   -0.263258
    52  C    0.206163
    53  C   -0.070430
    54  C   -0.036986
    55  C    0.013700
    56  C    0.046689
    57  C   -0.032191
    58  C    0.141351
    59  N   -0.351192
    60  C    0.143544
    61  C   -0.026114
    62  C   -0.038859
    63  C    0.020377
    64  C    0.020395
    65  C   -0.038887
    66  C   -0.032209
    67  H    0.117673
    68  H    0.112940
    69  H    0.063175
    70  H    0.052041
    71  H    0.046422
    72  H    0.046447
    73  H    0.052073
    74  H    0.066192
    75  H    0.117696
    76  H    0.112945
    77  H    0.063207
    78  H    0.036944
    79  H    0.036929
    80  H    0.066194
    81  C   -0.029032
    82  C    0.036737
    83  C   -0.008845
    84  C    0.039875
    85  C   -0.031223
    86  C    0.005159
    87  C   -0.005844
    88  C   -0.057319
    89  C   -0.045208
    90  C    0.008177
    91  C   -0.088629
    92  C   -0.031877
    93  C    0.040290
    94  C   -0.200332
    95  C    0.031180
    96  C    0.031147
    97  C   -0.200346
    98  C    0.040283
    99  C   -0.031868
   100  C   -0.088605
   101  C    0.008140
   102  C   -0.045173
   103  C   -0.057337
   104  C    0.039861
   105  C   -0.008846
   106  C    0.036755
   107  C   -0.029044
   108  C    0.119792
   109  N   -0.338284
   110  C    0.153080
   111  C   -0.005866
   112  C    0.005189
   113  C   -0.031244
   114  C    0.004783
   115  C    0.005805
   116  S    0.215419
   117  C    0.005797
   118  C    0.004760
   119  C    0.153018
   120  N   -0.338259
   121  C    0.119836
   122  H    0.061205
   123  H    0.046887
   124  H    0.061047
   125  H    0.047380
   126  H    0.053807
   127  H    0.041500
   128  H    0.051323
   129  H    0.051366
   130  H    0.041521
   131  H    0.053780
   132  H    0.061215
   133  H    0.106115
   134  H    0.110144
   135  H    0.047374
   136  H    0.061020
   137  H    0.046898
   138  H    0.043233
   139  H    0.044688
   140  H    0.044695
   141  H    0.043220
   142  H    0.110159
   143  H    0.106072
   144  C   -0.029963
   145  C    0.036917
   146  C   -0.007762
   147  C    0.040714
   148  C   -0.034282
   149  C    0.006026
   150  C   -0.005912
   151  C   -0.049840
   152  C   -0.049296
   153  C    0.012095
   154  C   -0.086925
   155  C   -0.037588
   156  C    0.059512
   157  C   -0.208287
   158  C    0.039624
   159  C    0.039541
   160  C   -0.208263
   161  C    0.059469
   162  C   -0.037537
   163  C   -0.087027
   164  C    0.012159
   165  C   -0.049322
   166  C   -0.049784
   167  C    0.040784
   168  C   -0.007778
   169  C    0.036734
   170  C   -0.029833
   171  C    0.119217
   172  N   -0.335390
   173  C    0.151757
   174  C   -0.005848
   175  C    0.005978
   176  C   -0.034329
   177  C   -0.000956
   178  C    0.001866
   179  S    0.204103
   180  C    0.001841
   181  C   -0.000955
   182  C    0.151648
   183  N   -0.335366
   184  C    0.119252
   185  H    0.061206
   186  H    0.047253
   187  H    0.060798
   188  H    0.047259
   189  H    0.053982
   190  H    0.040516
   191  H    0.050778
   192  H    0.050827
   193  H    0.040497
   194  H    0.053994
   195  H    0.061171
   196  H    0.105389
   197  H    0.106330
   198  H    0.047245
   199  H    0.060844
   200  H    0.047280
   201  H    0.042782
   202  H    0.042221
   203  H    0.042203
   204  H    0.042811
   205  H    0.106421
   206  H    0.105355
 Sum of Mulliken charges =   4.00000

 Dipole moment (field-independent basis, Debye):
    X=             -0.0013    Y=              0.0795    Z=             -1.1593  Tot=              1.1620
 Quadrupole moment (field-independent basis, Debye-Ang):
   XX=            525.5876   YY=           -505.2322   ZZ=           -733.8302
   XY=             -0.0347   XZ=              0.0143   YZ=             81.5990

 Normal termination of Gaussian 16 at Sat Jun  3 02:47:37 2023.
