 Gaussian 16, Revision C.01,
 Gaussian 16:  ES64L-G16RevC.01  3-Jul-2019

 ----------------------------------------------------------------------
 #P PBE1PBE/Def2SVP SP SCF=(YQC,MaxCycle=900) int=(Grid=Superfinegrid)
 EmpiricalDispersion=GD3BJ SCRF=(PCM,Solvent=DiMethylSulfoxide)
 ----------------------------------------------------------------------

 --------
 _s_5b4_d
 --------
 Symbolic Z-matrix:
 Charge =  4 Multiplicity = 1

                         Standard orientation:
 ---------------------------------------------------------------------
 Center     Atomic      Atomic             Coordinates (Angstroms)
 Number     Number       Type             X           Y           Z
 ---------------------------------------------------------------------
      1         46           0       -6.922333   -0.304716   -0.011927
      2         46           0        6.922475   -0.304704    0.010906
      3          6           0        2.314188    5.000431    1.374097
      4          6           0        3.514758    5.078051    1.245465
      5          6           0        4.911979    5.051410    1.080481
      6          6           0        5.647176    6.188346    0.797496
      7          6           0        7.031400    6.118835    0.604364
      8          6           0        7.698854    4.922225    0.670626
      9          6           0        6.985445    3.738529    0.950999
     10          6           0        7.589154    2.463475    0.939132
     11          7           0        6.919124    1.355716    1.164921
     12          6           0        5.598933    1.421406    1.504850
     13          6           0        4.916251    2.603900    1.517662
     14          6           0        5.583957    3.801232    1.185748
     15          1           0        5.145405    7.140963    0.723816
     16          1           0        7.574934    7.026249    0.390703
     17          1           0        8.763381    4.872382    0.506096
     18          1           0        8.644029    2.365279    0.710899
     19          1           0        5.128073    0.482913    1.810167
     20          1           0        3.868148    2.642205    1.767967
     21          6           0        0.921528    4.866347    1.527765
     22          6           0        0.094901    5.989334    1.639147
     23          6           0       -1.263149    5.833885    1.805827
     24          6           0       -1.826587    4.552933    1.857018
     25          6           0       -1.002192    3.429845    1.732313
     26          6           0        0.356000    3.586074    1.572610
     27          1           0        0.530148    6.976656    1.603791
     28          1           0       -1.901093    6.699207    1.901304
     29          1           0       -1.436263    2.443989    1.780408
     30          1           0        0.995203    2.721850    1.485334
     31          6           0       -3.208467    4.412119    2.080915
     32          6           0       -4.388654    4.294387    2.322366
     33          6           0       -5.742507    4.276195    2.700386
     34          6           0       -6.280730    5.393242    3.317418
     35          6           0       -7.609813    5.413486    3.746799
     36          6           0       -8.426589    4.325340    3.561118
     37          6           0       -7.929281    3.176694    2.922297
     38          6           0       -8.726476    2.034407    2.680734
     39          6           0       -8.204644    0.973451    2.001576
     40          7           0       -6.918519    0.963938    1.553767
     41          6           0       -6.131462    1.989745    1.805839
     42          6           0       -6.574418    3.138605    2.480879
     43          1           0       -5.654803    6.257457    3.477634
     44          1           0       -7.990984    6.298208    4.233146
     45          1           0       -9.451390    4.338997    3.896850
     46          1           0       -9.748826    2.021292    3.023839
     47          1           0       -8.794256    0.073829    1.804421
     48          1           0       -5.108083    1.927888    1.453225
     49          6           0       -1.846096   -4.761162    3.525118
     50          6           0       -3.053586   -4.824852    3.480341
     51          6           0       -4.457780   -4.817653    3.381384
     52          6           0       -5.242669   -5.765167    4.014852
     53          6           0       -6.637652   -5.733026    3.904319
     54          6           0       -7.269652   -4.762818    3.167953
     55          6           0       -6.506075   -3.776881    2.508594
     56          6           0       -7.092393   -2.749797    1.739648
     57          7           0       -6.380144   -1.830503    1.130216
     58          6           0       -5.022777   -1.840951    1.222359
     59          6           0       -4.360188   -2.793925    1.940604
     60          6           0       -5.086921   -3.798820    2.611007
     61          1           0       -4.771895   -6.539183    4.601753
     62          1           0       -7.218117   -6.488345    4.411341
     63          1           0       -8.344927   -4.744919    3.088790
     64          1           0       -8.170810   -2.701782    1.631388
     65          1           0       -4.490938   -1.040149    0.698087
     66          1           0       -3.284325   -2.792559    2.010589
     67          6           0       -0.443548   -4.644475    3.568380
     68          6           0        0.199320   -3.724559    2.730189
     69          6           0        1.567105   -3.578109    2.778291
     70          6           0        2.324818   -4.347447    3.668416
     71          6           0        1.683278   -5.274171    4.500414
     72          6           0        0.314710   -5.422202    4.450376
     73          1           0       -0.388081   -3.131122    2.047522
     74          1           0        2.062165   -2.867447    2.136311
     75          1           0        2.268875   -5.870291    5.184250
     76          1           0       -0.179307   -6.133851    5.094976
     77          6           0        3.722178   -4.199420    3.748642
     78          6           0        4.923076   -4.074939    3.837585
     79          6           0        6.315783   -4.008827    4.020036
     80          6           0        6.909809   -4.803168    4.986862
     81          6           0        8.290505   -4.772834    5.199701
     82          6           0        9.102213   -3.955685    4.451639
     83          6           0        8.544267   -3.132111    3.458509
     84          6           0        9.325777   -2.273541    2.651291
     85          6           0        8.725626   -1.497507    1.703265
     86          7           0        7.381110   -1.516566    1.506902
     87          6           0        6.618918   -2.304880    2.235005
     88          6           0        7.136739   -3.146518    3.233239
     89          1           0        6.292792   -5.456048    5.585009
     90          1           0        8.717209   -5.404882    5.963394
     91          1           0       10.168088   -3.936118    4.615673
     92          1           0       10.394314   -2.242497    2.793910
     93          1           0        9.303264   -0.821818    1.066495
     94          1           0        5.551535   -2.294298    2.037800
     95          6           0        1.847136   -4.763834   -3.523659
     96          6           0        3.054649   -4.827277   -3.478913
     97          6           0        4.458938   -4.819672   -3.380247
     98          6           0        5.244039   -5.767053   -4.013592
     99          6           0        6.638898   -5.734505   -3.903195
    100          6           0        7.270817   -4.763873   -3.167294
    101          6           0        6.507027   -3.777947   -2.508139
    102          6           0        7.093119   -2.750399   -1.739666
    103          7           0        6.380750   -1.830941   -1.130701
    104          6           0        5.023256   -1.841773   -1.222806
    105          6           0        4.361011   -2.795288   -1.940421
    106          6           0        5.087923   -3.800338   -2.610430
    107          1           0        4.773374   -6.541425   -4.600133
    108          1           0        7.219595   -6.489787   -4.410174
    109          1           0        8.346127   -4.745676   -3.088300
    110          1           0        8.171560   -2.702151   -1.631496
    111          1           0        4.491380   -1.040768   -0.698912
    112          1           0        3.285053   -2.794170   -2.010386
    113          6           0        0.444641   -4.647370   -3.566570
    114          6           0       -0.313806   -5.425613   -4.448059
    115          6           0       -1.682427   -5.277843   -4.497646
    116          6           0       -2.323828   -4.351095   -3.665702
    117          6           0       -1.565961   -3.581147   -2.776215
    118          6           0       -0.198222   -3.727308   -2.728601
    119          1           0        0.180165   -6.137302   -5.092585
    120          1           0       -2.268029   -5.874331   -5.181143
    121          1           0       -2.060970   -2.870379   -2.134226
    122          1           0        0.389277   -3.133529   -2.046270
    123          6           0       -3.721347   -4.203398   -3.745532
    124          6           0       -4.922275   -4.079337   -3.834161
    125          6           0       -6.314974   -4.013824   -4.016308
    126          6           0       -6.909041   -4.810200   -4.981588
    127          6           0       -8.289654   -4.780302   -5.194432
    128          6           0       -9.101483   -3.961635   -4.448163
    129          6           0       -8.543508   -3.136170   -3.456492
    130          6           0       -9.325216   -2.276195   -2.650969
    131          6           0       -8.725139   -1.498584   -1.704091
    132          7           0       -7.380553   -1.517390   -1.507495
    133          6           0       -6.618403   -2.306897   -2.234248
    134          6           0       -7.136108   -3.150202   -3.231099
    135          1           0       -6.291994   -5.464279   -5.578405
    136          1           0       -8.716381   -5.413931   -5.956882
    137          1           0      -10.167314   -3.942405   -4.612303
    138          1           0      -10.393674   -2.245381   -2.793655
    139          1           0       -9.302839   -0.821693   -1.068594
    140          1           0       -5.550962   -2.295958   -2.036739
    141          6           0       -2.314884    5.000299   -1.373941
    142          6           0       -3.515458    5.077958   -1.245509
    143          6           0       -4.912678    5.051298   -1.080807
    144          6           0       -5.648034    6.188056   -0.797580
    145          6           0       -7.032279    6.118348   -0.604771
    146          6           0       -7.699665    4.921701   -0.671559
    147          6           0       -6.986124    3.738129   -0.952160
    148          6           0       -7.589657    2.463019   -0.940566
    149          7           0       -6.919374    1.355483   -1.166455
    150          6           0       -5.599187    1.421265   -1.506210
    151          6           0       -4.916729    2.603849   -1.518677
    152          6           0       -5.584531    3.801097   -1.186557
    153          1           0       -5.146422    7.140727   -0.723593
    154          1           0       -7.575991    7.025632   -0.390749
    155          1           0       -8.764146    4.871710   -0.507223
    156          1           0       -8.644520    2.364684   -0.712543
    157          1           0       -5.128214    0.482932   -1.811658
    158          1           0       -3.868588    2.642405   -1.768631
    159          6           0       -0.922189    4.866005   -1.527587
    160          6           0       -0.095545    5.988755   -1.639667
    161          6           0        1.262447    5.833089   -1.806679
    162          6           0        1.825710    4.552014   -1.857426
    163          6           0        1.001318    3.429170   -1.731796
    164          6           0       -0.356918    3.585542   -1.571802
    165          1           0       -0.530625    6.976115   -1.604781
    166          1           0        1.900502    6.698171   -1.902851
    167          1           0        1.435212    2.443099   -1.779574
    168          1           0       -0.996232    2.721488   -1.483861
    169          6           0        3.207556    4.410998   -2.081837
    170          6           0        4.387448    4.293203   -2.324065
    171          6           0        5.741078    4.274936   -2.702866
    172          6           0        6.278870    5.391608   -3.320928
    173          6           0        7.607517    5.411721   -3.751281
    174          6           0        8.424619    4.323751   -3.565484
    175          6           0        7.927857    3.175539   -2.925622
    176          6           0        8.725349    2.033537   -2.683735
    177          6           0        8.204093    0.972928   -2.003663
    178          7           0        6.918204    0.963483   -1.555183
    179          6           0        6.130849    1.989002   -1.807381
    180          6           0        6.573275    3.137510   -2.483292
    181          1           0        5.652607    6.255717   -3.481202
    182          1           0        7.988237    6.296266   -4.238451
    183          1           0        9.449184    4.337413   -3.901998
    184          1           0        9.747611    2.020498   -3.027405
    185          1           0        8.794056    0.073505   -1.806310
    186          1           0        5.107749    1.927177   -1.454248
 ---------------------------------------------------------------------

 SCF Done:  E(RPBE1PBE) =  -4990.82757292     a.u. after   18 cycles
 SCF Done:  E(RPBE1PBE) =  -4990.82760117     A.U. after    9 cycles

 The electronic state is 1-A.
 Alpha  occ. eigenvalues --  -14.48995 -14.48995 -14.48848 -14.48848 -14.48329
 Alpha  occ. eigenvalues --  -14.48329 -14.47821 -14.47819 -10.32705 -10.32705
 Alpha  occ. eigenvalues --  -10.32638 -10.32637 -10.32628 -10.32626 -10.32585
 Alpha  occ. eigenvalues --  -10.32584 -10.31333 -10.31332 -10.31325 -10.31324
 Alpha  occ. eigenvalues --  -10.31202 -10.31201 -10.31093 -10.31092 -10.29927
 Alpha  occ. eigenvalues --  -10.29927 -10.29878 -10.29878 -10.29581 -10.29581
 Alpha  occ. eigenvalues --  -10.29527 -10.29526 -10.29432 -10.29432 -10.29408
 Alpha  occ. eigenvalues --  -10.29408 -10.29324 -10.29323 -10.29260 -10.29259
 Alpha  occ. eigenvalues --  -10.29233 -10.29232 -10.29152 -10.29152 -10.29044
 Alpha  occ. eigenvalues --  -10.29043 -10.29019 -10.29018 -10.28522 -10.28522
 Alpha  occ. eigenvalues --  -10.28517 -10.28516 -10.28264 -10.28263 -10.28219
 Alpha  occ. eigenvalues --  -10.28216 -10.27968 -10.27967 -10.27937 -10.27936
 Alpha  occ. eigenvalues --  -10.27911 -10.27910 -10.27858 -10.27857 -10.27659
 Alpha  occ. eigenvalues --  -10.27658 -10.27653 -10.27652 -10.27463 -10.27463
 Alpha  occ. eigenvalues --  -10.27451 -10.27450 -10.27331 -10.27330 -10.27299
 Alpha  occ. eigenvalues --  -10.27299 -10.27186 -10.27186 -10.27102 -10.27101
 Alpha  occ. eigenvalues --  -10.26936 -10.26936 -10.26912 -10.26911 -10.26883
 Alpha  occ. eigenvalues --  -10.26882 -10.26879 -10.26878 -10.26570 -10.26569
 Alpha  occ. eigenvalues --  -10.26495 -10.26494 -10.26464 -10.26462 -10.26442
 Alpha  occ. eigenvalues --  -10.26441 -10.26419 -10.26418 -10.26399 -10.26399
 Alpha  occ. eigenvalues --  -10.26357 -10.26357 -10.26298 -10.26286 -10.26230
 Alpha  occ. eigenvalues --  -10.26229 -10.26221 -10.26220 -10.26213 -10.26203
 Alpha  occ. eigenvalues --  -10.26168 -10.26165 -10.26112 -10.26111 -10.26101
 Alpha  occ. eigenvalues --  -10.26100 -10.26068 -10.26065 -10.25887 -10.25885
 Alpha  occ. eigenvalues --   -3.58022  -3.58022  -2.26025  -2.26024  -2.25738
 Alpha  occ. eigenvalues --   -2.25737  -2.21912  -2.21911  -1.04097  -1.04097
 Alpha  occ. eigenvalues --   -1.03514  -1.03513  -1.03362  -1.03362  -1.02871
 Alpha  occ. eigenvalues --   -1.02871  -0.93027  -0.93006  -0.92904  -0.92898
 Alpha  occ. eigenvalues --   -0.92771  -0.92766  -0.92740  -0.92730  -0.91918
 Alpha  occ. eigenvalues --   -0.91863  -0.91861  -0.91335  -0.86293  -0.86233
 Alpha  occ. eigenvalues --   -0.86228  -0.86221  -0.85724  -0.85723  -0.85699
 Alpha  occ. eigenvalues --   -0.85661  -0.84649  -0.84642  -0.84596  -0.84366
 Alpha  occ. eigenvalues --   -0.83728  -0.83676  -0.83575  -0.83555  -0.83164
 Alpha  occ. eigenvalues --   -0.83113  -0.83040  -0.83037  -0.81626  -0.81574
 Alpha  occ. eigenvalues --   -0.81557  -0.81494  -0.80935  -0.80895  -0.80839
 Alpha  occ. eigenvalues --   -0.80783  -0.79500  -0.79494  -0.79492  -0.79008
 Alpha  occ. eigenvalues --   -0.78016  -0.78008  -0.77931  -0.77865  -0.75473
 Alpha  occ. eigenvalues --   -0.75469  -0.75370  -0.75320  -0.71691  -0.71664
 Alpha  occ. eigenvalues --   -0.71527  -0.71525  -0.71449  -0.71414  -0.71328
 Alpha  occ. eigenvalues --   -0.71284  -0.69818  -0.69784  -0.69762  -0.69681
 Alpha  occ. eigenvalues --   -0.69128  -0.69121  -0.68960  -0.68955  -0.68776
 Alpha  occ. eigenvalues --   -0.68736  -0.68665  -0.68660  -0.67084  -0.67045
 Alpha  occ. eigenvalues --   -0.67035  -0.66974  -0.65638  -0.65622  -0.65558
 Alpha  occ. eigenvalues --   -0.65502  -0.65343  -0.65342  -0.65181  -0.65044
 Alpha  occ. eigenvalues --   -0.60566  -0.60376  -0.60225  -0.60163  -0.60102
 Alpha  occ. eigenvalues --   -0.60003  -0.59921  -0.59902  -0.58651  -0.58625
 Alpha  occ. eigenvalues --   -0.58332  -0.58322  -0.58246  -0.58224  -0.58173
 Alpha  occ. eigenvalues --   -0.58130  -0.58126  -0.58106  -0.57946  -0.57845
 Alpha  occ. eigenvalues --   -0.57302  -0.57300  -0.57014  -0.57007  -0.56334
 Alpha  occ. eigenvalues --   -0.56329  -0.56194  -0.56183  -0.55330  -0.55305
 Alpha  occ. eigenvalues --   -0.55129  -0.55029  -0.52936  -0.52727  -0.52567
 Alpha  occ. eigenvalues --   -0.52458  -0.52445  -0.52273  -0.51953  -0.51852
 Alpha  occ. eigenvalues --   -0.51717  -0.51709  -0.51634  -0.51629  -0.51380
 Alpha  occ. eigenvalues --   -0.51349  -0.51205  -0.51166  -0.51044  -0.51015
 Alpha  occ. eigenvalues --   -0.50901  -0.50898  -0.50514  -0.50513  -0.50058
 Alpha  occ. eigenvalues --   -0.50052  -0.49979  -0.49969  -0.49516  -0.49499
 Alpha  occ. eigenvalues --   -0.49242  -0.49219  -0.48878  -0.48871  -0.48818
 Alpha  occ. eigenvalues --   -0.48815  -0.48510  -0.48503  -0.48405  -0.48400
 Alpha  occ. eigenvalues --   -0.48349  -0.48345  -0.48004  -0.48002  -0.47385
 Alpha  occ. eigenvalues --   -0.47382  -0.47233  -0.47232  -0.47196  -0.47147
 Alpha  occ. eigenvalues --   -0.46301  -0.46276  -0.46195  -0.45940  -0.45935
 Alpha  occ. eigenvalues --   -0.45902  -0.45724  -0.45648  -0.45421  -0.44813
 Alpha  occ. eigenvalues --   -0.44633  -0.44521  -0.44460  -0.44438  -0.44382
 Alpha  occ. eigenvalues --   -0.43882  -0.43866  -0.43823  -0.43808  -0.43717
 Alpha  occ. eigenvalues --   -0.43479  -0.43358  -0.42898  -0.42815  -0.42448
 Alpha  occ. eigenvalues --   -0.42028  -0.41964  -0.41834  -0.41773  -0.41710
 Alpha  occ. eigenvalues --   -0.41601  -0.41593  -0.41532  -0.41378  -0.41350
 Alpha  occ. eigenvalues --   -0.41116  -0.40304  -0.40261  -0.40206  -0.40144
 Alpha  occ. eigenvalues --   -0.39673  -0.39652  -0.39638  -0.39620  -0.39475
 Alpha  occ. eigenvalues --   -0.39471  -0.39442  -0.39387  -0.39194  -0.39038
 Alpha  occ. eigenvalues --   -0.39030  -0.38857  -0.38829  -0.38728  -0.38490
 Alpha  occ. eigenvalues --   -0.38054  -0.37333  -0.36912  -0.36794  -0.36769
 Alpha  occ. eigenvalues --   -0.36678  -0.36587  -0.36338  -0.36263  -0.35907
 Alpha  occ. eigenvalues --   -0.35831  -0.35171  -0.35026  -0.35001  -0.34778
 Alpha  occ. eigenvalues --   -0.34598  -0.34544  -0.34320  -0.34225  -0.33059
 Alpha  occ. eigenvalues --   -0.32824  -0.32653  -0.32022  -0.31977  -0.31961
 Alpha  occ. eigenvalues --   -0.31559  -0.31554  -0.31474  -0.31372  -0.31350
 Alpha  occ. eigenvalues --   -0.31297  -0.31247  -0.31239  -0.31190  -0.31182
 Alpha  occ. eigenvalues --   -0.30877  -0.30839  -0.30769  -0.30598  -0.30481
 Alpha  occ. eigenvalues --   -0.29791  -0.29782  -0.29760  -0.29576  -0.29576
 Alpha  occ. eigenvalues --   -0.29500  -0.28815  -0.28805  -0.27958  -0.26758
 Alpha  occ. eigenvalues --   -0.26750  -0.26636  -0.26510  -0.23985  -0.23826
 Alpha  occ. eigenvalues --   -0.23817  -0.23437
 Alpha virt. eigenvalues --   -0.11290  -0.11113  -0.10981  -0.10835  -0.10613
 Alpha virt. eigenvalues --   -0.10510  -0.09697  -0.09462  -0.08957  -0.08444
 Alpha virt. eigenvalues --   -0.07330  -0.07245  -0.06943  -0.06599  -0.06228

 Mulliken charges:
               1
     1  Pd   0.446876
     2  Pd   0.446970
     3  C    0.027710
     4  C   -0.047608
     5  C   -0.013849
     6  C    0.024665
     7  C    0.001233
     8  C    0.021392
     9  C   -0.058372
    10  C    0.158957
    11  N   -0.310800
    12  C    0.131310
    13  C    0.005800
    14  C    0.044394
    15  H    0.042020
    16  H    0.054269
    17  H    0.043960
    18  H    0.087543
    19  H    0.104280
    20  H    0.046875
    21  C   -0.096373
    22  C    0.040478
    23  C    0.009045
    24  C   -0.081642
    25  C    0.009477
    26  C    0.027117
    27  H    0.033018
    28  H    0.032912
    29  H    0.029733
    30  H    0.034383
    31  C    0.058919
    32  C   -0.082720
    33  C   -0.026460
    34  C    0.010033
    35  C    0.015369
    36  C    0.009313
    37  C    0.017790
    38  C    0.001045
    39  C    0.126760
    40  N   -0.311741
    41  C    0.143542
    42  C    0.015865
    43  H    0.040740
    44  H    0.056317
    45  H    0.041297
    46  H    0.053717
    47  H    0.114775
    48  H    0.081285
    49  C    0.007857
    50  C   -0.055945
    51  C   -0.019306
    52  C    0.022144
    53  C   -0.001560
    54  C    0.021529
    55  C   -0.071248
    56  C    0.183599
    57  N   -0.330062
    58  C    0.152817
    59  C   -0.010357
    60  C    0.070007
    61  H    0.044388
    62  H    0.055215
    63  H    0.044941
    64  H    0.088417
    65  H    0.115547
    66  H    0.045587
    67  C   -0.067333
    68  C    0.002220
    69  C    0.015123
    70  C   -0.073020
    71  C    0.012597
    72  C    0.016310
    73  H    0.038638
    74  H    0.034894
    75  H    0.039350
    76  H    0.038614
    77  C    0.022246
    78  C   -0.072693
    79  C   -0.010523
    80  C    0.004549
    81  C    0.015968
    82  C    0.006014
    83  C    0.032779
    84  C   -0.014663
    85  C    0.149164
    86  N   -0.329240
    87  C    0.180061
    88  C   -0.018195
    89  H    0.042387
    90  H    0.056139
    91  H    0.041930
    92  H    0.054007
    93  H    0.122820
    94  H    0.081592
    95  C    0.007819
    96  C   -0.055872
    97  C   -0.019298
    98  C    0.022159
    99  C   -0.001600
   100  C    0.021518
   101  C   -0.071284
   102  C    0.183603
   103  N   -0.330116
   104  C    0.152868
   105  C   -0.010411
   106  C    0.070014
   107  H    0.044382
   108  H    0.055248
   109  H    0.044958
   110  H    0.088419
   111  H    0.115532
   112  H    0.045648
   113  C   -0.067362
   114  C    0.016332
   115  C    0.012580
   116  C   -0.072966
   117  C    0.015136
   118  C    0.002182
   119  H    0.038589
   120  H    0.039345
   121  H    0.034916
   122  H    0.038641
   123  C    0.022311
   124  C   -0.072751
   125  C   -0.010615
   126  C    0.004606
   127  C    0.015928
   128  C    0.006058
   129  C    0.032724
   130  C   -0.014618
   131  C    0.149101
   132  N   -0.329242
   133  C    0.179907
   134  C   -0.018062
   135  H    0.042389
   136  H    0.056158
   137  H    0.041920
   138  H    0.053975
   139  H    0.122840
   140  H    0.081675
   141  C    0.027651
   142  C   -0.047569
   143  C   -0.013786
   144  C    0.024676
   145  C    0.001238
   146  C    0.021401
   147  C   -0.058370
   148  C    0.158955
   149  N   -0.310732
   150  C    0.131362
   151  C    0.005834
   152  C    0.044275
   153  H    0.042008
   154  H    0.054289
   155  H    0.043915
   156  H    0.087510
   157  H    0.104297
   158  H    0.046828
   159  C   -0.096357
   160  C    0.040503
   161  C    0.009066
   162  C   -0.081488
   163  C    0.009351
   164  C    0.027136
   165  H    0.032989
   166  H    0.032872
   167  H    0.029796
   168  H    0.034387
   169  C    0.058813
   170  C   -0.082703
   171  C   -0.026386
   172  C    0.009927
   173  C    0.015342
   174  C    0.009228
   175  C    0.017928
   176  C    0.000942
   177  C    0.126794
   178  N   -0.311760
   179  C    0.143604
   180  C    0.015776
   181  H    0.040803
   182  H    0.056353
   183  H    0.041318
   184  H    0.053768
   185  H    0.114786
   186  H    0.081217
 Sum of Mulliken charges =   4.00000

 Dipole moment (field-independent basis, Debye):
    X=              0.0006    Y=             -0.4166    Z=             -0.0030  Tot=              0.4166
 Quadrupole moment (field-independent basis, Debye-Ang):
   XX=            387.3279   YY=           -384.6051   ZZ=           -572.1882
   XY=              0.0157   XZ=            -27.5477   YZ=             -0.0104

 Normal termination of Gaussian 16 at Fri Feb 26 14:40:41 2021.
