 Gaussian 16, Revision C.01,
 Gaussian 16:  ES64L-G16RevC.01  3-Jul-2019

 ------------------------------------------------------------------
 # SP PBE1PBE/def2svp empiricaldispersion=GD3BJ scrf=(solvent=dmso)
 ------------------------------------------------------------------

 ---------
 cis_l3_la
 ---------
 Symbolic Z-matrix:
 Charge =  4 Multiplicity = 1

                         Standard orientation:
 ---------------------------------------------------------------------
 Center     Atomic      Atomic             Coordinates (Angstroms)
 Number     Number       Type             X           Y           Z
 ---------------------------------------------------------------------
      1         46           0       -6.644103   -3.316999   -0.092703
      2         46           0        6.644197   -3.316996    0.092697
      3          6           0       -3.172403   -3.013698    2.198197
      4          6           0       -4.435603   -2.769998    1.694597
      5          7           0       -5.272503   -3.764399    1.358497
      6          6           0       -4.921202   -5.031298    1.626297
      7          6           0       -3.673002   -5.356998    2.130797
      8          6           0       -2.733802   -4.338398    2.358597
      9          6           0       -1.338802   -4.642598    2.646397
     10          6           0       -0.775902   -5.791898    3.171297
     11          6           0        0.634298   -5.765997    3.159997
     12          6           0        1.149198   -4.599297    2.622697
     13         16           0       -0.118403   -3.527597    2.145897
     14          6           0        2.531498   -4.257297    2.319297
     15          6           0        2.920097   -2.934397    2.050697
     16          6           0        4.192297   -2.676896    1.575797
     17          7           0        5.088197   -3.653996    1.370997
     18          6           0        4.771898   -4.910796    1.720797
     19          6           0        3.518298   -5.249297    2.198997
     20          1           0       -2.521103   -2.167898    2.423597
     21          1           0       -4.777103   -1.749598    1.507797
     22          1           0       -5.646002   -5.807599    1.372297
     23          1           0       -3.413802   -6.407698    2.262897
     24          1           0       -1.364402   -6.625398    3.555997
     25          1           0        1.256598   -6.578697    3.535797
     26          1           0        2.227197   -2.100797    2.175997
     27          1           0        4.494597   -1.659896    1.317997
     28          1           0        5.537998   -5.672696    1.564297
     29          1           0        3.300298   -6.296397    2.409197
     30          6           0       -2.920003   -2.934398   -2.050803
     31          6           0       -4.192203   -2.676798   -1.575903
     32          7           0       -5.088103   -3.653998   -1.371003
     33          6           0       -4.771902   -4.910698   -1.720903
     34          6           0       -3.518202   -5.249298   -2.199003
     35          6           0       -2.531402   -4.257298   -2.319303
     36          6           0       -1.149102   -4.599298   -2.622703
     37          6           0       -0.634202   -5.766098   -3.159903
     38          6           0        0.775998   -5.791897   -3.171103
     39          6           0        1.338898   -4.642597   -2.646403
     40         16           0        0.118497   -3.527597   -2.146003
     41          6           0        2.733998   -4.338397   -2.358603
     42          6           0        3.172597   -3.013797   -2.198203
     43          6           0        4.435797   -2.769996   -1.694703
     44          7           0        5.272597   -3.764396   -1.358603
     45          6           0        4.921298   -5.031296   -1.626403
     46          6           0        3.673098   -5.356997   -2.130803
     47          1           0       -2.227103   -2.100798   -2.176103
     48          1           0       -4.494503   -1.659798   -1.318203
     49          1           0       -5.538002   -5.672699   -1.564303
     50          1           0       -3.300202   -6.296398   -2.409103
     51          1           0       -1.256502   -6.578798   -3.535603
     52          1           0        1.364498   -6.625497   -3.555803
     53          1           0        2.521197   -2.167997   -2.423703
     54          1           0        4.777297   -1.749696   -1.507903
     55          1           0        5.646098   -5.807596   -1.372303
     56          1           0        3.413898   -6.407697   -2.262803
     57          6           0       -9.778503   -3.013899   -2.959203
     58          6           0       -8.834703   -3.501199   -2.094903
     59          7           0       -7.879903   -2.690299   -1.562803
     60          6           0       -7.814203   -1.418299   -1.913303
     61          6           0       -8.712403   -0.827499   -2.824003
     62          6           0       -8.629603    0.555901   -3.181303
     63          6           0       -7.491004    1.405601   -2.765503
     64          6           0       -6.167404    1.012701   -3.025703
     65          6           0       -5.101604    1.851302   -2.728403
     66          6           0       -5.326304    3.119801   -2.161303
     67          6           0       -4.245804    4.023502   -1.948203
     68          6           0       -3.333204    4.825002   -1.840003
     69          6           0       -2.298005    5.801302   -1.758603
     70          6           0       -0.947005    5.416602   -1.740003
     71          6           0        0.029195    6.409003   -1.683803
     72          6           0        1.478995    6.431203   -1.648103
     73          6           0        2.484695    5.468503   -1.653203
     74          6           0        3.823595    5.891003   -1.609903
     75          6           0        4.869996    4.926004   -1.667703
     76          6           0        5.750896    4.089904   -1.773303
     77          6           0        6.733196    3.081904   -1.987103
     78          6           0        8.078396    3.264304   -1.618403
     79          6           0        9.020996    2.276405   -1.877803
     80          6           0        8.653696    1.078004   -2.506503
     81          6           0        9.656297    0.032405   -2.805703
     82          6           0       10.814697    0.331005   -3.498703
     83          6           0       11.739997   -0.675395   -3.854303
     84          6           0       11.518297   -1.994595   -3.529703
     85          6           0       10.364597   -2.347195   -2.791103
     86          6           0       10.078497   -3.676995   -2.389903
     87          6           0        8.974498   -3.943095   -1.624403
     88          7           0        8.144097   -2.946496   -1.211203
     89          6           0        8.362897   -1.699796   -1.584703
     90          6           0        9.442997   -1.326295   -2.409403
     91          6           0        7.310096    0.899004   -2.875703
     92          6           0        6.363796    1.879204   -2.618503
     93          6           0        4.133295    7.271504   -1.551403
     94          6           0        3.138995    8.241303   -1.548503
     95          6           0        1.825795    7.794503   -1.597403
     96          8           0        0.721995    8.589303   -1.595503
     97          6           0       -0.357705    7.762403   -1.649103
     98          6           0       -1.683505    8.170802   -1.665203
     99          6           0       -2.647805    7.172902   -1.719303
    100          6           0       -6.649404    3.500601   -1.868203
    101          6           0       -7.710704    2.657101   -2.170503
    102          6           0       -9.639304    1.081201   -3.967303
    103          6           0      -10.694703    0.276800   -4.450903
    104          6           0      -10.753803   -1.067500   -4.163003
    105          6           0       -9.765403   -1.646499   -3.333403
    106          1           0      -10.550903   -3.680000   -3.346703
    107          1           0       -8.819102   -4.544899   -1.778503
    108          1           0       -7.045203   -0.806699   -1.437503
    109          1           0       -5.969603    0.053101   -3.509603
    110          1           0       -4.082004    1.541102   -2.964703
    111          1           0       -0.677904    4.359502   -1.766803
    112          1           0        2.248596    4.404203   -1.690503
    113          1           0        8.380096    4.189804   -1.124803
    114          1           0       10.059396    2.429005   -1.574903
    115          1           0       11.000196    1.361305   -3.809603
    116          1           0       12.634597   -0.396895   -4.415503
    117          1           0       12.223397   -2.773295   -3.826803
    118          1           0       10.742998   -4.492095   -2.680803
    119          1           0        8.722698   -4.952095   -1.294203
    120          1           0        7.676997   -0.939696   -1.206903
    121          1           0        7.005697   -0.011896   -3.396703
    122          1           0        5.326396    1.730504   -2.923703
    123          1           0        5.181295    7.573904   -1.515603
    124          1           0        3.374295    9.305203   -1.502503
    125          1           0       -1.952205    9.227002   -1.626803
    126          1           0       -3.704205    7.444902   -1.727003
    127          1           0       -6.836504    4.473001   -1.409503
    128          1           0       -8.730904    2.971401   -1.939003
    129          1           0       -9.599104    2.134701   -4.251903
    130          1           0      -11.461303    0.732700   -5.081003
    131          1           0      -11.557003   -1.693400   -4.556603
    132          6           0      -10.078403   -3.677200    2.389897
    133          6           0       -8.974302   -3.943199    1.624397
    134          7           0       -8.144003   -2.946599    1.211197
    135          6           0       -8.362803   -1.699899    1.584797
    136          6           0       -9.442903   -1.326399    2.409397
    137          6           0       -9.656303    0.032201    2.805697
    138          6           0       -8.653704    1.077801    2.506597
    139          6           0       -9.021004    2.276201    1.877797
    140          6           0       -8.078504    3.264101    1.618397
    141          6           0       -6.733304    3.081901    1.987197
    142          6           0       -5.751004    4.089801    1.773397
    143          6           0       -4.870104    4.926002    1.667797
    144          6           0       -3.823805    5.890902    1.609997
    145          6           0       -2.484905    5.468502    1.653197
    146          6           0       -1.479105    6.431102    1.648097
    147          6           0       -0.029405    6.409003    1.683897
    148          6           0        0.946895    5.416603    1.740097
    149          6           0        2.297895    5.801303    1.758597
    150          6           0        3.333096    4.825003    1.839997
    151          6           0        4.245696    4.023404    1.948197
    152          6           0        5.326096    3.119804    2.161297
    153          6           0        5.101496    1.851304    2.728497
    154          6           0        6.167296    1.012704    3.025797
    155          6           0        7.490896    1.405604    2.765497
    156          6           0        8.629497    0.556004    3.181297
    157          6           0        9.639296    1.081305    3.967297
    158          6           0       10.694697    0.276905    4.450797
    159          6           0       10.753897   -1.067395    4.162897
    160          6           0        9.765497   -1.646395    3.333397
    161          6           0        9.778597   -3.013795    2.959197
    162          6           0        8.834797   -3.501095    2.094897
    163          7           0        7.879897   -2.690296    1.562797
    164          6           0        7.814097   -1.418296    1.913297
    165          6           0        8.712397   -0.827495    2.823997
    166          6           0        7.710596    2.657104    2.170497
    167          6           0        6.649196    3.500604    1.868197
    168          6           0        2.647695    7.172803    1.719297
    169          6           0        1.683395    8.170803    1.665197
    170          6           0        0.357495    7.762403    1.649097
    171          8           0       -0.722205    8.589302    1.595397
    172          6           0       -1.826005    7.794402    1.597397
    173          6           0       -3.139105    8.241302    1.548497
    174          6           0       -4.133405    7.271502    1.551497
    175          6           0       -6.363804    1.879201    2.618697
    176          6           0       -7.310204    0.899001    2.875797
    177          6           0      -10.814703    0.330800    3.498697
    178          6           0      -11.740003   -0.675700    3.854297
    179          6           0      -11.518203   -1.994900    3.529697
    180          6           0      -10.364403   -2.347400    2.791097
    181          1           0      -10.742802   -4.492300    2.680797
    182          1           0       -8.722502   -4.952299    1.294197
    183          1           0       -7.676903   -0.939799    1.206997
    184          1           0      -10.059404    2.428800    1.574797
    185          1           0       -8.380204    4.189601    1.124697
    186          1           0       -2.248804    4.404102    1.690597
    187          1           0        0.677696    4.359503    1.766897
    188          1           0        4.081996    1.541104    2.964797
    189          1           0        5.969497    0.053104    3.509697
    190          1           0        9.599096    2.134805    4.251797
    191          1           0       11.461297    0.732905    5.080897
    192          1           0       11.556997   -1.693195    4.556597
    193          1           0       10.550997   -3.679895    3.346697
    194          1           0        8.819198   -4.544795    1.778497
    195          1           0        7.045197   -0.806696    1.437597
    196          1           0        8.730796    2.971505    1.938897
    197          1           0        6.836296    4.472904    1.409397
    198          1           0        3.703995    7.444803    1.726897
    199          1           0        1.952095    9.227003    1.626697
    200          1           0       -3.374405    9.305202    1.502497
    201          1           0       -5.181405    7.573902    1.515597
    202          1           0       -5.326504    1.730501    2.923997
    203          1           0       -7.005703   -0.011899    3.396897
    204          1           0      -11.000304    1.361100    3.809597
    205          1           0      -12.634603   -0.397200    4.415397
    206          1           0      -12.223303   -2.773600    3.826797
 ---------------------------------------------------------------------

 SCF Done:  E(RPBE1PBE) =  -6246.32351236     A.U. after   19 cycles

 The electronic state is 1-A.
 Alpha  occ. eigenvalues --  -89.07083 -89.07079 -19.29623 -19.29621 -14.48355
 Alpha  occ. eigenvalues --  -14.48355 -14.48260 -14.48260 -14.48221 -14.48220
 Alpha  occ. eigenvalues --  -14.48086 -14.48085 -10.32279 -10.32279 -10.32141
 Alpha  occ. eigenvalues --  -10.32141 -10.32112 -10.32111 -10.32033 -10.32032
 Alpha  occ. eigenvalues --  -10.32019 -10.32018 -10.32012 -10.32011 -10.31554
 Alpha  occ. eigenvalues --  -10.31553 -10.31546 -10.31544 -10.31306 -10.31306
 Alpha  occ. eigenvalues --  -10.31294 -10.31293 -10.30878 -10.30878 -10.30853
 Alpha  occ. eigenvalues --  -10.30852 -10.30652 -10.30651 -10.30617 -10.30617
 Alpha  occ. eigenvalues --  -10.29011 -10.29011 -10.28971 -10.28970 -10.28839
 Alpha  occ. eigenvalues --  -10.28838 -10.28759 -10.28758 -10.28598 -10.28597
 Alpha  occ. eigenvalues --  -10.28594 -10.28594 -10.28560 -10.28559 -10.28558
 Alpha  occ. eigenvalues --  -10.28558 -10.28499 -10.28497 -10.28433 -10.28432
 Alpha  occ. eigenvalues --  -10.28303 -10.28302 -10.28288 -10.28288 -10.27908
 Alpha  occ. eigenvalues --  -10.27907 -10.27865 -10.27865 -10.27819 -10.27819
 Alpha  occ. eigenvalues --  -10.27781 -10.27781 -10.27673 -10.27672 -10.27626
 Alpha  occ. eigenvalues --  -10.27625 -10.27416 -10.27416 -10.27364 -10.27363
 Alpha  occ. eigenvalues --  -10.27089 -10.27089 -10.27070 -10.27070 -10.26844
 Alpha  occ. eigenvalues --  -10.26844 -10.26819 -10.26818 -10.26723 -10.26722
 Alpha  occ. eigenvalues --  -10.26696 -10.26696 -10.26647 -10.26646 -10.26639
 Alpha  occ. eigenvalues --  -10.26632 -10.26587 -10.26583 -10.26529 -10.26528
 Alpha  occ. eigenvalues --  -10.26374 -10.26374 -10.26316 -10.26316 -10.26308
 Alpha  occ. eigenvalues --  -10.26307 -10.26269 -10.26269 -10.26267 -10.26267
 Alpha  occ. eigenvalues --  -10.26234 -10.26234 -10.26220 -10.26220 -10.26191
 Alpha  occ. eigenvalues --  -10.26191 -10.26126 -10.26126 -10.26094 -10.26093
 Alpha  occ. eigenvalues --  -10.26066 -10.26064 -10.26037 -10.26036 -10.25601
 Alpha  occ. eigenvalues --  -10.25600 -10.25584 -10.25582 -10.25290 -10.25288
 Alpha  occ. eigenvalues --  -10.25267 -10.25266  -8.07185  -8.07182  -6.01314
 Alpha  occ. eigenvalues --   -6.01313  -6.00928  -6.00927  -6.00638  -6.00636
 Alpha  occ. eigenvalues --   -3.56869  -3.56869  -2.24887  -2.24887  -2.24507
 Alpha  occ. eigenvalues --   -2.24507  -2.20572  -2.20572  -1.15803  -1.15658
 Alpha  occ. eigenvalues --   -1.03432  -1.03426  -1.02821  -1.02819  -1.02593
 Alpha  occ. eigenvalues --   -1.02583  -1.02466  -1.02466  -0.95444  -0.95408
 Alpha  occ. eigenvalues --   -0.92428  -0.92427  -0.92373  -0.92373  -0.91092
 Alpha  occ. eigenvalues --   -0.90662  -0.90488  -0.90258  -0.90236  -0.90201
 Alpha  occ. eigenvalues --   -0.90165  -0.90016  -0.89424  -0.89275  -0.87034
 Alpha  occ. eigenvalues --   -0.86854  -0.85408  -0.85397  -0.85317  -0.85306
 Alpha  occ. eigenvalues --   -0.83668  -0.83487  -0.83135  -0.83068  -0.83015
 Alpha  occ. eigenvalues --   -0.82846  -0.82773  -0.82689  -0.82527  -0.82432
 Alpha  occ. eigenvalues --   -0.82356  -0.82226  -0.81967  -0.81805  -0.81543
 Alpha  occ. eigenvalues --   -0.81377  -0.80185  -0.79913  -0.79277  -0.79210
 Alpha  occ. eigenvalues --   -0.78682  -0.78618  -0.78574  -0.78533  -0.78461
 Alpha  occ. eigenvalues --   -0.78420  -0.78356  -0.78321  -0.78020  -0.77903
 Alpha  occ. eigenvalues --   -0.76687  -0.76636  -0.74885  -0.74842  -0.74394
 Alpha  occ. eigenvalues --   -0.74327  -0.71511  -0.71289  -0.70637  -0.70576
 Alpha  occ. eigenvalues --   -0.70547  -0.70405  -0.70354  -0.70150  -0.69906
 Alpha  occ. eigenvalues --   -0.69492  -0.69285  -0.69204  -0.69156  -0.69085
 Alpha  occ. eigenvalues --   -0.68581  -0.68458  -0.68296  -0.68228  -0.67503
 Alpha  occ. eigenvalues --   -0.67317  -0.67282  -0.67218  -0.66397  -0.66375
 Alpha  occ. eigenvalues --   -0.64428  -0.64377  -0.64318  -0.64274  -0.63847
 Alpha  occ. eigenvalues --   -0.63767  -0.62894  -0.62758  -0.62718  -0.62589
 Alpha  occ. eigenvalues --   -0.61977  -0.61913  -0.61832  -0.61540  -0.61494
 Alpha  occ. eigenvalues --   -0.61199  -0.58660  -0.58592  -0.58478  -0.58356
 Alpha  occ. eigenvalues --   -0.58303  -0.58002  -0.57973  -0.57951  -0.57842
 Alpha  occ. eigenvalues --   -0.57563  -0.57476  -0.57437  -0.57303  -0.57198
 Alpha  occ. eigenvalues --   -0.57082  -0.57013  -0.56364  -0.56342  -0.56195
 Alpha  occ. eigenvalues --   -0.56029  -0.55740  -0.55697  -0.55620  -0.55591
 Alpha  occ. eigenvalues --   -0.55394  -0.55223  -0.54484  -0.54355  -0.54344
 Alpha  occ. eigenvalues --   -0.54304  -0.53587  -0.53328  -0.52800  -0.52796
 Alpha  occ. eigenvalues --   -0.51817  -0.51758  -0.51731  -0.51541  -0.51421
 Alpha  occ. eigenvalues --   -0.51402  -0.51277  -0.51241  -0.51202  -0.50976
 Alpha  occ. eigenvalues --   -0.50973  -0.50437  -0.50432  -0.50416  -0.50405
 Alpha  occ. eigenvalues --   -0.50085  -0.50054  -0.49826  -0.49817  -0.49479
 Alpha  occ. eigenvalues --   -0.49202  -0.49109  -0.49057  -0.49015  -0.48884
 Alpha  occ. eigenvalues --   -0.48816  -0.48603  -0.48467  -0.48413  -0.48390
 Alpha  occ. eigenvalues --   -0.48273  -0.48142  -0.47743  -0.47728  -0.47664
 Alpha  occ. eigenvalues --   -0.47623  -0.47575  -0.47566  -0.47385  -0.47070
 Alpha  occ. eigenvalues --   -0.46905  -0.46865  -0.46798  -0.46705  -0.46640
 Alpha  occ. eigenvalues --   -0.46571  -0.46421  -0.46381  -0.46363  -0.46107
 Alpha  occ. eigenvalues --   -0.46074  -0.46022  -0.45973  -0.45722  -0.45496
 Alpha  occ. eigenvalues --   -0.45484  -0.45196  -0.45190  -0.44744  -0.44648
 Alpha  occ. eigenvalues --   -0.44603  -0.44418  -0.44237  -0.44228  -0.44210
 Alpha  occ. eigenvalues --   -0.44113  -0.44019  -0.43610  -0.43159  -0.43032
 Alpha  occ. eigenvalues --   -0.42949  -0.42922  -0.42846  -0.42709  -0.42539
 Alpha  occ. eigenvalues --   -0.42486  -0.42359  -0.42336  -0.42181  -0.42010
 Alpha  occ. eigenvalues --   -0.41998  -0.41951  -0.41837  -0.41779  -0.41649
 Alpha  occ. eigenvalues --   -0.41512  -0.41373  -0.41278  -0.41277  -0.41155
 Alpha  occ. eigenvalues --   -0.41077  -0.41028  -0.40610  -0.40569  -0.39930
 Alpha  occ. eigenvalues --   -0.39915  -0.39881  -0.39850  -0.39755  -0.39227
 Alpha  occ. eigenvalues --   -0.39128  -0.38694  -0.38526  -0.38498  -0.38400
 Alpha  occ. eigenvalues --   -0.38074  -0.38071  -0.37950  -0.37922  -0.37822
 Alpha  occ. eigenvalues --   -0.37665  -0.37661  -0.37644  -0.37322  -0.37225
 Alpha  occ. eigenvalues --   -0.36988  -0.36916  -0.36362  -0.36274  -0.36041
 Alpha  occ. eigenvalues --   -0.36008  -0.35871  -0.35678  -0.34901  -0.34900
 Alpha  occ. eigenvalues --   -0.34780  -0.34535  -0.34213  -0.34011  -0.33935
 Alpha  occ. eigenvalues --   -0.33876  -0.33817  -0.33790  -0.33319  -0.33269
 Alpha  occ. eigenvalues --   -0.33011  -0.32828  -0.32615  -0.32556  -0.31851
 Alpha  occ. eigenvalues --   -0.31715  -0.31270  -0.31235  -0.31093  -0.30957
 Alpha  occ. eigenvalues --   -0.30949  -0.30704  -0.30605  -0.30503  -0.30308
 Alpha  occ. eigenvalues --   -0.30006  -0.29671  -0.29651  -0.29542  -0.29451
 Alpha  occ. eigenvalues --   -0.29224  -0.29060  -0.28749  -0.28739  -0.28689
 Alpha  occ. eigenvalues --   -0.28677  -0.28409  -0.27629  -0.27059  -0.26736
 Alpha  occ. eigenvalues --   -0.26603  -0.26420  -0.26300  -0.26047  -0.26043
 Alpha  occ. eigenvalues --   -0.23870  -0.23773  -0.23489  -0.22981
 Alpha virt. eigenvalues --   -0.11820  -0.11106  -0.09603  -0.09539  -0.09103
 Alpha virt. eigenvalues --   -0.09037  -0.08616  -0.07971  -0.07564  -0.06830
 Alpha virt. eigenvalues --   -0.06739  -0.06564  -0.06513  -0.06448  -0.06186

 Mulliken charges:
               1
     1  Pd   0.492786
     2  Pd   0.492792
     3  C   -0.053566
     4  C    0.145052
     5  N   -0.322764
     6  C    0.150794
     7  C   -0.038970
     8  C    0.088909
     9  C   -0.108423
    10  C    0.008878
    11  C    0.002249
    12  C   -0.108316
    13  S    0.167400
    14  C    0.099619
    15  C   -0.062144
    16  C    0.152408
    17  N   -0.323119
    18  C    0.153481
    19  C   -0.044713
    20  H    0.071941
    21  H    0.108549
    22  H    0.104888
    23  H    0.070053
    24  H    0.063552
    25  H    0.064034
    26  H    0.072035
    27  H    0.098277
    28  H    0.108268
    29  H    0.068892
    30  C   -0.062165
    31  C    0.152435
    32  N   -0.323112
    33  C    0.153434
    34  C   -0.044735
    35  C    0.099638
    36  C   -0.108356
    37  C    0.002289
    38  C    0.008771
    39  C   -0.108360
    40  S    0.167388
    41  C    0.089007
    42  C   -0.053685
    43  C    0.145135
    44  N   -0.322744
    45  C    0.150777
    46  C   -0.038984
    47  H    0.072035
    48  H    0.098271
    49  H    0.108317
    50  H    0.068885
    51  H    0.064014
    52  H    0.063586
    53  H    0.071976
    54  H    0.108492
    55  H    0.104892
    56  H    0.070042
    57  C   -0.031904
    58  C    0.140348
    59  N   -0.317170
    60  C    0.132448
    61  C   -0.021627
    62  C    0.051256
    63  C   -0.047623
    64  C   -0.036522
    65  C    0.001261
    66  C   -0.078578
    67  C   -0.035566
    68  C    0.002229
    69  C   -0.066703
    70  C   -0.041673
    71  C    0.059736
    72  C    0.027225
    73  C   -0.021543
    74  C   -0.079114
    75  C    0.009622
    76  C   -0.044667
    77  C   -0.072869
    78  C    0.006101
    79  C   -0.011477
    80  C   -0.048907
    81  C    0.052357
    82  C   -0.026189
    83  C    0.003742
    84  C   -0.006469
    85  C    0.029842
    86  C   -0.032368
    87  C    0.137332
    88  N   -0.316032
    89  C    0.143815
    90  C   -0.024554
    91  C   -0.042760
    92  C   -0.000318
    93  C    0.000700
    94  C   -0.077473
    95  C    0.215855
    96  O   -0.274864
    97  C    0.177862
    98  C   -0.056016
    99  C    0.000761
   100  C    0.010229
   101  C   -0.014468
   102  C   -0.026932
   103  C    0.004601
   104  C   -0.006059
   105  C    0.028485
   106  H    0.060531
   107  H    0.098981
   108  H    0.106870
   109  H    0.049513
   110  H    0.037233
   111  H    0.027519
   112  H    0.027109
   113  H    0.040401
   114  H    0.040580
   115  H    0.046444
   116  H    0.059885
   117  H    0.046573
   118  H    0.060204
   119  H    0.099595
   120  H    0.105768
   121  H    0.051260
   122  H    0.037799
   123  H    0.042166
   124  H    0.042151
   125  H    0.041303
   126  H    0.041035
   127  H    0.037778
   128  H    0.039613
   129  H    0.047455
   130  H    0.059937
   131  H    0.046892
   132  C   -0.032346
   133  C    0.137262
   134  N   -0.316014
   135  C    0.143789
   136  C   -0.024454
   137  C    0.052360
   138  C   -0.048857
   139  C   -0.011500
   140  C    0.006117
   141  C   -0.072954
   142  C   -0.044599
   143  C    0.009652
   144  C   -0.079135
   145  C   -0.021662
   146  C    0.027320
   147  C    0.059642
   148  C   -0.041626
   149  C   -0.066644
   150  C    0.002312
   151  C   -0.035565
   152  C   -0.078603
   153  C    0.001303
   154  C   -0.036483
   155  C   -0.047644
   156  C    0.051213
   157  C   -0.026888
   158  C    0.004587
   159  C   -0.006019
   160  C    0.028528
   161  C   -0.031897
   162  C    0.140337
   163  N   -0.317179
   164  C    0.132575
   165  C   -0.021709
   166  C   -0.014505
   167  C    0.010211
   168  C    0.000784
   169  C   -0.055974
   170  C    0.177808
   171  O   -0.274904
   172  C    0.215809
   173  C   -0.077449
   174  C    0.000685
   175  C   -0.000285
   176  C   -0.042846
   177  C   -0.026192
   178  C    0.003735
   179  C   -0.006451
   180  C    0.029809
   181  H    0.060179
   182  H    0.099647
   183  H    0.105759
   184  H    0.040589
   185  H    0.040413
   186  H    0.027155
   187  H    0.027533
   188  H    0.037178
   189  H    0.049516
   190  H    0.047435
   191  H    0.059954
   192  H    0.046841
   193  H    0.060533
   194  H    0.098977
   195  H    0.106810
   196  H    0.039652
   197  H    0.037753
   198  H    0.040987
   199  H    0.041312
   200  H    0.042158
   201  H    0.042162
   202  H    0.037774
   203  H    0.051284
   204  H    0.046461
   205  H    0.059862
   206  H    0.046584
 Sum of Mulliken charges =   4.00000

 Dipole moment (field-independent basis, Debye):
    X=             -0.0002    Y=            -55.5618    Z=              0.0003  Tot=             55.5618
 Quadrupole moment (field-independent basis, Debye-Ang):
   XX=            316.7705   YY=           -402.0965   ZZ=           -690.7269
   XY=              0.0074   XZ=             16.3922   YZ=             -0.0067

 Normal termination of Gaussian 16 at Fri Jun  2 06:50:16 2023.
