 Gaussian 16, Revision C.01,
 Gaussian 16:  ES64L-G16RevC.01  3-Jul-2019

 ----------------------------------------------------------------------
 #P PBE1PBE/Def2SVP SP SCF=(YQC,MaxCycle=900) int=(Grid=Superfinegrid)
 EmpiricalDispersion=GD3BJ SCRF=(PCM,Solvent=DiMethylSulfoxide)
 ----------------------------------------------------------------------

 --------
 _s_4b1_c
 --------
 Symbolic Z-matrix:
 Charge =  4 Multiplicity = 1

                         Standard orientation:
 ---------------------------------------------------------------------
 Center     Atomic      Atomic             Coordinates (Angstroms)
 Number     Number       Type             X           Y           Z
 ---------------------------------------------------------------------
      1         46           0       -5.519193   -0.027631   -1.289474
      2         46           0        5.521446    0.018214    1.278712
      3          6           0        2.810786   -3.243392   -2.972713
      4          6           0        3.993251   -3.430267   -2.799195
      5          6           0        5.357600   -3.720072   -2.608090
      6          6           0        5.964879   -4.712167   -3.355982
      7          6           0        7.309471   -5.043864   -3.157221
      8          6           0        8.060507   -4.406851   -2.201120
      9          6           0        7.483790   -3.393415   -1.413719
     10          6           0        8.193598   -2.715963   -0.396821
     11          6           0        7.573455   -1.743846    0.333231
     12          7           0        6.288157   -1.380382    0.101707
     13          6           0        5.589678   -1.993844   -0.833570
     14          6           0        6.122755   -3.025423   -1.622673
     15          1           0        5.391436   -5.238883   -4.103360
     16          1           0        7.752399   -5.819900   -3.762583
     17          1           0        9.092783   -4.675473   -2.040441
     18          1           0        9.220946   -2.979712   -0.202730
     19          1           0        8.085977   -1.217557    1.136136
     20          1           0        4.562920   -1.666246   -0.982358
     21          6           0        1.426420   -3.021609   -3.119997
     22          6           0        0.592145   -4.052139   -3.563636
     23          6           0       -0.767726   -3.844394   -3.668617
     24          6           0       -1.325887   -2.610319   -3.330283
     25          6           0       -0.486140   -1.577700   -2.904952
     26          6           0        0.873515   -1.777597   -2.801293
     27          1           0        1.016202   -5.011840   -3.815427
     28          1           0       -1.404548   -4.654799   -3.987942
     29          1           0       -0.898334   -0.604834   -2.685827
     30          1           0        1.519429   -0.975826   -2.482046
     31          6           0       -2.775685   -2.392838   -3.419066
     32          6           0       -3.540201   -2.896547   -4.476355
     33          6           0       -4.898990   -2.634762   -4.523293
     34          6           0       -5.471889   -1.858779   -3.529183
     35          7           0       -4.744765   -1.383402   -2.516449
     36          6           0       -3.439673   -1.649823   -2.445287
     37          1           0       -3.068423   -3.468019   -5.260560
     38          1           0       -5.505889   -3.014170   -5.329382
     39          1           0       -6.529475   -1.608533   -3.531283
     40          1           0       -2.919525   -1.268980   -1.567306
     41          6           0        2.694248    3.398711   -2.896638
     42          6           0        3.885201    3.538156   -2.738795
     43          6           0        5.262569    3.796161   -2.584158
     44          6           0        5.869873    4.757668   -3.369670
     45          6           0        7.222340    5.076408   -3.203363
     46          6           0        7.982147    4.451278   -2.246950
     47          6           0        7.408332    3.458579   -1.431719
     48          6           0        8.133591    2.783699   -0.424023
     49          6           0        7.522675    1.817788    0.321449
     50          7           0        6.231254    1.459026    0.115190
     51          6           0        5.514825    2.078017   -0.802580
     52          6           0        6.038183    3.105402   -1.605137
     53          1           0        5.288274    5.277862   -4.115328
     54          1           0        7.663120    5.833528   -3.833654
     55          1           0        9.020135    4.710434   -2.109586
     56          1           0        9.166532    3.041162   -0.252828
     57          1           0        8.048791    1.291129    1.115769
     58          1           0        4.482775    1.757267   -0.928372
     59          6           0        1.303478    3.205261   -3.041506
     60          6           0        0.765442    2.829430   -4.275235
     61          6           0       -0.591031    2.608331   -4.398745
     62          6           0       -1.435875    2.750236   -3.296493
     63          6           0       -0.898348    3.155208   -2.073129
     64          6           0        0.455434    3.384205   -1.944494
     65          1           0        1.416358    2.704527   -5.126586
     66          1           0       -0.993418    2.293494   -5.349065
     67          1           0       -1.550301    3.324694   -1.231376
     68          1           0        0.865035    3.714812   -1.003426
     69          6           0       -2.867976    2.443294   -3.419075
     70          6           0       -3.620508    2.829242   -4.532537
     71          6           0       -4.957948    2.478325   -4.607870
     72          6           0       -5.516564    1.724316   -3.589063
     73          7           0       -4.797183    1.349017   -2.529513
     74          6           0       -3.516436    1.708190   -2.429446
     75          1           0       -3.163491    3.410635   -5.318098
     76          1           0       -5.559518    2.777204   -5.450801
     77          1           0       -6.556504    1.409117   -3.609529
     78          1           0       -2.994918    1.381374   -1.530570
     79          6           0       -2.809784    3.230495    2.964532
     80          6           0       -3.990502    3.423624    2.785551
     81          6           0       -5.352299    3.720712    2.587410
     82          6           0       -5.957907    4.716825    3.331012
     83          6           0       -7.299463    5.056092    3.124666
     84          6           0       -8.049101    4.422476    2.165147
     85          6           0       -7.473931    3.404726    1.381956
     86          6           0       -8.182347    2.729880    0.362313
     87          6           0       -7.564074    1.752957   -0.362833
     88          7           0       -6.282101    1.382682   -0.124111
     89          6           0       -5.584990    1.993601    0.813836
     90          6           0       -6.116181    3.029258    1.598633
     91          1           0       -5.385594    5.241122    4.080971
     92          1           0       -7.741237    5.835260    3.726711
     93          1           0       -9.078870    4.696851    1.998542
     94          1           0       -9.207140    2.999254    0.162474
     95          1           0       -8.075293    1.228011   -1.167562
     96          1           0       -4.560858    1.660189    0.968594
     97          6           0       -1.426934    3.003197    3.116901
     98          6           0       -0.875789    1.760388    2.790269
     99          6           0        0.482997    1.556355    2.897285
    100          6           0        1.323479    2.583332    3.334405
    101          6           0        0.767027    3.815786    3.681510
    102          6           0       -0.591871    4.027703    3.572830
    103          1           0       -1.522357    0.962871    2.461999
    104          1           0        0.893716    0.584385    2.671687
    105          1           0        1.404542    4.621771    4.010407
    106          1           0       -1.014596    4.986382    3.831213
    107          6           0        2.772642    2.362349    3.425808
    108          6           0        3.534207    2.853201    4.491180
    109          6           0        4.892559    2.589353    4.539462
    110          6           0        5.467725    1.824155    3.538389
    111          7           0        4.743281    1.360912    2.518084
    112          6           0        3.438641    1.629423    2.445877
    113          1           0        3.060484    3.416435    5.280030
    114          1           0        5.497244    2.958894    5.351692
    115          1           0        6.525110    1.572876    3.540758
    116          1           0        2.920936    1.259032    1.562060
    117          6           0       -2.698641   -3.374415    2.916009
    118          6           0       -3.891740   -3.505433    2.767038
    119          6           0       -5.272261   -3.752871    2.624014
    120          6           0       -5.884828   -4.694040    3.429956
    121          6           0       -7.241132   -5.002533    3.276127
    122          6           0       -7.999739   -4.387590    2.312149
    123          6           0       -7.420603   -3.415321    1.476292
    124          6           0       -8.144430   -2.751494    0.460226
    125          6           0       -7.528580   -1.803953   -0.304494
    126          7           0       -6.233153   -1.453402   -0.110131
    127          6           0       -5.517747   -2.063337    0.814558
    128          6           0       -6.046291   -3.072154    1.636861
    129          1           0       -5.304519   -5.206354    4.181980
    130          1           0       -7.686088   -5.743676    3.922357
    131          1           0       -9.040867   -4.639196    2.184487
    132          1           0       -9.180582   -3.002445    0.298226
    133          1           0       -8.053581   -1.286247   -1.105344
    134          1           0       -4.482266   -1.750094    0.929692
    135          6           0       -1.305709   -3.190470    3.051899
    136          6           0       -0.757969   -2.816930    4.282111
    137          6           0        0.600620   -2.605114    4.397496
    138          6           0        1.437927   -2.753742    3.290477
    139          6           0        0.890641   -3.155936    2.070490
    140          6           0       -0.465321   -3.376199    1.950165
    141          1           0       -1.402993   -2.686549    5.137046
    142          1           0        1.010894   -2.292344    5.345138
    143          1           0        1.536738   -3.330055    1.225076
    144          1           0       -0.882546   -3.705306    1.011913
    145          6           0        2.872770   -2.456324    3.404926
    146          6           0        3.629286   -2.849665    4.513154
    147          6           0        4.969130   -2.506839    4.581885
    148          6           0        5.526059   -1.752459    3.562457
    149          7           0        4.802919   -1.369924    2.508076
    150          6           0        3.519849   -1.722382    2.413591
    151          1           0        3.173108   -3.430286    5.299779
    152          1           0        5.573697   -2.811851    5.420490
    153          1           0        6.567810   -1.442966    3.578048
    154          1           0        2.995605   -1.390811    1.518077
 ---------------------------------------------------------------------

 SCF Done:  E(RPBE1PBE) =  -4073.36051188     a.u. after   20 cycles
 SCF Done:  E(RPBE1PBE) =  -4073.36063244     A.U. after    9 cycles

 The electronic state is 1-A.
 Alpha  occ. eigenvalues --  -14.48801 -14.48794 -14.48781 -14.48779 -14.48586
 Alpha  occ. eigenvalues --  -14.48578 -14.48558 -14.48557 -10.32477 -10.32470
 Alpha  occ. eigenvalues --  -10.32429 -10.32428 -10.32155 -10.32153 -10.32132
 Alpha  occ. eigenvalues --  -10.32125 -10.31851 -10.31847 -10.31847 -10.31840
 Alpha  occ. eigenvalues --  -10.31071 -10.31069 -10.31067 -10.31063 -10.29876
 Alpha  occ. eigenvalues --  -10.29876 -10.29874 -10.29873 -10.29446 -10.29444
 Alpha  occ. eigenvalues --  -10.29434 -10.29431 -10.29218 -10.29214 -10.29202
 Alpha  occ. eigenvalues --  -10.29201 -10.29162 -10.29161 -10.29160 -10.29159
 Alpha  occ. eigenvalues --  -10.29030 -10.29025 -10.29022 -10.29020 -10.28610
 Alpha  occ. eigenvalues --  -10.28609 -10.28569 -10.28568 -10.28135 -10.28134
 Alpha  occ. eigenvalues --  -10.28133 -10.28128 -10.27912 -10.27912 -10.27889
 Alpha  occ. eigenvalues --  -10.27888 -10.27888 -10.27887 -10.27886 -10.27885
 Alpha  occ. eigenvalues --  -10.27349 -10.27348 -10.27345 -10.27344 -10.27130
 Alpha  occ. eigenvalues --  -10.27130 -10.27129 -10.27128 -10.26925 -10.26924
 Alpha  occ. eigenvalues --  -10.26924 -10.26922 -10.26633 -10.26631 -10.26617
 Alpha  occ. eigenvalues --  -10.26615 -10.26578 -10.26577 -10.26577 -10.26575
 Alpha  occ. eigenvalues --  -10.26558 -10.26557 -10.26537 -10.26536 -10.26523
 Alpha  occ. eigenvalues --  -10.26522 -10.26440 -10.26438 -10.26430 -10.26430
 Alpha  occ. eigenvalues --  -10.26420 -10.26419 -10.26284 -10.26281 -10.26241
 Alpha  occ. eigenvalues --  -10.26240  -3.57473  -3.57465  -2.25450  -2.25443
 Alpha  occ. eigenvalues --   -2.25295  -2.25285  -2.21197  -2.21187  -1.04238
 Alpha  occ. eigenvalues --   -1.04233  -1.03461  -1.03460  -1.03369  -1.03369
 Alpha  occ. eigenvalues --   -1.03182  -1.03179  -0.92814  -0.92796  -0.92756
 Alpha  occ. eigenvalues --   -0.92754  -0.92299  -0.92280  -0.92246  -0.92239
 Alpha  occ. eigenvalues --   -0.88056  -0.88024  -0.87919  -0.87913  -0.86121
 Alpha  occ. eigenvalues --   -0.86060  -0.86047  -0.86041  -0.84660  -0.84606
 Alpha  occ. eigenvalues --   -0.84461  -0.84444  -0.83164  -0.83150  -0.83071
 Alpha  occ. eigenvalues --   -0.83053  -0.82202  -0.82135  -0.82072  -0.81961
 Alpha  occ. eigenvalues --   -0.80515  -0.80477  -0.80413  -0.80306  -0.79639
 Alpha  occ. eigenvalues --   -0.79638  -0.79589  -0.79587  -0.76446  -0.76444
 Alpha  occ. eigenvalues --   -0.76391  -0.76340  -0.71738  -0.71676  -0.71567
 Alpha  occ. eigenvalues --   -0.71389  -0.71220  -0.71127  -0.71035  -0.70734
 Alpha  occ. eigenvalues --   -0.69752  -0.69700  -0.69546  -0.69507  -0.69222
 Alpha  occ. eigenvalues --   -0.69080  -0.69022  -0.68999  -0.67335  -0.67335
 Alpha  occ. eigenvalues --   -0.67283  -0.67211  -0.65202  -0.65190  -0.65176
 Alpha  occ. eigenvalues --   -0.65155  -0.64896  -0.64772  -0.64719  -0.64704
 Alpha  occ. eigenvalues --   -0.60725  -0.60555  -0.60098  -0.60064  -0.59889
 Alpha  occ. eigenvalues --   -0.59793  -0.59648  -0.59566  -0.58234  -0.58211
 Alpha  occ. eigenvalues --   -0.57950  -0.57941  -0.57862  -0.57668  -0.57434
 Alpha  occ. eigenvalues --   -0.57401  -0.56821  -0.56750  -0.56672  -0.56572
 Alpha  occ. eigenvalues --   -0.55898  -0.55894  -0.55774  -0.55761  -0.53562
 Alpha  occ. eigenvalues --   -0.53443  -0.53346  -0.53126  -0.52627  -0.52515
 Alpha  occ. eigenvalues --   -0.52499  -0.52146  -0.52003  -0.51960  -0.51226
 Alpha  occ. eigenvalues --   -0.51147  -0.51039  -0.50976  -0.50747  -0.50683
 Alpha  occ. eigenvalues --   -0.50549  -0.50539  -0.50089  -0.50054  -0.50052
 Alpha  occ. eigenvalues --   -0.50032  -0.49709  -0.49591  -0.49348  -0.49317
 Alpha  occ. eigenvalues --   -0.49164  -0.49153  -0.48994  -0.48894  -0.48419
 Alpha  occ. eigenvalues --   -0.48417  -0.48333  -0.48314  -0.47805  -0.47769
 Alpha  occ. eigenvalues --   -0.47737  -0.47734  -0.47598  -0.47556  -0.47548
 Alpha  occ. eigenvalues --   -0.47512  -0.46723  -0.46719  -0.46413  -0.46396
 Alpha  occ. eigenvalues --   -0.46177  -0.46155  -0.45038  -0.45008  -0.44537
 Alpha  occ. eigenvalues --   -0.44534  -0.44000  -0.43967  -0.43892  -0.43879
 Alpha  occ. eigenvalues --   -0.43766  -0.43648  -0.43404  -0.43341  -0.43262
 Alpha  occ. eigenvalues --   -0.43202  -0.43089  -0.42963  -0.42954  -0.42685
 Alpha  occ. eigenvalues --   -0.42088  -0.41938  -0.40910  -0.40819  -0.40708
 Alpha  occ. eigenvalues --   -0.40567  -0.40196  -0.40190  -0.40136  -0.40011
 Alpha  occ. eigenvalues --   -0.39644  -0.39625  -0.39541  -0.39472  -0.39455
 Alpha  occ. eigenvalues --   -0.39002  -0.38968  -0.38866  -0.38381  -0.38362
 Alpha  occ. eigenvalues --   -0.37857  -0.37560  -0.37347  -0.37084  -0.36765
 Alpha  occ. eigenvalues --   -0.36515  -0.36319  -0.36124  -0.35798  -0.35522
 Alpha  occ. eigenvalues --   -0.35358  -0.34983  -0.34297  -0.34182  -0.34111
 Alpha  occ. eigenvalues --   -0.34100  -0.33786  -0.33783  -0.33412  -0.33327
 Alpha  occ. eigenvalues --   -0.32412  -0.32082  -0.31937  -0.31916  -0.31755
 Alpha  occ. eigenvalues --   -0.31636  -0.31533  -0.31521  -0.31339  -0.31276
 Alpha  occ. eigenvalues --   -0.30851  -0.30831  -0.30002  -0.29918  -0.29789
 Alpha  occ. eigenvalues --   -0.29709  -0.29042  -0.29011  -0.28604  -0.28504
 Alpha  occ. eigenvalues --   -0.27593  -0.27550  -0.25547  -0.25483  -0.24995
 Alpha  occ. eigenvalues --   -0.24974
 Alpha virt. eigenvalues --   -0.10588  -0.10418  -0.10134  -0.10116  -0.08604
 Alpha virt. eigenvalues --   -0.08251  -0.08075  -0.07812  -0.07692  -0.07588
 Alpha virt. eigenvalues --   -0.07061  -0.06676  -0.06443  -0.06380  -0.05990

 Mulliken charges:
               1
     1  Pd   0.489100
     2  Pd   0.488679
     3  C    0.007541
     4  C   -0.058328
     5  C   -0.010721
     6  C    0.005855
     7  C    0.014855
     8  C    0.007805
     9  C    0.030038
    10  C   -0.015007
    11  C    0.141093
    12  N   -0.317041
    13  C    0.182769
    14  C   -0.011523
    15  H    0.042343
    16  H    0.056256
    17  H    0.041940
    18  H    0.053984
    19  H    0.096171
    20  H    0.083052
    21  C   -0.071873
    22  C    0.015880
    23  C   -0.018247
    24  C    0.027419
    25  C   -0.021082
    26  C    0.010424
    27  H    0.037768
    28  H    0.040303
    29  H    0.033454
    30  H    0.033547
    31  C   -0.032323
    32  C    0.071285
    33  C   -0.031191
    34  C    0.150478
    35  N   -0.314100
    36  C    0.143621
    37  H    0.063457
    38  H    0.068256
    39  H    0.108858
    40  H    0.087934
    41  C    0.012919
    42  C   -0.061892
    43  C   -0.016241
    44  C    0.009174
    45  C    0.014164
    46  C    0.008522
    47  C    0.028777
    48  C   -0.013953
    49  C    0.140634
    50  N   -0.316402
    51  C    0.180588
    52  C   -0.008712
    53  H    0.042376
    54  H    0.056342
    55  H    0.042040
    56  H    0.054071
    57  H    0.096830
    58  H    0.085034
    59  C   -0.081030
    60  C    0.018662
    61  C   -0.013238
    62  C    0.010976
    63  C   -0.019293
    64  C    0.016648
    65  H    0.037176
    66  H    0.040180
    67  H    0.038484
    68  H    0.033884
    69  C   -0.031597
    70  C    0.071004
    71  C   -0.031510
    72  C    0.150704
    73  N   -0.314026
    74  C    0.146846
    75  H    0.063169
    76  H    0.068291
    77  H    0.109011
    78  H    0.087496
    79  C    0.007337
    80  C   -0.058124
    81  C   -0.010502
    82  C    0.005761
    83  C    0.014892
    84  C    0.007875
    85  C    0.029886
    86  C   -0.014995
    87  C    0.140874
    88  N   -0.317182
    89  C    0.182337
    90  C   -0.011344
    91  H    0.042349
    92  H    0.056221
    93  H    0.041920
    94  H    0.053994
    95  H    0.096447
    96  H    0.083106
    97  C   -0.071711
    98  C    0.010296
    99  C   -0.020807
   100  C    0.027199
   101  C   -0.018037
   102  C    0.015702
   103  H    0.033545
   104  H    0.033426
   105  H    0.040292
   106  H    0.037854
   107  C   -0.032652
   108  C    0.071520
   109  C   -0.031003
   110  C    0.150404
   111  N   -0.314236
   112  C    0.143686
   113  H    0.063432
   114  H    0.068254
   115  H    0.108835
   116  H    0.087977
   117  C    0.013048
   118  C   -0.061923
   119  C   -0.016227
   120  C    0.009136
   121  C    0.014136
   122  C    0.008479
   123  C    0.028762
   124  C   -0.014188
   125  C    0.141039
   126  N   -0.316643
   127  C    0.180696
   128  C   -0.008660
   129  H    0.042326
   130  H    0.056358
   131  H    0.042051
   132  H    0.054134
   133  H    0.096811
   134  H    0.084983
   135  C   -0.080931
   136  C    0.018651
   137  C   -0.012904
   138  C    0.010105
   139  C   -0.018899
   140  C    0.016567
   141  H    0.037159
   142  H    0.040189
   143  H    0.038487
   144  H    0.033896
   145  C   -0.032070
   146  C    0.071329
   147  C   -0.031446
   148  C    0.150583
   149  N   -0.314286
   150  C    0.147529
   151  H    0.063175
   152  H    0.068318
   153  H    0.109070
   154  H    0.087500
 Sum of Mulliken charges =   4.00000

 Dipole moment (field-independent basis, Debye):
    X=              0.0028    Y=             -0.0224    Z=              0.0005  Tot=              0.0225
 Quadrupole moment (field-independent basis, Debye-Ang):
   XX=            165.9704   YY=           -390.4047   ZZ=           -359.0442
   XY=              2.5550   XZ=             91.5237   YZ=              9.8993

 Normal termination of Gaussian 16 at Fri Feb 26 12:08:01 2021.
