 Gaussian 16, Revision C.01,
 Gaussian 16:  ES64L-G16RevC.01  3-Jul-2019

 --------------------------------------
 # SP B97D3/def2svp scrf=(solvent=dmso)
 --------------------------------------

 -----
 m2_lb
 -----
 Symbolic Z-matrix:
 Charge =  4 Multiplicity = 1

                         Standard orientation:
 ---------------------------------------------------------------------
 Center     Atomic      Atomic             Coordinates (Angstroms)
 Number     Number       Type             X           Y           Z
 ---------------------------------------------------------------------
      1          6           0       -8.100427   -1.737284    2.361542
      2          6           0       -7.894774   -2.341522    3.585667
      3          6           0       -6.825404   -1.921602    4.427851
      4          6           0       -6.508325   -2.551616    5.661692
      5          6           0       -5.408771   -2.119389    6.390224
      6          6           0       -4.617134   -1.026500    5.948933
      7          6           0       -4.917447   -0.344009    4.773285
      8          6           0       -6.013266   -0.821396    3.974231
      9          6           0       -6.288275   -0.283631    2.695845
     10          6           0       -4.139730    0.849131    4.349705
     11          6           0       -2.753669    0.756276    4.109503
     12          6           0       -2.024792    1.871144    3.690836
     13          6           0       -2.669167    3.119762    3.502316
     14          6           0       -4.056583    3.221140    3.775236
     15          6           0       -4.779346    2.099339    4.184240
     16          6           0       -1.951174    4.230684    2.972172
     17          6           0       -1.348743    5.142901    2.412040
     18          6           0       -0.648591    6.050787    1.550428
     19          6           0       -0.672754    7.454454    1.728178
     20          6           0        0.007925    8.251867    0.799408
     21          6           0        0.687185    7.647118   -0.265753
     22          6           0        0.659413    6.235675   -0.362699
     23          6           0        1.358471    5.509988   -1.383075
     24          6           0        1.960291    4.722671   -2.108834
     25          6           0        2.677165    3.734559   -2.843887
     26          6           0        4.062254    3.890600   -3.102480
     27          6           0        4.784803    2.868227   -3.719676
     28          6           0        4.146606    1.669168   -4.112659
     29          6           0        2.762487    1.527937   -3.885420
     30          6           0        2.034010    2.541591   -3.259832
     31          6           0        4.924672    0.578023   -4.754918
     32          6           0        4.626696    0.131453   -6.039363
     33          6           0        5.419130   -0.858474   -6.678381
     34          6           0        6.517060   -1.421635   -6.042763
     35          6           0        6.831747   -1.037095   -4.711231
     36          6           0        7.900383   -1.608093   -3.962302
     37          6           0        8.104200   -1.246532   -2.645709
     38          6           0        6.290966    0.242683   -2.700865
     39          6           0        6.018683   -0.042806   -4.058707
     40          6           0       -8.116078    2.350806    1.732984
     41          6           0       -7.916627    3.575634    2.337935
     42          6           0       -6.847447    4.420709    1.923152
     43          6           0       -6.536432    5.655341    2.554653
     44          6           0       -5.437656    6.387534    2.126599
     45          6           0       -4.640991    5.949298    1.036027
     46          6           0       -4.935046    4.772803    0.352198
     47          6           0       -6.029657    3.969804    0.826020
     48          6           0       -6.298054    2.690145    0.287820
     49          6           0       -4.152488    4.352054   -0.838921
     50          6           0       -2.765806    4.116491   -0.742771
     51          6           0       -2.032900    3.698695   -1.855415
     52          6           0       -2.673917    3.506382   -3.105178
     53          6           0       -4.061745    3.775856   -3.210261
     54          6           0       -4.788372    4.184040   -2.090694
     55          6           0       -1.952889    2.975788   -4.213988
     56          6           0       -1.349781    2.415399   -5.125603
     57          6           0       -0.649600    1.554448   -6.034106
     58          6           0       -0.674599    1.733336   -7.437638
     59          6           0        0.004845    0.804728   -8.236288
     60          6           0        0.683884   -0.261297   -7.632840
     61          6           0        0.657285   -0.359231   -6.221429
     62          6           0        1.356375   -1.380616   -5.497144
     63          6           0        1.958628   -2.107865   -4.711511
     64          6           0        2.676580   -2.844031   -3.724953
     65          6           0        2.035424   -3.258860   -2.530510
     66          6           0        2.765287   -3.884052   -1.517566
     67          6           0        4.149045   -4.111913   -1.660979
     68          6           0        4.785018   -3.720705   -2.861810
     69          6           0        4.061108   -3.104317   -3.883673
     70          6           0        4.930150   -4.752834   -0.571178
     71          6           0        4.634331   -6.036839   -0.122037
     72          6           0        5.431603   -6.674732    0.864762
     73          6           0        6.532726   -6.038833    1.421490
     74          6           0        6.845270   -4.707361    1.034667
     75          6           0        7.916859   -3.957695    1.599456
     76          6           0        8.116613   -2.640371    1.238010
     77          6           0        6.295035   -2.697298   -0.241174
     78          6           0        6.026455   -4.055716    0.044580
     79          6           0       -8.121263    1.723518   -2.349180
     80          6           0       -7.920156    2.331024   -3.572508
     81          6           0       -6.848879    1.919156   -4.416447
     82          6           0       -6.535983    2.553702   -5.649018
     83          6           0       -5.435571    2.128013   -6.380125
     84          6           0       -4.639194    1.036770   -5.943052
     85          6           0       -4.935129    0.349950   -4.768743
     86          6           0       -6.031254    0.821529   -3.966542
     87          6           0       -6.301108    0.280985   -2.688172
     88          6           0       -4.152615   -0.841509   -4.349038
     89          6           0       -4.787829   -2.094086   -4.183995
     90          6           0       -4.060628   -3.213858   -3.777333
     91          6           0       -2.673168   -3.108178   -3.506223
     92          6           0       -2.033017   -1.857448   -3.694952
     93          6           0       -2.766354   -0.744638   -4.111398
     94          6           0       -1.951613   -4.217433   -2.977352
     95          6           0       -1.347585   -5.129158   -2.418137
     96          6           0       -0.646140   -6.037873   -1.558466
     97          6           0       -0.666685   -7.441009   -1.741107
     98          6           0        0.014798   -8.239995   -0.814270
     99          6           0        0.691151   -7.637232    0.253836
    100          6           0        0.659992   -6.226204    0.355521
    101          6           0        1.357243   -5.502645    1.378644
    102          6           0        1.959461   -4.717890    2.106841
    103          6           0        2.677574   -3.731210    2.842664
    104          6           0        2.035548   -2.538184    3.260168
    105          6           0        2.765430   -1.524852    3.884601
    106          6           0        4.149956   -1.666397    4.109114
    107          6           0        4.786855   -2.865812    3.715165
    108          6           0        4.062968   -3.888090    3.099386
    109          6           0        4.929768   -0.576039    4.750510
    110          6           0        4.633231   -0.129231    6.035234
    111          6           0        5.427610    0.859261    6.673988
    112          6           0        6.526098    1.420684    6.037815
    113          6           0        6.839259    1.036221    4.705880
    114          6           0        7.908341    1.605849    3.956399
    115          6           0        8.110291    1.245290    2.639190
    116          6           0        6.294476   -0.240834    2.695138
    117          6           0        6.024184    0.043440    4.053635
    118          6           0       -8.121507   -2.356903   -1.722596
    119          6           0       -7.920388   -3.578889   -2.332781
    120          6           0       -6.848097   -4.422893   -1.923768
    121          6           0       -6.534725   -5.654072   -2.560806
    122          6           0       -5.433770   -6.385479   -2.136941
    123          6           0       -4.637265   -5.950432   -1.044951
    124          6           0       -4.933308   -4.777416   -0.356171
    125          6           0       -6.029793   -3.974747   -0.826020
    126          6           0       -6.299310   -2.697486   -0.282946
    127          6           0       -4.151872   -4.359104    0.836570
    128          6           0       -4.788049   -4.200537    2.089447
    129          6           0       -4.063323   -3.791965    3.210178
    130          6           0       -2.677465   -3.512408    3.105016
    131          6           0       -2.035998   -3.696124    1.854158
    132          6           0       -2.766819   -4.114492    0.740376
    133          6           0       -1.958162   -2.980700    4.214409
    134          6           0       -1.354342   -2.420632    5.125741
    135          6           0       -0.652081   -1.562023    6.034723
    136          6           0       -0.673202   -1.744718    7.437803
    137          6           0        0.009974   -0.819535    8.237162
    138          6           0        0.687940    0.247846    7.634854
    139          6           0        0.656690    0.350230    6.223867
    140          6           0        1.354140    1.373379    5.500416
    141          6           0        1.954789    2.101889    4.714712
    142          6           0        2.672074    2.839187    3.728477
    143          6           0        2.029413    3.260596    2.537168
    144          6           0        2.758968    3.886636    1.524545
    145          6           0        4.144028    4.108641    1.665018
    146          6           0        4.781551    3.711036    2.862941
    147          6           0        4.057943    3.093872    3.884502
    148          6           0        4.923993    4.751978    0.575997
    149          6           0        4.627207    6.037315    0.131307
    150          6           0        5.422105    6.678093   -0.855357
    151          6           0        6.521814    6.043886   -1.416637
    152          6           0        6.835654    4.711574   -1.034038
    153          6           0        7.906594    3.964162   -1.602970
    154          6           0        8.109285    2.646704   -1.243655
    155          6           0        6.290009    2.698068    0.238277
    156          6           0        6.019427    4.056907   -0.043781
    157          1           0       -8.903015   -2.045223    1.686592
    158          1           0       -8.552123   -3.158894    3.897245
    159          1           0       -7.124822   -3.384954    6.013716
    160          1           0       -5.149838   -2.618803    7.330077
    161          1           0       -3.773501   -0.689927    6.560544
    162          1           0       -5.659533    0.514593    2.292995
    163          1           0       -2.243221   -0.202120    4.225299
    164          1           0       -0.951195    1.772293    3.503526
    165          1           0       -4.557878    4.184558    3.652882
    166          1           0       -5.851343    2.192529    4.391820
    167          1           0       -1.211799    7.894908    2.572436
    168          1           0        0.009230    9.341953    0.905184
    169          1           0        1.227966    8.241137   -1.008682
    170          1           0        4.562245    4.815495   -2.804098
    171          1           0        5.855384    3.002275   -3.911935
    172          1           0        2.253927    0.606409   -4.176360
    173          1           0        0.961928    2.405802   -3.087434
    174          1           0        3.784345    0.578427   -6.577721
    175          1           0        5.162294   -1.170253   -7.696533
    176          1           0        7.134025   -2.173191   -6.545597
    177          1           0        8.559714   -2.350445   -4.422307
    178          1           0        8.907179   -1.675832   -2.041107
    179          1           0        5.660839    0.949764   -2.155099
    180          1           0       -8.919006    1.674387    2.037041
    181          1           0       -8.579157    3.885424    3.151823
    182          1           0       -7.157019    6.005715    3.385627
    183          1           0       -5.183075    7.328015    2.627130
    184          1           0       -3.798484    6.564126    0.702435
    185          1           0       -5.664515    2.288918   -0.507483
    186          1           0       -2.258456    4.234921    0.216928
    187          1           0       -0.958931    3.514791   -1.753849
    188          1           0       -4.560429    3.651311   -4.174739
    189          1           0       -5.860621    4.388758   -2.186976
    190          1           0       -1.213637    2.578149   -7.877041
    191          1           0        0.005283    0.911167   -9.326309
    192          1           0        1.223320   -1.004461   -8.227825
    193          1           0        0.963670   -3.085832   -2.393022
    194          1           0        2.258232   -4.174126   -0.594942
    195          1           0        5.855227   -3.914046   -2.997281
    196          1           0        4.559484   -2.807433   -4.809928
    197          1           0        3.789841   -6.575663   -0.564395
    198          1           0        5.176171   -7.692518    1.178931
    199          1           0        7.153869   -6.541231    2.169913
    200          1           0        8.580968   -4.417723    2.337535
    201          1           0        8.920904   -2.034358    1.663155
    202          1           0        5.660193   -2.151853   -0.944300
    203          1           0       -8.925749    2.025224   -1.673608
    204          1           0       -8.583217    3.144422   -3.882298
    205          1           0       -7.156375    3.385308   -5.998282
    206          1           0       -5.179401    2.630903   -7.318897
    207          1           0       -3.795426    0.704956   -6.557116
    208          1           0       -5.667305   -0.514268   -2.287291
    209          1           0       -5.859877   -2.191095   -4.389704
    210          1           0       -4.558584   -4.179019   -3.655255
    211          1           0       -0.959415   -1.755298   -3.509309
    212          1           0       -2.259722    0.215781   -4.226919
    213          1           0       -1.203540   -7.879803   -2.587630
    214          1           0        0.019116   -9.329704   -0.923830
    215          1           0        1.232372   -8.232258    0.995622
    216          1           0        0.963212   -2.402024    3.089612
    217          1           0        2.257862   -0.603090    4.176464
    218          1           0        5.857649   -3.000182    3.906158
    219          1           0        4.561967   -4.813262    2.800259
    220          1           0        3.790297   -0.574780    6.573869
    221          1           0        5.171843    1.171259    7.692346
    222          1           0        7.144575    2.170884    6.540880
    223          1           0        8.569050    2.347018    4.416204
    224          1           0        8.913686    1.673257    2.033983
    225          1           0        5.662542   -0.946240    2.149255
    226          1           0       -8.926917   -1.681197   -2.021655
    227          1           0       -8.584104   -3.887292   -3.146212
    228          1           0       -7.155120   -6.002301   -3.392786
    229          1           0       -5.177528   -7.323272   -2.641659
    230          1           0       -3.793426   -6.565082   -0.714397
    231          1           0       -5.664697   -2.297857    0.512272
    232          1           0       -5.859076   -4.411979    2.185472
    233          1           0       -4.562106   -3.674068    4.175462
    234          1           0       -0.963323   -3.504756    1.752717
    235          1           0       -2.259382   -4.226099   -0.220110
    236          1           0       -1.211829   -2.590164    7.876519
    237          1           0        0.014173   -0.930162    9.326780
    238          1           0        1.230366    0.988613    8.230116
    239          1           0        0.956719    3.092025    2.401560
    240          1           0        2.250281    4.181910    0.604435
    241          1           0        5.852656    3.900540    2.996816
    242          1           0        4.557432    2.792196    4.808557
    243          1           0        3.783992    6.575046    0.577353
    244          1           0        5.165672    7.696868   -1.165562
    245          1           0        7.140819    6.548317   -2.165450
    246          1           0        8.568294    4.426406   -2.341914
    247          1           0        8.914543    2.043327   -1.670349
    248          1           0        5.656884    2.150228    0.941090
    249          7           0       -7.281528   -0.727355    1.920761
    250          7           0        0.004180    5.459970    0.527007
    251          7           0        7.283017   -0.339881   -2.022256
    252          7           0       -7.290311    1.911774    0.727878
    253          7           0        0.003124    0.530271   -5.444574
    254          7           0        7.288749   -2.017510    0.337130
    255          7           0       -7.294892    0.718820   -1.910428
    256          7           0        0.004067   -5.448961   -0.532331
    257          7           0        7.286389    0.341206    2.015869
    258          7           0       -7.293780   -1.919400   -0.718387
    259          7           0       -0.000087   -0.536704    5.446305
    260          7           0        7.283944    2.020807   -0.342615
    261         46           0       -7.387831   -0.004126    0.005589
    262         46           0        7.382853    0.001484   -0.003377
 ---------------------------------------------------------------------

 SCF Done:  E(RB97D3) =  -6903.84228010     A.U. after   19 cycles

 The electronic state is 1-A.
 Alpha  occ. eigenvalues --  -14.09212 -14.09209 -14.09208 -14.09206 -14.09196
 Alpha  occ. eigenvalues --  -14.09195 -14.09192 -14.09191 -14.02456 -14.02454
 Alpha  occ. eigenvalues --  -14.02454 -14.02452  -9.99889  -9.99887  -9.99885
 Alpha  occ. eigenvalues --   -9.99882  -9.99875  -9.99873  -9.99872  -9.99869
 Alpha  occ. eigenvalues --   -9.99341  -9.99341  -9.99340  -9.99340  -9.99339
 Alpha  occ. eigenvalues --   -9.99338  -9.99336  -9.99335  -9.98900  -9.98899
 Alpha  occ. eigenvalues --   -9.98898  -9.98893  -9.98888  -9.98886  -9.98884
 Alpha  occ. eigenvalues --   -9.98880  -9.96935  -9.96934  -9.96934  -9.96929
 Alpha  occ. eigenvalues --   -9.96923  -9.96922  -9.96920  -9.96917  -9.96765
 Alpha  occ. eigenvalues --   -9.96763  -9.96759  -9.96758  -9.96752  -9.96749
 Alpha  occ. eigenvalues --   -9.96748  -9.96746  -9.96373  -9.96372  -9.96372
 Alpha  occ. eigenvalues --   -9.96371  -9.96371  -9.96368  -9.96368  -9.96365
 Alpha  occ. eigenvalues --   -9.96358  -9.96358  -9.96356  -9.96350  -9.96347
 Alpha  occ. eigenvalues --   -9.96344  -9.96343  -9.96341  -9.95988  -9.95988
 Alpha  occ. eigenvalues --   -9.95986  -9.95982  -9.95977  -9.95975  -9.95975
 Alpha  occ. eigenvalues --   -9.95970  -9.95428  -9.95426  -9.95425  -9.95425
 Alpha  occ. eigenvalues --   -9.95312  -9.95312  -9.95312  -9.95308  -9.95308
 Alpha  occ. eigenvalues --   -9.95307  -9.95306  -9.95306  -9.95305  -9.95304
 Alpha  occ. eigenvalues --   -9.95304  -9.95301  -9.95300  -9.95300  -9.95300
 Alpha  occ. eigenvalues --   -9.95298  -9.95031  -9.95031  -9.95031  -9.95026
 Alpha  occ. eigenvalues --   -9.95025  -9.95024  -9.95020  -9.95020  -9.94975
 Alpha  occ. eigenvalues --   -9.94975  -9.94974  -9.94973  -9.94973  -9.94972
 Alpha  occ. eigenvalues --   -9.94970  -9.94970  -9.94967  -9.94967  -9.94967
 Alpha  occ. eigenvalues --   -9.94961  -9.94961  -9.94960  -9.94957  -9.94955
 Alpha  occ. eigenvalues --   -9.94390  -9.94390  -9.94388  -9.94388  -9.94384
 Alpha  occ. eigenvalues --   -9.94383  -9.94382  -9.94381  -9.94337  -9.94336
 Alpha  occ. eigenvalues --   -9.94335  -9.94334  -9.94333  -9.94332  -9.94332
 Alpha  occ. eigenvalues --   -9.94330  -9.94286  -9.94285  -9.94285  -9.94285
 Alpha  occ. eigenvalues --   -9.94284  -9.94281  -9.94280  -9.94280  -9.94280
 Alpha  occ. eigenvalues --   -9.94279  -9.94279  -9.94278  -9.94277  -9.94276
 Alpha  occ. eigenvalues --   -9.94275  -9.94275  -9.93808  -9.93807  -9.93807
 Alpha  occ. eigenvalues --   -9.93805  -9.93801  -9.93801  -9.93801  -9.93798
 Alpha  occ. eigenvalues --   -9.93761  -9.93761  -9.93760  -9.93759  -9.93759
 Alpha  occ. eigenvalues --   -9.93757  -9.93756  -9.93755  -3.37507  -3.37478
 Alpha  occ. eigenvalues --   -2.09998  -2.09995  -2.09970  -2.09968  -2.05513
 Alpha  occ. eigenvalues --   -2.05478  -0.91761  -0.91747  -0.91120  -0.91117
 Alpha  occ. eigenvalues --   -0.91105  -0.91102  -0.90905  -0.90891  -0.88376
 Alpha  occ. eigenvalues --   -0.88374  -0.88373  -0.88371  -0.81821  -0.81812
 Alpha  occ. eigenvalues --   -0.81711  -0.81710  -0.81703  -0.81702  -0.81654
 Alpha  occ. eigenvalues --   -0.81646  -0.79772  -0.79748  -0.79709  -0.79708
 Alpha  occ. eigenvalues --   -0.79691  -0.79691  -0.79670  -0.79664  -0.75673
 Alpha  occ. eigenvalues --   -0.75609  -0.75608  -0.75562  -0.75442  -0.75424
 Alpha  occ. eigenvalues --   -0.75414  -0.75414  -0.74709  -0.74673  -0.74672
 Alpha  occ. eigenvalues --   -0.74657  -0.74321  -0.74316  -0.74314  -0.74311
 Alpha  occ. eigenvalues --   -0.73068  -0.72946  -0.72945  -0.72898  -0.72882
 Alpha  occ. eigenvalues --   -0.72753  -0.72752  -0.72750  -0.72486  -0.72353
 Alpha  occ. eigenvalues --   -0.72352  -0.72309  -0.72165  -0.72090  -0.72089
 Alpha  occ. eigenvalues --   -0.72050  -0.69947  -0.69895  -0.69895  -0.69874
 Alpha  occ. eigenvalues --   -0.69271  -0.69233  -0.69233  -0.69214  -0.69089
 Alpha  occ. eigenvalues --   -0.69085  -0.69084  -0.69081  -0.69053  -0.69016
 Alpha  occ. eigenvalues --   -0.69015  -0.68962  -0.67109  -0.67083  -0.67082
 Alpha  occ. eigenvalues --   -0.67078  -0.65891  -0.65855  -0.65854  -0.65837
 Alpha  occ. eigenvalues --   -0.62176  -0.62153  -0.62099  -0.62044  -0.62035
 Alpha  occ. eigenvalues --   -0.62034  -0.61998  -0.61997  -0.61035  -0.60952
 Alpha  occ. eigenvalues --   -0.60952  -0.60930  -0.60909  -0.60869  -0.60868
 Alpha  occ. eigenvalues --   -0.60846  -0.60117  -0.60100  -0.60071  -0.60066
 Alpha  occ. eigenvalues --   -0.60014  -0.60013  -0.59976  -0.59975  -0.58562
 Alpha  occ. eigenvalues --   -0.58554  -0.58552  -0.58537  -0.58447  -0.58387
 Alpha  occ. eigenvalues --   -0.58386  -0.58336  -0.56474  -0.56415  -0.56413
 Alpha  occ. eigenvalues --   -0.56390  -0.56351  -0.56307  -0.56307  -0.56298
 Alpha  occ. eigenvalues --   -0.55352  -0.55189  -0.55188  -0.55155  -0.55089
 Alpha  occ. eigenvalues --   -0.55029  -0.55028  -0.55021  -0.52434  -0.52271
 Alpha  occ. eigenvalues --   -0.52269  -0.52110  -0.50856  -0.50823  -0.50678
 Alpha  occ. eigenvalues --   -0.50581  -0.50557  -0.50556  -0.50481  -0.50481
 Alpha  occ. eigenvalues --   -0.50216  -0.50171  -0.50024  -0.50023  -0.49999
 Alpha  occ. eigenvalues --   -0.49998  -0.49959  -0.49909  -0.49829  -0.49668
 Alpha  occ. eigenvalues --   -0.49659  -0.49658  -0.49368  -0.49179  -0.49065
 Alpha  occ. eigenvalues --   -0.48950  -0.48938  -0.48938  -0.48730  -0.48707
 Alpha  occ. eigenvalues --   -0.48230  -0.48228  -0.48212  -0.48210  -0.46903
 Alpha  occ. eigenvalues --   -0.46879  -0.46876  -0.46854  -0.45190  -0.45106
 Alpha  occ. eigenvalues --   -0.45105  -0.45099  -0.45025  -0.44957  -0.44872
 Alpha  occ. eigenvalues --   -0.44872  -0.44767  -0.44665  -0.44559  -0.44559
 Alpha  occ. eigenvalues --   -0.44349  -0.44247  -0.43961  -0.43882  -0.43702
 Alpha  occ. eigenvalues --   -0.43701  -0.43677  -0.43676  -0.43593  -0.43562
 Alpha  occ. eigenvalues --   -0.43445  -0.43443  -0.43421  -0.43420  -0.43405
 Alpha  occ. eigenvalues --   -0.43380  -0.43120  -0.43098  -0.43035  -0.43033
 Alpha  occ. eigenvalues --   -0.42883  -0.42877  -0.42723  -0.42716  -0.42583
 Alpha  occ. eigenvalues --   -0.42582  -0.42489  -0.42487  -0.42283  -0.42269
 Alpha  occ. eigenvalues --   -0.41405  -0.41397  -0.41350  -0.41349  -0.41317
 Alpha  occ. eigenvalues --   -0.41317  -0.41308  -0.41257  -0.40882  -0.40882
 Alpha  occ. eigenvalues --   -0.40805  -0.40802  -0.40673  -0.40620  -0.40571
 Alpha  occ. eigenvalues --   -0.40353  -0.40351  -0.40343  -0.40273  -0.40271
 Alpha  occ. eigenvalues --   -0.40099  -0.40000  -0.39895  -0.39750  -0.39746
 Alpha  occ. eigenvalues --   -0.39613  -0.39554  -0.39501  -0.39480  -0.39315
 Alpha  occ. eigenvalues --   -0.39313  -0.39312  -0.38582  -0.38569  -0.38558
 Alpha  occ. eigenvalues --   -0.38505  -0.38503  -0.38393  -0.38170  -0.38168
 Alpha  occ. eigenvalues --   -0.38099  -0.38097  -0.37781  -0.37746  -0.37745
 Alpha  occ. eigenvalues --   -0.37743  -0.37602  -0.37590  -0.37368  -0.37324
 Alpha  occ. eigenvalues --   -0.36326  -0.36324  -0.36241  -0.36241  -0.36236
 Alpha  occ. eigenvalues --   -0.36137  -0.36083  -0.36046  -0.36015  -0.36013
 Alpha  occ. eigenvalues --   -0.35956  -0.35954  -0.35845  -0.35840  -0.35810
 Alpha  occ. eigenvalues --   -0.35694  -0.35693  -0.35684  -0.35656  -0.35576
 Alpha  occ. eigenvalues --   -0.35494  -0.35493  -0.35479  -0.35435  -0.35431
 Alpha  occ. eigenvalues --   -0.35429  -0.34899  -0.34897  -0.34859  -0.34857
 Alpha  occ. eigenvalues --   -0.34530  -0.34508  -0.34217  -0.33991  -0.33535
 Alpha  occ. eigenvalues --   -0.33521  -0.32990  -0.32989  -0.32977  -0.32910
 Alpha  occ. eigenvalues --   -0.32780  -0.32623  -0.32623  -0.32475  -0.32327
 Alpha  occ. eigenvalues --   -0.32326  -0.32262  -0.32261  -0.32223  -0.32151
 Alpha  occ. eigenvalues --   -0.32123  -0.32012  -0.31408  -0.31404  -0.31330
 Alpha  occ. eigenvalues --   -0.31278  -0.30829  -0.30828  -0.30580  -0.30579
 Alpha  occ. eigenvalues --   -0.30527  -0.30025  -0.30023  -0.29930  -0.29899
 Alpha  occ. eigenvalues --   -0.29703  -0.29702  -0.29665  -0.29375  -0.29221
 Alpha  occ. eigenvalues --   -0.29139  -0.29071  -0.29069  -0.28732  -0.28337
 Alpha  occ. eigenvalues --   -0.28335  -0.28286  -0.28232  -0.28203  -0.28153
 Alpha  occ. eigenvalues --   -0.28151  -0.28037  -0.27801  -0.27799  -0.27731
 Alpha  occ. eigenvalues --   -0.27727  -0.27224  -0.27133  -0.26301  -0.26201
 Alpha  occ. eigenvalues --   -0.25883  -0.25876  -0.25762  -0.25754  -0.25574
 Alpha  occ. eigenvalues --   -0.25406  -0.25405  -0.25287  -0.25076  -0.25027
 Alpha  occ. eigenvalues --   -0.24989  -0.24988  -0.24809  -0.24768  -0.24767
 Alpha  occ. eigenvalues --   -0.24750  -0.24698  -0.24692  -0.24689  -0.24641
 Alpha  occ. eigenvalues --   -0.24235  -0.24131  -0.24098  -0.24094  -0.24080
 Alpha  occ. eigenvalues --   -0.23764  -0.23762  -0.23744  -0.23614  -0.23284
 Alpha  occ. eigenvalues --   -0.23281  -0.23046  -0.22906  -0.22868  -0.21975
 Alpha  occ. eigenvalues --   -0.21950  -0.21945  -0.21942  -0.21340  -0.21290
 Alpha  occ. eigenvalues --   -0.21288  -0.21242
 Alpha virt. eigenvalues --   -0.12848  -0.12829  -0.12209  -0.12190  -0.12020
 Alpha virt. eigenvalues --   -0.12019  -0.11983  -0.11981  -0.11605  -0.11537
 Alpha virt. eigenvalues --   -0.10313  -0.10160  -0.10153  -0.10151  -0.09990

 Mulliken charges:
               1
     1  C    0.126424
     2  C   -0.001543
     3  C    0.054835
     4  C    0.007891
     5  C    0.037046
     6  C    0.003173
     7  C    0.060013
     8  C    0.039304
     9  C    0.110176
    10  C   -0.014510
    11  C    0.023603
    12  C    0.006946
    13  C   -0.053186
    14  C    0.027956
    15  C   -0.010527
    16  C    0.024631
    17  C    0.060687
    18  C   -0.091133
    19  C    0.051675
    20  C    0.063784
    21  C    0.051760
    22  C   -0.091501
    23  C    0.060881
    24  C    0.024825
    25  C   -0.053813
    26  C    0.027596
    27  C   -0.009604
    28  C   -0.016256
    29  C    0.024874
    30  C    0.007600
    31  C    0.058944
    32  C    0.003718
    33  C    0.036799
    34  C    0.007500
    35  C    0.056102
    36  C   -0.001597
    37  C    0.126377
    38  C    0.110342
    39  C    0.038996
    40  C    0.126778
    41  C   -0.001521
    42  C    0.055527
    43  C    0.007602
    44  C    0.037328
    45  C    0.002415
    46  C    0.060404
    47  C    0.038549
    48  C    0.110246
    49  C   -0.014316
    50  C    0.024027
    51  C    0.007318
    52  C   -0.053613
    53  C    0.027903
    54  C   -0.010702
    55  C    0.024866
    56  C    0.060667
    57  C   -0.091254
    58  C    0.051692
    59  C    0.063738
    60  C    0.051794
    61  C   -0.091666
    62  C    0.061140
    63  C    0.024735
    64  C   -0.053968
    65  C    0.007783
    66  C    0.025119
    67  C   -0.016335
    68  C   -0.009776
    69  C    0.027727
    70  C    0.059475
    71  C    0.003392
    72  C    0.036958
    73  C    0.007254
    74  C    0.056512
    75  C   -0.001344
    76  C    0.126630
    77  C    0.110207
    78  C    0.038356
    79  C    0.126730
    80  C   -0.001526
    81  C    0.055515
    82  C    0.007603
    83  C    0.037390
    84  C    0.002268
    85  C    0.060452
    86  C    0.038499
    87  C    0.110332
    88  C   -0.014277
    89  C   -0.010728
    90  C    0.027924
    91  C   -0.053601
    92  C    0.007364
    93  C    0.023971
    94  C    0.024556
    95  C    0.060899
    96  C   -0.091238
    97  C    0.051672
    98  C    0.063721
    99  C    0.051859
   100  C   -0.092105
   101  C    0.061292
   102  C    0.024540
   103  C   -0.053831
   104  C    0.007654
   105  C    0.024924
   106  C   -0.016083
   107  C   -0.009528
   108  C    0.027752
   109  C    0.059232
   110  C    0.003380
   111  C    0.036928
   112  C    0.007389
   113  C    0.056166
   114  C   -0.001470
   115  C    0.126383
   116  C    0.110373
   117  C    0.038712
   118  C    0.126877
   119  C   -0.001499
   120  C    0.055777
   121  C    0.007552
   122  C    0.037326
   123  C    0.002508
   124  C    0.060320
   125  C    0.038324
   126  C    0.110284
   127  C   -0.014984
   128  C   -0.010799
   129  C    0.027950
   130  C   -0.053895
   131  C    0.007347
   132  C    0.024398
   133  C    0.024559
   134  C    0.061271
   135  C   -0.091222
   136  C    0.051605
   137  C    0.063782
   138  C    0.051947
   139  C   -0.091878
   140  C    0.060922
   141  C    0.024838
   142  C   -0.053383
   143  C    0.007428
   144  C    0.024490
   145  C   -0.015652
   146  C   -0.009920
   147  C    0.027768
   148  C    0.059443
   149  C    0.003524
   150  C    0.036828
   151  C    0.007476
   152  C    0.056075
   153  C   -0.001444
   154  C    0.126586
   155  C    0.109899
   156  C    0.038843
   157  H    0.082760
   158  H    0.024243
   159  H    0.010495
   160  H    0.023850
   161  H    0.010815
   162  H    0.087497
   163  H   -0.010113
   164  H   -0.000119
   165  H   -0.002450
   166  H    0.010496
   167  H    0.011484
   168  H    0.025548
   169  H    0.011474
   170  H   -0.002276
   171  H    0.010305
   172  H   -0.010010
   173  H   -0.000350
   174  H    0.010785
   175  H    0.023806
   176  H    0.010374
   177  H    0.024163
   178  H    0.082751
   179  H    0.087788
   180  H    0.082854
   181  H    0.024277
   182  H    0.010499
   183  H    0.023945
   184  H    0.010827
   185  H    0.087638
   186  H   -0.010571
   187  H    0.000051
   188  H   -0.002467
   189  H    0.010465
   190  H    0.011509
   191  H    0.025552
   192  H    0.011491
   193  H   -0.000346
   194  H   -0.010214
   195  H    0.010364
   196  H   -0.002182
   197  H    0.010772
   198  H    0.023860
   199  H    0.010394
   200  H    0.024212
   201  H    0.082969
   202  H    0.088144
   203  H    0.082819
   204  H    0.024242
   205  H    0.010499
   206  H    0.023941
   207  H    0.010822
   208  H    0.087748
   209  H    0.010493
   210  H   -0.002502
   211  H    0.000036
   212  H   -0.010558
   213  H    0.011490
   214  H    0.025544
   215  H    0.011486
   216  H   -0.000314
   217  H   -0.010221
   218  H    0.010273
   219  H   -0.002342
   220  H    0.010807
   221  H    0.023852
   222  H    0.010414
   223  H    0.024174
   224  H    0.082977
   225  H    0.087879
   226  H    0.082892
   227  H    0.024278
   228  H    0.010473
   229  H    0.023949
   230  H    0.010789
   231  H    0.087898
   232  H    0.010538
   233  H   -0.002135
   234  H    0.000098
   235  H   -0.010406
   236  H    0.011516
   237  H    0.025573
   238  H    0.011522
   239  H   -0.000495
   240  H   -0.009972
   241  H    0.010401
   242  H   -0.002434
   243  H    0.010859
   244  H    0.023825
   245  H    0.010381
   246  H    0.024234
   247  H    0.082762
   248  H    0.087954
   249  N   -0.256601
   250  N   -0.156622
   251  N   -0.256407
   252  N   -0.256527
   253  N   -0.156651
   254  N   -0.256662
   255  N   -0.256655
   256  N   -0.156267
   257  N   -0.256521
   258  N   -0.256567
   259  N   -0.156746
   260  N   -0.256547
   261  Pd   0.308596
   262  Pd   0.309963
 Sum of Mulliken charges =   4.00000

 Dipole moment (field-independent basis, Debye):
    X=              0.0102    Y=             -0.0224    Z=              0.0045  Tot=              0.0250
 Quadrupole moment (field-independent basis, Debye-Ang):
   XX=            -31.4205   YY=           -627.2119   ZZ=           -627.6020
   XY=             -0.0709   XZ=              0.1559   YZ=              0.0095

 Normal termination of Gaussian 16 at Sat Dec  2 17:59:03 2023.
