 Gaussian 16, Revision C.01,
 Gaussian 16:  ES64L-G16RevC.01  3-Jul-2019

 ------------------------------------------------------------------
 # SP PBE1PBE/def2svp empiricaldispersion=GD3BJ scrf=(solvent=dmso)
 ------------------------------------------------------------------

 -----
 m3_l1
 -----
 Symbolic Z-matrix:
 Charge =  6 Multiplicity = 1

                         Standard orientation:
 ---------------------------------------------------------------------
 Center     Atomic      Atomic             Coordinates (Angstroms)
 Number     Number       Type             X           Y           Z
 ---------------------------------------------------------------------
      1         46           0        1.815605   -7.107606    0.143301
      2         46           0       -7.679202    2.107986   -0.197299
      3         46           0        5.659395    5.214997   -0.141499
      4          6           0        3.082404   -6.020005    2.528901
      5          7           0        3.216905   -7.008805    1.632301
      6          6           0        4.413005   -7.605804    1.502901
      7          6           0        5.536705   -7.161903    2.185601
      8          6           0        5.441804   -6.031703    3.008801
      9          6           0        6.623704   -5.312403    3.522101
     10          6           0        7.722604   -5.957902    4.125901
     11          6           0        8.842804   -5.247801    4.557101
     12          6           0        8.846102   -3.875801    4.335101
     13          8           0        9.856302   -3.008100    4.631401
     14          6           0        9.471901   -1.783800    4.173901
     15          6           0       10.212500   -0.609000    4.227701
     16          6           0        9.649299    0.522700    3.640301
     17          6           0        8.386499    0.487999    3.008601
     18          6           0        7.834098    1.655398    2.296401
     19          6           0        7.030198    1.453098    1.163301
     20          6           0        6.474398    2.530297    0.507101
     21          7           0        6.679997    3.796898    0.904901
     22          6           0        7.461296    4.022698    1.971201
     23          6           0        8.053597    2.986499    2.681801
     24          6           0        7.648800   -0.702302    3.005001
     25          6           0        8.194701   -1.837601    3.589401
     26          6           0        7.774702   -3.213002    3.712801
     27          6           0        6.648803   -3.927503    3.322101
     28          6           0        4.159204   -5.509004    3.227701
     29          1           0        2.087904   -5.591906    2.656301
     30          1           0        4.479906   -8.423404    0.782701
     31          1           0        6.497205   -7.643003    1.995401
     32          1           0        7.690605   -7.039102    4.277501
     33          1           0        9.684904   -5.748900    5.036001
     34          1           0       11.201200   -0.579199    4.687001
     35          1           0       10.225798    1.450000    3.635601
     36          1           0        6.845899    0.453698    0.770001
     37          1           0        5.844598    2.379797   -0.371899
     38          1           0        7.601996    5.063898    2.266901
     39          1           0        8.660897    3.230299    3.554401
     40          1           0        6.656700   -0.745303    2.553201
     41          1           0        5.819402   -3.423703    2.822101
     42          1           0        4.001203   -4.674805    3.911901
     43          6           0        3.753604   -5.200105   -0.788599
     44          7           0        3.264304   -6.409805   -1.106599
     45          6           0        3.744505   -7.036905   -2.190199
     46          6           0        4.734105   -6.475704   -2.986799
     47          6           0        5.264104   -5.215104   -2.669899
     48          6           0        6.327203   -4.551303   -3.448099
     49          6           0        7.304904   -5.293302   -4.147799
     50          6           0        8.373603   -4.680801   -4.798499
     51          6           0        8.441302   -3.294401   -4.733099
     52          8           0        9.429601   -2.507900   -5.241599
     53          6           0        9.125000   -1.222501   -4.903099
     54          6           0        9.903500   -0.098800   -5.152899
     55          6           0        9.435299    1.118900   -4.661499
     56          6           0        8.209299    1.216999   -3.971299
     57          6           0        7.717398    2.475798   -3.379099
     58          6           0        6.357397    2.807997   -3.465099
     59          6           0        5.849397    3.823697   -2.677999
     60          7           0        6.615596    4.514397   -1.817999
     61          6           0        7.942196    4.303898   -1.825199
     62          6           0        8.528397    3.314699   -2.602399
     63          6           0        7.436299    0.070798   -3.749899
     64          6           0        7.908700   -1.156302   -4.201799
     65          6           0        7.464701   -2.525502   -4.075899
     66          6           0        6.402902   -3.152303   -3.435499
     67          6           0        4.740103   -4.585204   -1.529699
     68          1           0        3.348003   -4.716305    0.101601
     69          1           0        3.317506   -8.014105   -2.423199
     70          1           0        5.071405   -7.027904   -3.864699
     71          1           0        7.252304   -6.383802   -4.147799
     72          1           0        9.138004   -5.265101   -5.311999
     73          1           0       10.846800   -0.169699   -5.695699
     74          1           0       10.027498    2.020800   -4.831299
     75          1           0        5.680598    2.247797   -4.110999
     76          1           0        4.784696    4.059096   -2.698599
     77          1           0        8.538696    4.902299   -1.134399
     78          1           0        9.602197    3.141300   -2.517199
     79          1           0        6.504299    0.130797   -3.184499
     80          1           0        5.644201   -2.552603   -2.931099
     81          1           0        5.116802   -3.621704   -1.188199
     82          6           0       -0.321696   -6.302508    1.857801
     83          7           0        0.265205   -7.430607    1.426801
     84          6           0       -0.313094   -8.607208    1.707601
     85          6           0       -1.530394   -8.690209    2.373901
     86          6           0       -2.190795   -7.519009    2.773201
     87          6           0       -3.552295   -7.479610    3.339301
     88          6           0       -4.091994   -8.500311    4.152801
     89          6           0       -5.382094   -8.422312    4.680301
     90          6           0       -6.129595   -7.292412    4.365501
     91          8           0       -7.403695   -7.007013    4.764501
     92          6           0       -7.733296   -5.804814    4.208001
     93          6           0       -8.932897   -5.114615    4.344701
     94          6           0       -9.044997   -3.894315    3.676601
     95          6           0       -7.996998   -3.372014    2.886401
     96          6           0       -8.094699   -2.097314    2.151101
     97          6           0       -7.351999   -1.930113    0.971401
     98          6           0       -7.330900   -0.711513    0.330201
     99          7           0       -8.029001    0.347186    0.774501
    100          6           0       -8.789201    0.202285    1.870901
    101          6           0       -8.849200   -0.993515    2.576001
    102          6           0       -6.797497   -4.085513    2.781501
    103          6           0       -6.673196   -5.298713    3.439501
    104          6           0       -5.618896   -6.272812    3.547101
    105          6           0       -4.336296   -6.362111    3.030701
    106          6           0       -1.517096   -6.309009    2.542001
    107          1           0        0.171104   -5.357908    1.620101
    108          1           0        0.201407   -9.505208    1.359901
    109          1           0       -1.976593   -9.673609    2.528401
    110          1           0       -3.478693   -9.368910    4.402301
    111          1           0       -5.782093   -9.212112    5.317301
    112          1           0       -9.755496   -5.511415    4.940801
    113          1           0       -9.986098   -3.345115    3.751001
    114          1           0       -6.780698   -2.749613    0.537201
    115          1           0       -6.727400   -0.575713   -0.567799
    116          1           0       -9.345301    1.080585    2.203201
    117          1           0       -9.457100   -1.036015    3.480701
    118          1           0       -5.954298   -3.691512    2.213201
    119          1           0       -3.963696   -5.578611    2.370201
    120          1           0       -1.928896   -5.357409    2.876201
    121          6           0        0.011704   -5.791208   -1.755699
    122          7           0        0.411405   -6.998007   -1.325899
    123          6           0       -0.251994   -8.086608   -1.743399
    124          6           0       -1.362494   -8.001209   -2.566399
    125          6           0       -1.832495   -6.747909   -2.990399
    126          6           0       -3.068595   -6.606610   -3.784599
    127          6           0       -3.507795   -7.652810   -4.627399
    128          6           0       -4.701095   -7.580611   -5.337799
    129          6           0       -5.457596   -6.427212   -5.178799
    130          8           0       -6.667996   -6.183313   -5.747999
    131          6           0       -7.069197   -4.957813   -5.311099
    132          6           0       -8.274497   -4.339314   -5.617499
    133          6           0       -8.509198   -3.093014   -5.042299
    134          6           0       -7.554599   -2.471114   -4.211599
    135          6           0       -7.799300   -1.163114   -3.575199
    136          6           0       -6.775100   -0.206413   -3.518899
    137          6           0       -6.920501    0.905787   -2.711799
    138          7           0       -8.014901    1.106886   -1.958999
    139          6           0       -9.059201    0.274785   -2.106299
    140          6           0       -8.996800   -0.850815   -2.915999
    141          6           0       -6.343998   -3.115913   -3.924499
    142          6           0       -6.107597   -4.376912   -4.464299
    143          6           0       -5.044296   -5.355512   -4.365999
    144          6           0       -3.842796   -5.443711   -3.666799
    145          6           0       -1.086496   -5.630609   -2.581899
    146          1           0        0.588203   -4.928107   -1.416499
    147          1           0        0.107307   -9.052508   -1.383599
    148          1           0       -1.881494   -8.922209   -2.832499
    149          1           0       -2.890194   -8.545510   -4.741999
    150          1           0       -5.031494   -8.393512   -5.985199
    151          1           0       -9.004597   -4.813015   -6.274699
    152          1           0       -9.446099   -2.576215   -5.261199
    153          1           0       -5.845800   -0.343012   -4.072799
    154          1           0       -6.112402    1.632188   -2.623199
    155          1           0       -9.943001    0.483085   -1.500699
    156          1           0       -9.851999   -1.527615   -2.946299
    157          1           0       -5.615098   -2.654212   -3.255299
    158          1           0       -3.537597   -4.631710   -3.004599
    159          1           0       -1.351997   -4.622809   -2.901599
    160          6           0       -5.854202    2.510188    2.011601
    161          7           0       -7.012903    2.976887    1.518501
    162          6           0       -7.482504    4.152687    1.962001
    163          6           0       -6.774604    4.933587    2.862701
    164          6           0       -5.516604    4.509388    3.316201
    165          6           0       -4.641705    5.368289    4.135601
    166          6           0       -5.168505    6.206788    5.141501
    167          6           0       -4.355506    7.044089    5.899801
    168          6           0       -2.997806    7.034890    5.607901
    169          8           0       -2.047107    7.800091    6.210001
    170          6           0       -0.865206    7.510492    5.602101
    171          6           0        0.362293    8.092893    5.889301
    172          6           0        1.447694    7.684293    5.120801
    173          6           0        1.321194    6.711793    4.104501
    174          6           0        2.475395    6.330294    3.269501
    175          6           0        2.597696    5.032594    2.748501
    176          6           0        3.622496    4.734195    1.869801
    177          7           0        4.524995    5.652096    1.488501
    178          6           0        4.469794    6.880896    2.023001
    179          6           0        3.474294    7.249495    2.913801
    180          6           0        0.072395    6.129192    3.850401
    181          6           0       -1.028106    6.537292    4.599201
    182          6           0       -2.440905    6.219990    4.605401
    183          6           0       -3.265705    5.372290    3.871401
    184          6           0       -5.088503    3.239388    2.901601
    185          1           0       -5.521702    1.532188    1.658201
    186          1           0       -8.434204    4.491586    1.548801
    187          1           0       -7.183205    5.902587    3.152201
    188          1           0       -6.240305    6.185487    5.349301
    189          1           0       -4.764106    7.681889    6.684301
    190          1           0        0.467593    8.839293    6.677301
    191          1           0        2.427593    8.119294    5.326901
    192          1           0        1.893696    4.245294    3.019201
    193          1           0        3.721797    3.734795    1.441901
    194          1           0        5.228594    7.595896    1.700601
    195          1           0        3.455993    8.276095    3.281301
    196          1           0       -0.049405    5.396792    3.050401
    197          1           0       -2.849004    4.752790    3.075001
    198          1           0       -4.150003    2.815389    3.259801
    199          6           0       -5.635003    3.780488   -1.287999
    200          7           0       -6.968603    3.772587   -1.128699
    201          6           0       -7.664504    4.866086   -1.469499
    202          6           0       -7.045605    6.010387   -1.958099
    203          6           0       -5.651405    6.046588   -2.120799
    204          6           0       -4.902106    7.222389   -2.604799
    205          6           0       -5.505507    8.248388   -3.367499
    206          6           0       -4.777608    9.320889   -3.881799
    207          6           0       -3.412208    9.342590   -3.620799
    208          8           0       -2.503208   10.253090   -4.072999
    209          6           0       -1.278608    9.840691   -3.634399
    210          6           0       -0.049809   10.429792   -3.909499
    211          6           0        1.085992    9.791593   -3.411299
    212          6           0        1.007893    8.598693   -2.658399
    213          6           0        2.202693    7.867594   -2.195999
    214          6           0        2.128894    6.476594   -2.015099
    215          6           0        3.201895    5.787195   -1.493799
    216          7           0        4.357595    6.392496   -1.176099
    217          6           0        4.479093    7.709796   -1.392799
    218          6           0        3.432093    8.473095   -1.895099
    219          6           0       -0.248407    8.054492   -2.365099
    220          6           0       -1.385907    8.673091   -2.861499
    221          6           0       -2.790107    8.347590   -2.849699
    222          6           0       -3.530906    7.297590   -2.329899
    223          6           0       -4.958504    4.869988   -1.789099
    224          1           0       -5.091403    2.880088   -0.994699
    225          1           0       -8.746504    4.825786   -1.330999
    226          1           0       -7.667906    6.876286   -2.186299
    227          1           0       -6.571407    8.193787   -3.596099
    228          1           0       -5.256108   10.093488   -4.484699
    229          1           0        0.026891   11.336092   -4.511299
    230          1           0        2.064892   10.213494   -3.648299
    231          1           0        1.233395    5.914793   -2.277099
    232          1           0        3.131696    4.712895   -1.308199
    233          1           0        5.436393    8.165797   -1.132699
    234          1           0        3.578992    9.547595   -2.011399
    235          1           0       -0.345706    7.155992   -1.754799
    236          1           0       -3.032206    6.548090   -1.716299
    237          1           0       -3.881904    4.780589   -1.921199
 ---------------------------------------------------------------------

 SCF Done:  E(RPBE1PBE) =  -6561.00289251     A.U. after   20 cycles

 The electronic state is 1-A.
 Alpha  occ. eigenvalues --  -19.30563 -19.30488 -19.30434 -19.30423 -19.30403
 Alpha  occ. eigenvalues --  -19.30364 -14.48565 -14.48520 -14.48506 -14.48499
 Alpha  occ. eigenvalues --  -14.48488 -14.48477 -14.48465 -14.48437 -14.48426
 Alpha  occ. eigenvalues --  -14.48309 -14.48286 -14.48217 -10.32653 -10.32617
 Alpha  occ. eigenvalues --  -10.32573 -10.32562 -10.32530 -10.32529 -10.32515
 Alpha  occ. eigenvalues --  -10.32490 -10.32488 -10.32455 -10.32446 -10.32410
 Alpha  occ. eigenvalues --  -10.32119 -10.32092 -10.32091 -10.32090 -10.32080
 Alpha  occ. eigenvalues --  -10.32031 -10.32029 -10.32023 -10.32019 -10.32012
 Alpha  occ. eigenvalues --  -10.32010 -10.32008 -10.32006 -10.32005 -10.32002
 Alpha  occ. eigenvalues --  -10.31998 -10.31986 -10.31985 -10.31962 -10.31945
 Alpha  occ. eigenvalues --  -10.31915 -10.31913 -10.31877 -10.31858 -10.30636
 Alpha  occ. eigenvalues --  -10.30562 -10.30539 -10.30484 -10.30467 -10.30466
 Alpha  occ. eigenvalues --  -10.30466 -10.30462 -10.30461 -10.30455 -10.30448
 Alpha  occ. eigenvalues --  -10.30412 -10.28475 -10.28412 -10.28405 -10.28404
 Alpha  occ. eigenvalues --  -10.28387 -10.28373 -10.28343 -10.28338 -10.28321
 Alpha  occ. eigenvalues --  -10.28319 -10.28288 -10.28278 -10.28244 -10.28233
 Alpha  occ. eigenvalues --  -10.28231 -10.28229 -10.28215 -10.28205 -10.28200
 Alpha  occ. eigenvalues --  -10.28192 -10.28152 -10.28143 -10.28136 -10.28057
 Alpha  occ. eigenvalues --  -10.28055 -10.27987 -10.27971 -10.27933 -10.27932
 Alpha  occ. eigenvalues --  -10.27931 -10.27925 -10.27900 -10.27897 -10.27882
 Alpha  occ. eigenvalues --  -10.27869 -10.27825 -10.27592 -10.27552 -10.27517
 Alpha  occ. eigenvalues --  -10.27493 -10.27446 -10.27446 -10.27443 -10.27423
 Alpha  occ. eigenvalues --  -10.27416 -10.27411 -10.27408 -10.27398 -10.27394
 Alpha  occ. eigenvalues --  -10.27380 -10.27378 -10.27348 -10.27347 -10.27339
 Alpha  occ. eigenvalues --  -10.27336 -10.27319 -10.27298 -10.27289 -10.27273
 Alpha  occ. eigenvalues --  -10.27264 -10.27248 -10.27231 -10.27231 -10.27228
 Alpha  occ. eigenvalues --  -10.27224 -10.27222 -10.27213 -10.27212 -10.27193
 Alpha  occ. eigenvalues --  -10.27185 -10.27129 -10.27107 -10.27080 -10.27063
 Alpha  occ. eigenvalues --  -10.27051 -10.27047 -10.26955 -10.26943 -10.26938
 Alpha  occ. eigenvalues --  -10.26924 -10.26920 -10.26913 -10.26909 -10.26905
 Alpha  occ. eigenvalues --   -3.57186  -3.57129  -3.57075  -2.25164  -2.25107
 Alpha  occ. eigenvalues --   -2.25045  -2.24873  -2.24807  -2.24759  -2.20857
 Alpha  occ. eigenvalues --   -2.20812  -2.20758  -1.16603  -1.16592  -1.16492
 Alpha  occ. eigenvalues --   -1.16445  -1.16367  -1.16355  -1.03623  -1.03569
 Alpha  occ. eigenvalues --   -1.03517  -1.03069  -1.03027  -1.02987  -1.02776
 Alpha  occ. eigenvalues --   -1.02752  -1.02712  -1.02636  -1.02630  -1.02622
 Alpha  occ. eigenvalues --   -0.92389  -0.92349  -0.92257  -0.92236  -0.92234
 Alpha  occ. eigenvalues --   -0.92224  -0.91805  -0.91760  -0.91743  -0.91730
 Alpha  occ. eigenvalues --   -0.91721  -0.91692  -0.88042  -0.87949  -0.87912
 Alpha  occ. eigenvalues --   -0.87857  -0.87844  -0.87813  -0.87591  -0.87561
 Alpha  occ. eigenvalues --   -0.87476  -0.87449  -0.87443  -0.87411  -0.83275
 Alpha  occ. eigenvalues --   -0.83201  -0.83181  -0.83168  -0.83154  -0.83118
 Alpha  occ. eigenvalues --   -0.82966  -0.82889  -0.82881  -0.82778  -0.82734
 Alpha  occ. eigenvalues --   -0.82713  -0.82678  -0.82666  -0.82656  -0.82633
 Alpha  occ. eigenvalues --   -0.82583  -0.82542  -0.80815  -0.80769  -0.80740
 Alpha  occ. eigenvalues --   -0.80704  -0.80688  -0.80655  -0.78793  -0.78726
 Alpha  occ. eigenvalues --   -0.78653  -0.78612  -0.78604  -0.78586  -0.77382
 Alpha  occ. eigenvalues --   -0.77359  -0.77351  -0.77293  -0.77285  -0.77244
 Alpha  occ. eigenvalues --   -0.71392  -0.71244  -0.71217  -0.71194  -0.71158
 Alpha  occ. eigenvalues --   -0.71121  -0.71090  -0.71070  -0.71052  -0.71020
 Alpha  occ. eigenvalues --   -0.70965  -0.70930  -0.70214  -0.70067  -0.69924
 Alpha  occ. eigenvalues --   -0.69921  -0.69890  -0.69769  -0.69711  -0.69576
 Alpha  occ. eigenvalues --   -0.69511  -0.69488  -0.69422  -0.69397  -0.67717
 Alpha  occ. eigenvalues --   -0.67662  -0.67608  -0.67591  -0.67545  -0.67512
 Alpha  occ. eigenvalues --   -0.64931  -0.64841  -0.64759  -0.64742  -0.64736
 Alpha  occ. eigenvalues --   -0.64710  -0.63714  -0.63660  -0.63507  -0.63488
 Alpha  occ. eigenvalues --   -0.63466  -0.63461  -0.62830  -0.62778  -0.62759
 Alpha  occ. eigenvalues --   -0.62746  -0.62738  -0.62711  -0.60615  -0.60205
 Alpha  occ. eigenvalues --   -0.60131  -0.59689  -0.59663  -0.59607  -0.59111
 Alpha  occ. eigenvalues --   -0.59082  -0.58758  -0.58658  -0.58614  -0.58512
 Alpha  occ. eigenvalues --   -0.57645  -0.57501  -0.57480  -0.57304  -0.57182
 Alpha  occ. eigenvalues --   -0.57119  -0.56971  -0.56853  -0.56811  -0.56771
 Alpha  occ. eigenvalues --   -0.56744  -0.56710  -0.55188  -0.55154  -0.55133
 Alpha  occ. eigenvalues --   -0.55113  -0.55076  -0.55061  -0.54694  -0.54249
 Alpha  occ. eigenvalues --   -0.54210  -0.53940  -0.53925  -0.53746  -0.53413
 Alpha  occ. eigenvalues --   -0.53312  -0.53267  -0.53131  -0.53035  -0.52651
 Alpha  occ. eigenvalues --   -0.51948  -0.51847  -0.51818  -0.51770  -0.51685
 Alpha  occ. eigenvalues --   -0.51551  -0.51513  -0.51480  -0.51471  -0.51442
 Alpha  occ. eigenvalues --   -0.51400  -0.51380  -0.51372  -0.51313  -0.51306
 Alpha  occ. eigenvalues --   -0.51260  -0.51175  -0.51162  -0.50936  -0.50844
 Alpha  occ. eigenvalues --   -0.50603  -0.50600  -0.50376  -0.50343  -0.50098
 Alpha  occ. eigenvalues --   -0.49957  -0.49923  -0.49151  -0.49099  -0.49032
 Alpha  occ. eigenvalues --   -0.48917  -0.48886  -0.48862  -0.48840  -0.48835
 Alpha  occ. eigenvalues --   -0.48749  -0.48702  -0.48690  -0.48647  -0.48628
 Alpha  occ. eigenvalues --   -0.48581  -0.48512  -0.48490  -0.48305  -0.48249
 Alpha  occ. eigenvalues --   -0.48219  -0.48103  -0.48071  -0.47986  -0.47912
 Alpha  occ. eigenvalues --   -0.47832  -0.47728  -0.47681  -0.47641  -0.47577
 Alpha  occ. eigenvalues --   -0.47566  -0.47467  -0.47418  -0.47322  -0.47251
 Alpha  occ. eigenvalues --   -0.46963  -0.46909  -0.46693  -0.46621  -0.46523
 Alpha  occ. eigenvalues --   -0.46465  -0.46449  -0.46376  -0.46369  -0.46224
 Alpha  occ. eigenvalues --   -0.46105  -0.46056  -0.45987  -0.45587  -0.45550
 Alpha  occ. eigenvalues --   -0.45160  -0.45107  -0.44798  -0.43879  -0.43782
 Alpha  occ. eigenvalues --   -0.43765  -0.43589  -0.43572  -0.43475  -0.42654
 Alpha  occ. eigenvalues --   -0.42644  -0.42549  -0.42465  -0.42432  -0.42406
 Alpha  occ. eigenvalues --   -0.42339  -0.42300  -0.42186  -0.42154  -0.42129
 Alpha  occ. eigenvalues --   -0.42084  -0.42057  -0.41907  -0.41870  -0.41794
 Alpha  occ. eigenvalues --   -0.41739  -0.41721  -0.41514  -0.41329  -0.41201
 Alpha  occ. eigenvalues --   -0.41101  -0.41062  -0.41024  -0.40956  -0.40856
 Alpha  occ. eigenvalues --   -0.40752  -0.40701  -0.40650  -0.40562  -0.40515
 Alpha  occ. eigenvalues --   -0.40460  -0.40407  -0.40377  -0.40301  -0.40186
 Alpha  occ. eigenvalues --   -0.39002  -0.38960  -0.38900  -0.38869  -0.38855
 Alpha  occ. eigenvalues --   -0.38761  -0.38462  -0.38415  -0.38313  -0.37514
 Alpha  occ. eigenvalues --   -0.37420  -0.37394  -0.37372  -0.37347  -0.37333
 Alpha  occ. eigenvalues --   -0.37060  -0.37012  -0.36891  -0.36789  -0.36753
 Alpha  occ. eigenvalues --   -0.36728  -0.36070  -0.35889  -0.35852  -0.35802
 Alpha  occ. eigenvalues --   -0.35733  -0.35635  -0.35379  -0.35288  -0.35236
 Alpha  occ. eigenvalues --   -0.33915  -0.33684  -0.33607  -0.33585  -0.33396
 Alpha  occ. eigenvalues --   -0.33361  -0.33255  -0.33061  -0.32832  -0.32577
 Alpha  occ. eigenvalues --   -0.32491  -0.32458  -0.32382  -0.32329  -0.32320
 Alpha  occ. eigenvalues --   -0.32233  -0.32172  -0.32093  -0.32025  -0.31957
 Alpha  occ. eigenvalues --   -0.31810  -0.31748  -0.31657  -0.31614  -0.31576
 Alpha  occ. eigenvalues --   -0.31524  -0.31477  -0.29457  -0.29450  -0.29428
 Alpha  occ. eigenvalues --   -0.29384  -0.29231  -0.29211  -0.29073  -0.29037
 Alpha  occ. eigenvalues --   -0.28989  -0.26451  -0.26445  -0.26437  -0.26412
 Alpha  occ. eigenvalues --   -0.26396  -0.26378  -0.26365  -0.26356  -0.26329
 Alpha  occ. eigenvalues --   -0.26312  -0.26279  -0.26250
 Alpha virt. eigenvalues --   -0.10141  -0.09913  -0.09636  -0.09503  -0.09246
 Alpha virt. eigenvalues --   -0.09076  -0.08899  -0.08838  -0.08753  -0.08667
 Alpha virt. eigenvalues --   -0.08383  -0.08319  -0.07433  -0.07354  -0.07291

 Mulliken charges:
               1
     1  Pd   0.510432
     2  Pd   0.512106
     3  Pd   0.510489
     4  C    0.136016
     5  N   -0.311945
     6  C    0.142309
     7  C   -0.016322
     8  C    0.034704
     9  C   -0.001140
    10  C   -0.016135
    11  C   -0.077987
    12  C    0.211423
    13  O   -0.268237
    14  C    0.212307
    15  C   -0.076051
    16  C   -0.027306
    17  C    0.024312
    18  C    0.070148
    19  C   -0.053925
    20  C    0.137657
    21  N   -0.335518
    22  C    0.155180
    23  C   -0.048110
    24  C   -0.058224
    25  C    0.016953
    26  C    0.018812
    27  C   -0.045527
    28  C   -0.035004
    29  H    0.079231
    30  H    0.109332
    31  H    0.067512
    32  H    0.051322
    33  H    0.049277
    34  H    0.049067
    35  H    0.051990
    36  H    0.064506
    37  H    0.109952
    38  H    0.104461
    39  H    0.067515
    40  H    0.039998
    41  H    0.041972
    42  H    0.068034
    43  C    0.138805
    44  N   -0.335505
    45  C    0.153648
    46  C   -0.053553
    47  C    0.075069
    48  C    0.030227
    49  C   -0.032228
    50  C   -0.074061
    51  C    0.210783
    52  O   -0.266896
    53  C    0.209569
    54  C   -0.076301
    55  C   -0.018424
    56  C    0.002060
    57  C    0.032304
    58  C   -0.033582
    59  C    0.132706
    60  N   -0.315316
    61  C    0.138039
    62  C   -0.015567
    63  C   -0.045019
    64  C    0.019138
    65  C    0.017397
    66  C   -0.058599
    67  C   -0.056228
    68  H    0.112760
    69  H    0.103278
    70  H    0.067508
    71  H    0.052219
    72  H    0.049061
    73  H    0.049461
    74  H    0.052075
    75  H    0.068227
    76  H    0.082931
    77  H    0.110508
    78  H    0.068218
    79  H    0.042261
    80  H    0.039630
    81  H    0.063584
    82  C    0.132716
    83  N   -0.326755
    84  C    0.147999
    85  C   -0.044069
    86  C    0.066551
    87  C    0.028876
    88  C   -0.027411
    89  C   -0.078973
    90  C    0.218127
    91  O   -0.270576
    92  C    0.218243
    93  C   -0.078375
    94  C   -0.029265
    95  C    0.030057
    96  C    0.074540
    97  C   -0.057847
    98  C    0.146469
    99  N   -0.336652
   100  C    0.154522
   101  C   -0.048457
   102  C   -0.063063
   103  C    0.017314
   104  C    0.017546
   105  C   -0.063934
   106  C   -0.055060
   107  H    0.108881
   108  H    0.099201
   109  H    0.067701
   110  H    0.052314
   111  H    0.049648
   112  H    0.049574
   113  H    0.052410
   114  H    0.064921
   115  H    0.097502
   116  H    0.105018
   117  H    0.066982
   118  H    0.040780
   119  H    0.041729
   120  H    0.067807
   121  C    0.149571
   122  N   -0.323296
   123  C    0.154671
   124  C   -0.054763
   125  C    0.070551
   126  C    0.032636
   127  C   -0.039826
   128  C   -0.069908
   129  C    0.205717
   130  O   -0.263292
   131  C    0.204983
   132  C   -0.074042
   133  C   -0.017884
   134  C    0.004248
   135  C    0.026656
   136  C   -0.030256
   137  C    0.131471
   138  N   -0.317686
   139  C    0.132041
   140  C   -0.013910
   141  C   -0.045223
   142  C    0.020279
   143  C    0.018193
   144  C   -0.052100
   145  C   -0.060475
   146  H    0.105212
   147  H    0.100036
   148  H    0.067254
   149  H    0.053507
   150  H    0.048719
   151  H    0.049330
   152  H    0.052329
   153  H    0.068315
   154  H    0.086387
   155  H    0.112256
   156  H    0.069006
   157  H    0.041880
   158  H    0.038000
   159  H    0.065268
   160  C    0.137750
   161  N   -0.326110
   162  C    0.148868
   163  C   -0.036490
   164  C    0.054334
   165  C    0.013574
   166  C   -0.026713
   167  C   -0.072598
   168  C    0.205665
   169  O   -0.263307
   170  C    0.205910
   171  C   -0.071228
   172  C   -0.033320
   173  C    0.023256
   174  C    0.062148
   175  C   -0.053240
   176  C    0.142930
   177  N   -0.324828
   178  C    0.152104
   179  C   -0.045909
   180  C   -0.050310
   181  C    0.018319
   182  C    0.018251
   183  C   -0.047067
   184  C   -0.046257
   185  H    0.108879
   186  H    0.105198
   187  H    0.067862
   188  H    0.052683
   189  H    0.049045
   190  H    0.048921
   191  H    0.053274
   192  H    0.065718
   193  H    0.107009
   194  H    0.102880
   195  H    0.067901
   196  H    0.039081
   197  H    0.039797
   198  H    0.066165
   199  C    0.134635
   200  N   -0.332966
   201  C    0.154484
   202  C   -0.059146
   203  C    0.084656
   204  C    0.042853
   205  C   -0.037202
   206  C   -0.074468
   207  C    0.216193
   208  O   -0.268424
   209  C    0.214780
   210  C   -0.075759
   211  C   -0.030178
   212  C    0.032603
   213  C    0.072777
   214  C   -0.058509
   215  C    0.135013
   216  N   -0.328974
   217  C    0.151140
   218  C   -0.049883
   219  C   -0.062139
   220  C    0.018588
   221  C    0.018825
   222  C   -0.065081
   223  C   -0.061825
   224  H    0.108397
   225  H    0.100228
   226  H    0.068364
   227  H    0.052352
   228  H    0.049663
   229  H    0.049871
   230  H    0.052732
   231  H    0.066633
   232  H    0.106940
   233  H    0.100439
   234  H    0.068295
   235  H    0.041142
   236  H    0.039380
   237  H    0.064804
 Sum of Mulliken charges =   6.00000

 Dipole moment (field-independent basis, Debye):
    X=             -0.9921    Y=              1.2564    Z=             -0.6272  Tot=              1.7194
 Quadrupole moment (field-independent basis, Debye-Ang):
   XX=            162.2055   YY=             64.8444   ZZ=           -690.2441
   XY=              1.9439   XZ=              1.2334   YZ=              4.1557

 Normal termination of Gaussian 16 at Fri Jun  2 08:11:46 2023.
