 Gaussian 16, Revision C.01,
 Gaussian 16:  ES64L-G16RevC.01  3-Jul-2019

 ----------------------------------------------------------------------
 #P PBE1PBE/Def2SVP SP SCF=(YQC,MaxCycle=900) int=(Grid=Superfinegrid)
 EmpiricalDispersion=GD3BJ SCRF=(PCM,Solvent=DiMethylSulfoxide)
 ----------------------------------------------------------------------

 --------
 _s_5a1_c
 --------
 Symbolic Z-matrix:
 Charge =  4 Multiplicity = 1

                         Standard orientation:
 ---------------------------------------------------------------------
 Center     Atomic      Atomic             Coordinates (Angstroms)
 Number     Number       Type             X           Y           Z
 ---------------------------------------------------------------------
      1         46           0        5.764236   -0.346134    0.004823
      2         46           0       -5.764186    0.345137    0.002267
      3          6           0       -1.040301    4.874445    4.293278
      4          6           0       -2.231083    4.771314    4.108207
      5          6           0       -3.608999    4.683808    3.832966
      6          6           0       -4.487530    5.639798    4.313077
      7          6           0       -5.849616    5.594288    3.994573
      8          6           0       -6.351849    4.609839    3.183037
      9          6           0       -5.490509    3.612182    2.678481
     10          6           0       -5.940921    2.587937    1.825038
     11          7           0       -5.145208    1.645590    1.364912
     12          6           0       -3.835855    1.627181    1.718495
     13          6           0       -3.293075    2.591086    2.519818
     14          6           0       -4.107158    3.628802    3.017135
     15          1           0       -4.112807    6.436060    4.938251
     16          1           0       -6.503748    6.356142    4.390016
     17          1           0       -7.399103    4.588832    2.926895
     18          1           0       -6.983157    2.554873    1.515420
     19          1           0       -3.251929    0.798887    1.322805
     20          1           0       -2.247567    2.575691    2.782975
     21          6           0        0.351679    5.029713    4.452507
     22          6           0        0.854479    6.207966    5.058054
     23          6           0        2.200120    6.409900    5.155308
     24          6           0        3.115130    5.456961    4.655781
     25          6           0        4.510300    5.655768    4.700077
     26          6           0        5.370739    4.724088    4.193950
     27          6           0        4.884354    3.525106    3.622509
     28          6           0        3.525340    3.306203    3.577254
     29          6           0        2.615532    4.260026    4.075178
     30          6           0        1.223841    4.067965    3.986794
     31          1           0        0.158329    6.943845    5.431935
     32          1           0        2.585094    7.311221    5.609966
     33          1           0        4.890634    6.568384    5.135163
     34          1           0        6.432219    4.916742    4.208077
     35          1           0        3.127658    2.383376    3.185160
     36          1           0        0.842865    3.164045    3.537383
     37          6           0        5.830973    2.538960    3.084567
     38          6           0        7.085181    2.326753    3.667593
     39          6           0        7.954456    1.402487    3.113302
     40          6           0        7.554924    0.687377    1.997295
     41          7           0        6.352226    0.873447    1.449613
     42          6           0        5.514405    1.773402    1.962203
     43          1           0        7.368216    2.869683    4.555595
     44          1           0        8.926675    1.233394    3.547230
     45          1           0        8.201773   -0.049063    1.525041
     46          1           0        4.566184    1.897234    1.442796
     47          6           0       -1.043519    4.841110   -4.322117
     48          6           0       -2.235822    4.722221   -4.157015
     49          6           0       -3.616936    4.618451   -3.903889
     50          6           0       -4.501855    5.549226   -4.420237
     51          6           0       -5.868225    5.489518   -4.123201
     52          6           0       -6.368465    4.516820   -3.296502
     53          6           0       -5.500472    3.544792   -2.754735
     54          6           0       -5.948681    2.534833   -1.883313
     55          7           0       -5.146620    1.615485   -1.389195
     56          6           0       -3.832193    1.607272   -1.724041
     57          6           0       -3.291137    2.560296   -2.539380
     58          6           0       -4.112340    3.574409   -3.072417
     59          1           0       -4.128983    6.336815   -5.057552
     60          1           0       -6.527407    6.231484   -4.547188
     61          1           0       -7.419234    4.485570   -3.056482
     62          1           0       -6.994838    2.494193   -1.588013
     63          1           0       -3.242514    0.796481   -1.301270
     64          1           0       -2.241716    2.554183   -2.786590
     65          6           0        0.348577    5.016761   -4.456876
     66          6           0        0.844465    6.208945   -5.040290
     67          6           0        2.188415    6.431253   -5.112303
     68          6           0        3.108622    5.485613   -4.608617
     69          6           0        4.501326    5.704823   -4.626881
     70          6           0        5.366591    4.779128   -4.118129
     71          6           0        4.888106    3.566125   -3.570040
     72          6           0        3.531876    3.327618   -3.549832
     73          6           0        2.616678    4.274577   -4.050883
     74          6           0        1.226615    4.061930   -3.987823
     75          1           0        0.144092    6.939309   -5.417340
     76          1           0        2.567995    7.343457   -5.549672
     77          1           0        4.875539    6.628165   -5.044230
     78          1           0        6.425282    4.986936   -4.112023
     79          1           0        3.141012    2.394182   -3.176044
     80          1           0        0.851338    3.147096   -3.556235
     81          6           0        5.839788    2.585932   -3.030155
     82          6           0        7.105669    2.398725   -3.596104
     83          6           0        7.978514    1.478073   -3.041468
     84          6           0        7.571072    0.741491   -1.942218
     85          7           0        6.357736    0.904238   -1.410857
     86          6           0        5.516104    1.800468   -1.923602
     87          1           0        7.395339    2.958098   -4.471657
     88          1           0        8.959569    1.328079   -3.462199
     89          1           0        8.220202    0.006784   -1.470279
     90          1           0        4.558417    1.904350   -1.417563
     91          6           0        1.046232   -4.841132   -4.323387
     92          6           0        2.238521   -4.722315   -4.157717
     93          6           0        3.619460   -4.618441   -3.904042
     94          6           0        4.504765   -5.548930   -4.420390
     95          6           0        5.870937   -5.489205   -4.122647
     96          6           0        6.370702   -4.516881   -3.295207
     97          6           0        5.502284   -3.545156   -2.753428
     98          6           0        5.950067   -2.535719   -1.881104
     99          7           0        5.147640   -1.616544   -1.387082
    100          6           0        3.833406   -1.608145   -1.722760
    101          6           0        3.292904   -2.560847   -2.538787
    102          6           0        4.114414   -3.574736   -3.071898
    103          1           0        4.132360   -6.336173   -5.058209
    104          1           0        6.530486   -6.230743   -4.546768
    105          1           0        7.421483   -4.485550   -3.054662
    106          1           0        6.995995   -2.495148   -1.585231
    107          1           0        3.243502   -0.797646   -1.299967
    108          1           0        2.243536   -2.554727   -2.786568
    109          6           0       -0.345766   -5.017039   -4.458435
    110          6           0       -0.841370   -6.209317   -5.042091
    111          6           0       -2.185246   -6.431964   -5.113998
    112          6           0       -3.105675   -5.486559   -4.610163
    113          6           0       -4.498288   -5.706330   -4.628247
    114          6           0       -5.363863   -4.780764   -4.119508
    115          6           0       -4.885750   -3.567590   -3.571606
    116          6           0       -3.529480   -3.328714   -3.551431
    117          6           0       -2.614058   -4.275488   -4.052455
    118          6           0       -1.224042   -4.062428   -3.989418
    119          1           0       -0.140763   -6.939391   -5.419160
    120          1           0       -2.564547   -7.344199   -5.551541
    121          1           0       -4.872263   -6.629762   -5.045570
    122          1           0       -6.422464   -4.989017   -4.113376
    123          1           0       -3.138944   -2.395172   -3.177610
    124          1           0       -0.849032   -3.147536   -3.557621
    125          6           0       -5.837688   -2.587498   -3.032117
    126          6           0       -7.103416   -2.400610   -3.598656
    127          6           0       -7.976661   -1.480022   -3.044570
    128          6           0       -7.569681   -0.743134   -1.945396
    129          7           0       -6.356520   -0.905476   -1.413507
    130          6           0       -5.514533   -1.801746   -1.925749
    131          1           0       -7.392593   -2.960336   -4.474202
    132          1           0       -8.957541   -1.330219   -3.465796
    133          1           0       -8.219061   -0.008273   -1.473962
    134          1           0       -4.556985   -1.905204   -1.419246
    135          6           0        1.037564   -4.872941    4.296166
    136          6           0        2.228416   -4.770314    4.110721
    137          6           0        3.606424   -4.683295    3.835667
    138          6           0        4.484491   -5.639354    4.316323
    139          6           0        5.846764   -5.594305    3.998323
    140          6           0        6.349424   -4.610215    3.186697
    141          6           0        5.488553   -3.612464    2.681474
    142          6           0        5.939441   -2.588615    1.828021
    143          7           0        5.144153   -1.646187    1.367267
    144          6           0        3.834626   -1.627472    1.720205
    145          6           0        3.291297   -2.591032    2.521602
    146          6           0        4.104974   -3.628682    3.019567
    147          1           0        4.109336   -6.435348    4.941670
    148          1           0        6.500560   -6.356098    4.394267
    149          1           0        7.396753   -4.589476    2.930946
    150          1           0        6.981829   -2.555803    1.518814
    151          1           0        3.250946   -0.799245    1.323940
    152          1           0        2.245757   -2.575383    2.784272
    153          6           0       -0.354325   -5.027758    4.455687
    154          6           0       -0.857486   -6.204966    5.062822
    155          6           0       -2.203044   -6.406501    5.160411
    156          6           0       -3.117841   -5.454078    4.659704
    157          6           0       -4.513166   -5.652478    4.704162
    158          6           0       -5.373348   -4.721292    4.196831
    159          6           0       -4.886767   -3.523170    3.623692
    160          6           0       -3.527761   -3.304687    3.578210
    161          6           0       -2.618112   -4.257933    4.077480
    162          6           0       -1.226332   -4.066338    3.988846
    163          1           0       -0.161487   -6.940658    5.437615
    164          1           0       -2.588377   -7.307162    5.616236
    165          1           0       -4.893638   -6.564435    5.140524
    166          1           0       -6.434858   -4.913768    4.211063
    167          1           0       -3.129737   -2.382394    3.184930
    168          1           0       -0.845290   -3.163119    3.538308
    169          6           0       -5.833140   -2.537624    3.084100
    170          6           0       -7.087616   -2.324764    3.666163
    171          6           0       -7.956636   -1.401223    3.110246
    172          6           0       -7.556378   -0.687319    1.993678
    173          7           0       -6.353424   -0.873982    1.447066
    174          6           0       -5.515806   -1.773391    1.961089
    175          1           0       -7.371334   -2.866685    4.554572
    176          1           0       -8.929202   -1.231707    3.543307
    177          1           0       -8.202918    0.048535    1.520157
    178          1           0       -4.567466   -1.897817    1.442282
 ---------------------------------------------------------------------

 SCF Done:  E(RPBE1PBE) =  -4686.83015875     a.u. after   43 cycles
 SCF Done:  E(RPBE1PBE) =  -4686.83017710     A.U. after    9 cycles

 The electronic state is 1-A.
 Alpha  occ. eigenvalues --  -14.48639 -14.48639 -14.48634 -14.48634 -14.48541
 Alpha  occ. eigenvalues --  -14.48541 -14.48532 -14.48532 -10.32527 -10.32526
 Alpha  occ. eigenvalues --  -10.32524 -10.32523 -10.31867 -10.31866 -10.31865
 Alpha  occ. eigenvalues --  -10.31864 -10.31614 -10.31614 -10.31612 -10.31611
 Alpha  occ. eigenvalues --  -10.31211 -10.31211 -10.31206 -10.31205 -10.29495
 Alpha  occ. eigenvalues --  -10.29494 -10.29493 -10.29493 -10.29367 -10.29367
 Alpha  occ. eigenvalues --  -10.29366 -10.29366 -10.29217 -10.29217 -10.29217
 Alpha  occ. eigenvalues --  -10.29216 -10.28907 -10.28907 -10.28904 -10.28904
 Alpha  occ. eigenvalues --  -10.28754 -10.28754 -10.28753 -10.28752 -10.28149
 Alpha  occ. eigenvalues --  -10.28149 -10.28149 -10.28149 -10.27951 -10.27951
 Alpha  occ. eigenvalues --  -10.27949 -10.27948 -10.27935 -10.27935 -10.27934
 Alpha  occ. eigenvalues --  -10.27934 -10.27564 -10.27563 -10.27562 -10.27562
 Alpha  occ. eigenvalues --  -10.27462 -10.27462 -10.27461 -10.27460 -10.27380
 Alpha  occ. eigenvalues --  -10.27379 -10.27379 -10.27378 -10.26821 -10.26821
 Alpha  occ. eigenvalues --  -10.26820 -10.26819 -10.26756 -10.26756 -10.26756
 Alpha  occ. eigenvalues --  -10.26755 -10.26637 -10.26637 -10.26636 -10.26636
 Alpha  occ. eigenvalues --  -10.26377 -10.26377 -10.26376 -10.26376 -10.26285
 Alpha  occ. eigenvalues --  -10.26285 -10.26285 -10.26284 -10.26228 -10.26227
 Alpha  occ. eigenvalues --  -10.26227 -10.26226 -10.25982 -10.25981 -10.25981
 Alpha  occ. eigenvalues --  -10.25981 -10.25931 -10.25931 -10.25930 -10.25930
 Alpha  occ. eigenvalues --  -10.25891 -10.25890 -10.25889 -10.25889 -10.25685
 Alpha  occ. eigenvalues --  -10.25685 -10.25685 -10.25684 -10.25660 -10.25660
 Alpha  occ. eigenvalues --  -10.25659 -10.25659  -3.57332  -3.57332  -2.25252
 Alpha  occ. eigenvalues --   -2.25252  -2.25235  -2.25235  -2.21045  -2.21045
 Alpha  occ. eigenvalues --   -1.04100  -1.04099  -1.03415  -1.03414  -1.03344
 Alpha  occ. eigenvalues --   -1.03343  -1.03204  -1.03203  -0.92981  -0.92954
 Alpha  occ. eigenvalues --   -0.92953  -0.92953  -0.92816  -0.92786  -0.92751
 Alpha  occ. eigenvalues --   -0.92748  -0.89519  -0.89506  -0.89477  -0.89474
 Alpha  occ. eigenvalues --   -0.86573  -0.86551  -0.86494  -0.86489  -0.85521
 Alpha  occ. eigenvalues --   -0.85505  -0.85449  -0.85433  -0.84201  -0.84118
 Alpha  occ. eigenvalues --   -0.84096  -0.84051  -0.83733  -0.83673  -0.83609
 Alpha  occ. eigenvalues --   -0.83605  -0.81817  -0.81771  -0.81764  -0.81696
 Alpha  occ. eigenvalues --   -0.81396  -0.81387  -0.81302  -0.81295  -0.79961
 Alpha  occ. eigenvalues --   -0.79906  -0.79896  -0.79827  -0.77093  -0.77065
 Alpha  occ. eigenvalues --   -0.77048  -0.77010  -0.75511  -0.75510  -0.75497
 Alpha  occ. eigenvalues --   -0.75486  -0.71541  -0.71528  -0.71344  -0.71207
 Alpha  occ. eigenvalues --   -0.70935  -0.70920  -0.70809  -0.70654  -0.69567
 Alpha  occ. eigenvalues --   -0.69449  -0.69411  -0.69366  -0.69143  -0.69087
 Alpha  occ. eigenvalues --   -0.69005  -0.68964  -0.68211  -0.68191  -0.68170
 Alpha  occ. eigenvalues --   -0.68127  -0.66085  -0.66077  -0.66043  -0.65994
 Alpha  occ. eigenvalues --   -0.64979  -0.64913  -0.64882  -0.64829  -0.63809
 Alpha  occ. eigenvalues --   -0.63807  -0.63803  -0.63802  -0.60888  -0.60529
 Alpha  occ. eigenvalues --   -0.60353  -0.60166  -0.59914  -0.59572  -0.59550
 Alpha  occ. eigenvalues --   -0.59380  -0.58352  -0.58308  -0.58016  -0.58002
 Alpha  occ. eigenvalues --   -0.57385  -0.57341  -0.57306  -0.57298  -0.56625
 Alpha  occ. eigenvalues --   -0.56589  -0.56478  -0.56463  -0.55760  -0.55750
 Alpha  occ. eigenvalues --   -0.55697  -0.55682  -0.55224  -0.55203  -0.55175
 Alpha  occ. eigenvalues --   -0.55156  -0.53839  -0.53821  -0.53732  -0.53699
 Alpha  occ. eigenvalues --   -0.52548  -0.52472  -0.52393  -0.52317  -0.51775
 Alpha  occ. eigenvalues --   -0.51743  -0.51651  -0.51620  -0.51571  -0.51541
 Alpha  occ. eigenvalues --   -0.50462  -0.50443  -0.50411  -0.50344  -0.49766
 Alpha  occ. eigenvalues --   -0.49703  -0.49690  -0.49560  -0.49208  -0.49141
 Alpha  occ. eigenvalues --   -0.49136  -0.49046  -0.48974  -0.48916  -0.48901
 Alpha  occ. eigenvalues --   -0.48827  -0.48618  -0.48604  -0.48597  -0.48520
 Alpha  occ. eigenvalues --   -0.48095  -0.48093  -0.48036  -0.48030  -0.47814
 Alpha  occ. eigenvalues --   -0.47796  -0.47497  -0.47444  -0.47276  -0.47239
 Alpha  occ. eigenvalues --   -0.47050  -0.47038  -0.46586  -0.46555  -0.45588
 Alpha  occ. eigenvalues --   -0.45531  -0.45475  -0.45462  -0.45342  -0.45340
 Alpha  occ. eigenvalues --   -0.45300  -0.45285  -0.45044  -0.44998  -0.44700
 Alpha  occ. eigenvalues --   -0.44675  -0.44426  -0.44252  -0.44248  -0.44168
 Alpha  occ. eigenvalues --   -0.43775  -0.43624  -0.43500  -0.43468  -0.43257
 Alpha  occ. eigenvalues --   -0.43214  -0.42707  -0.42628  -0.42557  -0.42519
 Alpha  occ. eigenvalues --   -0.42341  -0.42123  -0.41504  -0.41434  -0.41411
 Alpha  occ. eigenvalues --   -0.41312  -0.40560  -0.40430  -0.40377  -0.40339
 Alpha  occ. eigenvalues --   -0.40134  -0.39669  -0.39668  -0.39658  -0.39561
 Alpha  occ. eigenvalues --   -0.39531  -0.39458  -0.39395  -0.38604  -0.38279
 Alpha  occ. eigenvalues --   -0.38268  -0.38260  -0.38252  -0.37850  -0.37237
 Alpha  occ. eigenvalues --   -0.37215  -0.37130  -0.36936  -0.36904  -0.36778
 Alpha  occ. eigenvalues --   -0.36424  -0.36327  -0.36108  -0.36069  -0.35972
 Alpha  occ. eigenvalues --   -0.35963  -0.34941  -0.34732  -0.34682  -0.34136
 Alpha  occ. eigenvalues --   -0.34108  -0.34091  -0.34000  -0.33896  -0.33585
 Alpha  occ. eigenvalues --   -0.33551  -0.33445  -0.33018  -0.32554  -0.32546
 Alpha  occ. eigenvalues --   -0.32077  -0.31975  -0.31775  -0.31749  -0.31640
 Alpha  occ. eigenvalues --   -0.31598  -0.31171  -0.31150  -0.31134  -0.31126
 Alpha  occ. eigenvalues --   -0.30903  -0.30891  -0.30798  -0.30757  -0.28892
 Alpha  occ. eigenvalues --   -0.28864  -0.28718  -0.28646  -0.28592  -0.28384
 Alpha  occ. eigenvalues --   -0.25992  -0.25932  -0.25926  -0.25822  -0.24170
 Alpha  occ. eigenvalues --   -0.24153  -0.24096  -0.24078
 Alpha virt. eigenvalues --   -0.10345  -0.10304  -0.09912  -0.09896  -0.08194
 Alpha virt. eigenvalues --   -0.08184  -0.08113  -0.07932  -0.07672  -0.07578
 Alpha virt. eigenvalues --   -0.07404  -0.07235  -0.06979  -0.06863  -0.06779

 Mulliken charges:
               1
     1  Pd   0.495603
     2  Pd   0.495569
     3  C    0.009625
     4  C   -0.064209
     5  C   -0.021777
     6  C    0.019318
     7  C   -0.001231
     8  C    0.019855
     9  C   -0.059628
    10  C    0.179182
    11  N   -0.322292
    12  C    0.151259
    13  C   -0.013340
    14  C    0.070519
    15  H    0.043830
    16  H    0.054547
    17  H    0.043962
    18  H    0.088783
    19  H    0.091579
    20  H    0.049459
    21  C   -0.064414
    22  C    0.023439
    23  C   -0.010521
    24  C    0.005878
    25  C   -0.013883
    26  C   -0.016328
    27  C    0.043345
    28  C   -0.047903
    29  C    0.033917
    30  C   -0.022407
    31  H    0.032432
    32  H    0.029322
    33  H    0.027900
    34  H    0.034381
    35  H    0.024386
    36  H    0.024673
    37  C   -0.029081
    38  C    0.058364
    39  C   -0.030684
    40  C    0.146987
    41  N   -0.308598
    42  C    0.149135
    43  H    0.062945
    44  H    0.066994
    45  H    0.104962
    46  H    0.087387
    47  C    0.009535
    48  C   -0.063942
    49  C   -0.021934
    50  C    0.019278
    51  C   -0.001253
    52  C    0.019949
    53  C   -0.059711
    54  C    0.179534
    55  N   -0.322377
    56  C    0.151678
    57  C   -0.013299
    58  C    0.070471
    59  H    0.043870
    60  H    0.054565
    61  H    0.043954
    62  H    0.088571
    63  H    0.091378
    64  H    0.049385
    65  C   -0.064583
    66  C    0.023385
    67  C   -0.010596
    68  C    0.005812
    69  C   -0.013840
    70  C   -0.016304
    71  C    0.043244
    72  C   -0.047981
    73  C    0.033878
    74  C   -0.022200
    75  H    0.032470
    76  H    0.029352
    77  H    0.027873
    78  H    0.034422
    79  H    0.024451
    80  H    0.024598
    81  C   -0.028990
    82  C    0.058408
    83  C   -0.030497
    84  C    0.146469
    85  N   -0.308517
    86  C    0.149057
    87  H    0.062963
    88  H    0.066950
    89  H    0.105349
    90  H    0.087499
    91  C    0.009481
    92  C   -0.063859
    93  C   -0.021972
    94  C    0.019393
    95  C   -0.001248
    96  C    0.019893
    97  C   -0.059809
    98  C    0.179631
    99  N   -0.322426
   100  C    0.151751
   101  C   -0.013340
   102  C    0.070477
   103  H    0.043802
   104  H    0.054551
   105  H    0.044037
   106  H    0.088529
   107  H    0.091331
   108  H    0.049432
   109  C   -0.064658
   110  C    0.023446
   111  C   -0.010585
   112  C    0.005841
   113  C   -0.013875
   114  C   -0.016366
   115  C    0.043201
   116  C   -0.047904
   117  C    0.033886
   118  C   -0.022207
   119  H    0.032448
   120  H    0.029360
   121  H    0.027876
   122  H    0.034432
   123  H    0.024435
   124  H    0.024629
   125  C   -0.028989
   126  C    0.058413
   127  C   -0.030474
   128  C    0.146480
   129  N   -0.308573
   130  C    0.149020
   131  H    0.062991
   132  H    0.066957
   133  H    0.105364
   134  H    0.087545
   135  C    0.009558
   136  C   -0.064114
   137  C   -0.021743
   138  C    0.019249
   139  C   -0.001178
   140  C    0.019887
   141  C   -0.059566
   142  C    0.179131
   143  N   -0.322305
   144  C    0.151269
   145  C   -0.013309
   146  C    0.070528
   147  H    0.043867
   148  H    0.054516
   149  H    0.043940
   150  H    0.088794
   151  H    0.091583
   152  H    0.049403
   153  C   -0.064419
   154  C    0.023409
   155  C   -0.010537
   156  C    0.005777
   157  C   -0.013835
   158  C   -0.016336
   159  C    0.043455
   160  C   -0.048032
   161  C    0.033869
   162  C   -0.022347
   163  H    0.032467
   164  H    0.029344
   165  H    0.027896
   166  H    0.034372
   167  H    0.024443
   168  H    0.024603
   169  C   -0.028977
   170  C    0.058311
   171  C   -0.030709
   172  C    0.146954
   173  N   -0.308566
   174  C    0.149187
   175  H    0.062949
   176  H    0.067009
   177  H    0.104945
   178  H    0.087342
 Sum of Mulliken charges =   4.00000

 Dipole moment (field-independent basis, Debye):
    X=              0.0003    Y=             -0.0028    Z=              0.0214  Tot=              0.0216
 Quadrupole moment (field-independent basis, Debye-Ang):
   XX=            150.6978   YY=           -408.7745   ZZ=           -492.3733
   XY=            -45.9999   XZ=              0.0911   YZ=             -0.0122

 Normal termination of Gaussian 16 at Fri Feb 26 15:11:25 2021.
