   * xtb version 6.3.1 (2faf18d) compiled by 'ehlert@majestix' on 2020-06-10
          program call               : /home/atarzia/software/xtb-6.3.1/bin/xtb input_structure_1.xyz --gfn 2 --opt tight --parallel 6 --etemp 300 --chrg 2 --uhf 0
          number of atoms            :                    43
          number of electrons        :                   126
          charge                     :                     2
          spin                       :                   0.0

   ID    Z sym.   atoms
    1   30 Zn     1
    2    6 C      2-4, 7-9, 16-18, 21-23, 30-32, 35-37
    3    1 H      5, 10-12, 14, 19, 24-26, 28, 29, 33, 38-40, 42, 43
    4    7 N      6, 13, 20, 27, 34, 41
    5   35 Br     15
########################################################################
[WARNING] Please study the warnings concerning your input carefully
-1- prog_main_parseArguments: Process number higher than OMP_NUM_THREADS, I hope you know what you are doing.
########################################################################

          :  Hamiltonian                  GFN2-xTB          :
 * total energy  :   -68.4741556 Eh     change       -0.1226752E-08 Eh
 * total energy  :   -68.5114171 Eh     change       -0.3726150E-01 Eh
 * total energy  :   -68.5194032 Eh     change       -0.7986014E-02 Eh
 * total energy  :   -68.5204587 Eh     change       -0.1055578E-02 Eh
 * total energy  :   -68.5208066 Eh     change       -0.3479092E-03 Eh
 * total energy  :   -68.5209586 Eh     change       -0.1519564E-03 Eh
 * total energy  :   -68.5210979 Eh     change       -0.1392700E-03 Eh
 * total energy  :   -68.5212059 Eh     change       -0.1080458E-03 Eh
 * total energy  :   -68.5212803 Eh     change       -0.7432895E-04 Eh
 * total energy  :   -68.5213416 Eh     change       -0.6134276E-04 Eh
 * total energy  :   -68.5217767 Eh     change        0.2050706E-05 Eh
 * total energy  :   -68.5217798 Eh     change       -0.3152571E-05 Eh
 * total energy  :   -68.5217781 Eh     change        0.1705876E-05 Eh
 * total energy  :   -68.5217808 Eh     change       -0.2610211E-05 Eh
 * total energy  :   -68.5217794 Eh     change        0.1329977E-05 Eh
 * total energy  :   -68.5217815 Eh     change       -0.2071324E-05 Eh
 * total energy  :   -68.5217805 Eh     change        0.1035832E-05 Eh
 * total energy  :   -68.5217822 Eh     change       -0.1739739E-05 Eh
 * total energy  :   -68.5217828 Eh     change       -0.5701740E-06 Eh
   *** GEOMETRY OPTIMIZATION CONVERGED AFTER 37 ITERATIONS ***

 final structure:
================
43
 xtb: 6.3.1 (2faf18d)
Zn       -0.38732545877145    0.27809839432104   -0.28961152567840
C         1.08869260798879    4.92512645703423   -0.78592798851795
C         1.95771300643349    3.84366225167671   -0.76352248642173
C         1.43281088757135    2.55666274477918   -0.65389264109340
H         3.02456358803111    3.99120770773569   -0.82693409013376
N         0.11055313328794    2.32646921883775   -0.57108076961009
C         2.31366499949158    1.40141748231616   -0.62951197899487
C        -0.71195096450813    3.36480164658251   -0.59720209465841
C        -0.27329689422439    4.67976260117790   -0.70304619042922
H        -1.76807774484915    3.14184820953198   -0.53389846582216
H        -0.98618393585989    5.48844698159335   -0.71950962293806
H         1.46719537643647    5.93231761406097   -0.86692790147075
N         1.80986508234768    0.23892197783566   -0.49608031270241
H         3.38062515514458    1.58983994168932   -0.72904997359857
Br        2.90511807900367   -1.25311266110202   -0.47476093879288
C        -0.54482991696653   -1.19799170714852   -4.94688396356513
C        -0.48479806071931   -2.04959722890665   -3.85115136602304
C        -0.49551282720226   -1.50117925218033   -2.57221725379946
H        -0.42894165404284   -3.11893839843847   -3.98398666985287
N        -0.56239853225689   -0.17677520566533   -2.35839926217692
C        -0.43264734342456   -2.34462795098434   -1.38360124471886
C        -0.62392527692288    0.62930114557103   -3.40608537306161
C        -0.61858731932957    0.16661255566899   -4.71849593970733
H        -0.68187522625390    1.68877735302802   -3.19758422837468
H        -0.66999957472697    0.86561777338612   -5.53793119701678
H        -0.53498392662101   -1.59260588672144   -5.95110943379864
N        -0.43297464888445   -1.80600496439662   -0.23712003205898
H        -0.38794827878527   -3.42071854199991   -1.54720366512513
H        -0.37510046198845   -2.44608384508672    0.54971376969233
C        -4.99839180777697    0.70584503902550    1.25989132391857
C        -3.88566458336806    0.68405167323130    2.09133693862652
C        -2.62012445552347    0.59275094613378    1.51917469644377
H        -3.99631882665481    0.73292454923569    3.16360201820315
N        -2.43614900646782    0.52914657652354    0.18963832576352
C        -1.41642834823669    0.55339329813800    2.34330714098617
C        -3.49976720003650    0.55260627328081   -0.59739614072262
C        -4.80044171439901    0.63946122552630   -0.10980767151398
H        -3.31296637557924    0.50197504888028   -1.66125580572155
H        -5.63413114691652    0.65358784836191   -0.79353030553828
H        -5.99251695980578    0.77252442879920    1.67412400754663
N        -0.28190181557182    0.43586349042375    1.79129093754254
H        -1.56012496360229    0.62437431913742    3.42121283423424
H         0.51464133454064    0.40448386910629    2.42141954068116

          :  Hamiltonian                  GFN2-xTB          :
         :: total energy             -68.521782767648 Eh    ::
         :: gradient norm              0.000121030730 Eh/a0 ::
         :: HOMO-LUMO gap              2.270989260747 eV    ::
         :: SCC energy               -69.591069176123 Eh    ::
         :: -> dispersion             -0.056776276214 Eh    ::
         :: repulsion energy           1.067587310641 Eh    ::

    * Orbital Energies and Occupations

         #    Occupation            Energy/Eh            Energy/eV
      -------------------------------------------------------------
         1        2.0000           -1.0580353             -28.7906
       ...           ...                  ...                  ...
        51        2.0000           -0.6800275             -18.5045
        52        2.0000           -0.6790762             -18.4786
        53        2.0000           -0.6778087             -18.4441
        54        2.0000           -0.6709097             -18.2564
        55        2.0000           -0.6678046             -18.1719
        56        2.0000           -0.6637185             -18.0607
        57        2.0000           -0.6615485             -18.0017
        58        2.0000           -0.6521902             -17.7470
        59        2.0000           -0.6506087             -17.7040
        60        2.0000           -0.6375681             -17.3491
        61        2.0000           -0.6347936             -17.2736
        62        2.0000           -0.6331602             -17.2292
        63        2.0000           -0.6255990             -17.0234 (HOMO)
        64                         -0.5421416             -14.7524 (LUMO)
        65                         -0.5413181             -14.7300
        66                         -0.5393978             -14.6778
        67                         -0.4934501             -13.4275
        68                         -0.4926327             -13.4052
        69                         -0.4918010             -13.3826
        70                         -0.4831875             -13.1482
        71                         -0.4463464             -12.1457
        72                         -0.4453672             -12.1191
        73                         -0.4432788             -12.0622
        74                         -0.3575517              -9.7295
       ...                                ...                  ...
       126                          0.5240216              14.2594
      -------------------------------------------------------------
                  HL-Gap            0.0834573 Eh            2.2710 eV

     #   Z        covCN         q      C6AA      Î±(0)
     1  30 Zn     4.360     0.202   122.864    21.653
     2   6 C      2.923     0.012    27.749     8.638
     3   6 C      2.919    -0.017    28.431     8.744
     4   6 C      2.973     0.088    26.044     8.371
     5   1 H      0.926     0.098     1.799     2.097
     6   7 N      2.542    -0.105    23.326     7.173
     7   6 C      3.022     0.070    26.412     8.430
     8   6 C      2.896     0.058    26.691     8.471
     9   6 C      2.914    -0.014    28.358     8.732
    10   1 H      0.925     0.077     2.009     2.217
    11   1 H      0.926     0.101     1.776     2.084
    12   1 H      0.926     0.107     1.720     2.051
    13   7 N      2.522    -0.071    22.652     7.068
    14   1 H      0.925     0.097     1.809     2.103
    15  35 Br     1.152     0.023   184.389    21.894
    16   6 C      2.923     0.012    27.743     8.638
    17   6 C      2.918    -0.015    28.382     8.736
    18   6 C      2.982     0.087    26.065     8.375
    19   1 H      0.926     0.099     1.793     2.094
    20   7 N      2.544    -0.098    23.194     7.152
    21   6 C      2.867     0.090    25.991     8.357
    22   6 C      2.896     0.058    26.700     8.472
    23   6 C      2.915    -0.012    28.324     8.727
    24   1 H      0.925     0.077     2.012     2.218
    25   1 H      0.926     0.101     1.776     2.084
    26   1 H      0.926     0.107     1.722     2.052
    27   7 N      2.507    -0.174    24.805     7.396
    28   1 H      0.925     0.096     1.826     2.113
    29   1 H      0.860     0.212     1.045     1.601
    30   6 C      2.923     0.012    27.747     8.638
    31   6 C      2.918    -0.015    28.395     8.738
    32   6 C      2.982     0.085    26.102     8.381
    33   1 H      0.926     0.099     1.795     2.095
    34   7 N      2.548    -0.101    23.257     7.162
    35   6 C      2.867     0.088    26.030     8.363
    36   6 C      2.895     0.059    26.680     8.469
    37   6 C      2.914    -0.012    28.313     8.725
    38   1 H      0.925     0.080     1.982     2.202
    39   1 H      0.926     0.103     1.761     2.075
    40   1 H      0.926     0.108     1.716     2.049
    41   7 N      2.505    -0.178    24.898     7.410
    42   1 H      0.925     0.094     1.838     2.120
    43   1 H      0.860     0.211     1.051     1.606

Wiberg/Mayer (AO) data.
largest (>0.10) Wiberg bond orders for each atom
          total WBO             WBO to atom ...

molecular dipole:
                 x           y           z       tot (Debye)
 q only:       -3.420       2.882      -2.799
   full:       -3.012       2.818      -2.655      12.467

           -------------------------------------------------
          | TOTAL ENERGY              -68.521782767648 Eh   |
          | GRADIENT NORM               0.000121030730 Eh/Î± |
          | HOMO-LUMO GAP               2.270989260747 eV   |
           -------------------------------------------------

 * finished run on 2020/10/19 at 12:54:49.000
