 Gaussian 16, Revision C.01,
 Gaussian 16:  ES64L-G16RevC.01  3-Jul-2019

 ----------------------------------------------------------------------
 #P PBE1PBE/Def2SVP SP SCF=(YQC,MaxCycle=900) int=(Grid=Superfinegrid)
 EmpiricalDispersion=GD3BJ SCRF=(PCM,Solvent=DiMethylSulfoxide)
 ----------------------------------------------------------------------

 --------
 _s_4c3_d
 --------
 Symbolic Z-matrix:
 Charge =  4 Multiplicity = 1

                         Standard orientation:
 ---------------------------------------------------------------------
 Center     Atomic      Atomic             Coordinates (Angstroms)
 Number     Number       Type             X           Y           Z
 ---------------------------------------------------------------------
      1         46           0       -6.858206    0.117270    0.260113
      2         46           0        6.858318   -0.117607    0.259879
      3          6           0        3.475168   -3.286422    3.754480
      4          6           0        3.999265   -2.362079    4.333195
      5          6           0        4.722338   -1.364940    5.021456
      6          6           0        4.605614   -1.212463    6.389069
      7          6           0        5.432385   -0.320996    7.084691
      8          6           0        6.409151    0.396489    6.439655
      9          6           0        6.558846    0.278753    5.045798
     10          6           0        7.561296    0.944762    4.305440
     11          6           0        7.635773    0.781479    2.951286
     12          7           0        6.733260    0.038439    2.260660
     13          6           0        5.789988   -0.605851    2.922835
     14          6           0        5.677366   -0.570701    4.319291
     15          1           0        3.883050   -1.803596    6.930310
     16          1           0        5.312140   -0.224421    8.153092
     17          1           0        7.071705    1.046761    6.988762
     18          1           0        8.272065    1.572000    4.819348
     19          1           0        8.420577    1.249994    2.367655
     20          1           0        5.067785   -1.183713    2.351679
     21          6           0        2.909890   -4.437536    3.161013
     22          6           0        3.651376   -5.631443    3.223825
     23          6           0        3.141542   -6.817479    2.744333
     24          6           0        1.867183   -6.800441    2.193996
     25          7           0        1.119851   -7.833575    1.692986
     26          6           0       -0.093177   -7.357905    1.284262
     27          6           0       -1.175741   -8.040928    0.741920
     28          6           0       -2.302364   -7.318256    0.422794
     29          6           0       -2.359544   -5.927694    0.631965
     30          6           0       -1.271232   -5.238209    1.166736
     31          6           0       -0.136758   -5.956272    1.498402
     32          6           0        1.123942   -5.599145    2.093593
     33          6           0        1.646504   -4.410933    2.579697
     34          1           0        4.629464   -5.612301    3.680275
     35          1           0        3.707238   -7.733770    2.814460
     36          1           0        1.397404   -8.800992    1.686917
     37          1           0       -1.137227   -9.108538    0.588541
     38          1           0       -3.166131   -7.817631    0.011228
     39          1           0       -1.325000   -4.174259    1.328779
     40          1           0        1.082572   -3.493861    2.533140
     41          6           0       -3.548003   -5.235574    0.346220
     42          6           0       -4.584088   -4.640930    0.154111
     43          6           0       -5.786130   -3.938001   -0.019973
     44          6           0       -6.976689   -4.579862   -0.395138
     45          6           0       -8.133062   -3.833862   -0.523297
     46          6           0       -8.092120   -2.467794   -0.283066
     47          7           0       -6.956648   -1.858840    0.069919
     48          6           0       -5.830840   -2.557408    0.202083
     49          1           0       -6.978048   -5.643481   -0.575042
     50          1           0       -9.061933   -4.301848   -0.806532
     51          1           0       -8.975091   -1.840258   -0.371670
     52          1           0       -4.938637   -2.007323    0.500286
     53          6           0       -3.980849   -3.066633   -3.858181
     54          6           0       -4.618834   -2.118661   -4.256875
     55          6           0       -5.441227   -1.102048   -4.785932
     56          6           0       -5.538619   -0.930669   -6.154149
     57          6           0       -6.445637   -0.016596   -6.702952
     58          6           0       -7.293743    0.709356   -5.903808
     59          6           0       -7.229009    0.569579   -4.505931
     60          6           0       -8.094738    1.244631   -3.616283
     61          6           0       -7.971153    1.059251   -2.269273
     62          7           0       -6.997459    0.279533   -1.734047
     63          6           0       -6.177508   -0.374889   -2.535323
     64          6           0       -6.265594   -0.309654   -3.932994
     65          1           0       -4.916677   -1.523191   -6.807523
     66          1           0       -6.490133    0.094305   -7.775702
     67          1           0       -8.018256    1.382797   -6.333897
     68          1           0       -8.858433    1.895365   -4.011163
     69          1           0       -8.646715    1.534819   -1.565487
     70          1           0       -5.401699   -0.986169   -2.080814
     71          6           0       -3.314458   -4.259519   -3.498145
     72          6           0       -3.934912   -5.466679   -3.871267
     73          6           0       -3.336666   -6.682932   -3.631619
     74          6           0       -2.089711   -6.681659   -3.021162
     75          7           0       -1.269076   -7.737425   -2.725807
     76          6           0       -0.112840   -7.268750   -2.172465
     77          6           0        1.012809   -7.971005   -1.757629
     78          6           0        2.064748   -7.252724   -1.239035
     79          6           0        2.007755   -5.849730   -1.129322
     80          6           0        0.878267   -5.143854   -1.542347
     81          6           0       -0.185737   -5.855140   -2.069209
     82          6           0       -1.460329   -5.476657   -2.623054
     83          6           0       -2.080174   -4.257867   -2.856235
     84          1           0       -4.893714   -5.427528   -4.365685
     85          1           0       -3.812652   -7.604536   -3.929357
     86          1           0       -1.462377   -8.700820   -2.944328
     87          1           0        1.062041   -9.045154   -1.849716
     88          1           0        2.960710   -7.761851   -0.918278
     89          1           0        0.844400   -4.070200   -1.458312
     90          1           0       -1.607331   -3.330709   -2.576749
     91          6           0        3.135612   -5.179475   -0.626618
     92          6           0        4.145077   -4.648276   -0.222871
     93          6           0        5.344710   -4.052012    0.195245
     94          6           0        6.393211   -4.820604    0.725527
     95          6           0        7.572042   -4.197497    1.087338
     96          6           0        7.694861   -2.825779    0.918077
     97          7           0        6.693849   -2.095365    0.418938
     98          6           0        5.546893   -2.674279    0.066261
     99          1           0        6.268332   -5.885561    0.840820
    100          1           0        8.393526   -4.764504    1.494349
    101          1           0        8.603078   -2.290990    1.184450
    102          1           0        4.769758   -2.027026   -0.338110
    103          6           0        3.981541    3.072661   -3.855165
    104          6           0        4.619935    2.125186   -4.254600
    105          6           0        5.442516    1.109389   -4.784752
    106          6           0        5.540233    0.940068   -6.153241
    107          6           0        6.447335    0.026761   -6.703195
    108          6           0        7.295017   -0.700639   -5.904999
    109          6           0        7.229818   -0.563030   -4.506810
    110          6           0        8.095140   -1.239548   -3.617999
    111          6           0        7.971273   -1.056211   -2.270680
    112          7           0        6.997572   -0.277102   -1.734532
    113          6           0        6.178028    0.378639   -2.535121
    114          6           0        6.266371    0.315514   -3.932881
    115          1           0        4.918610    1.533638   -6.805923
    116          1           0        6.492284   -0.082424   -7.776170
    117          1           0        8.019444   -1.373591   -6.335945
    118          1           0        8.858912   -1.889863   -4.013611
    119          1           0        8.646649   -1.532965   -1.567516
    120          1           0        5.402148    0.989448   -2.079852
    121          6           0        3.314702    4.265003   -3.494471
    122          6           0        3.934249    5.472735   -3.867504
    123          6           0        3.335191    6.688468   -3.627543
    124          6           0        2.088308    6.686254   -3.016909
    125          7           0        1.267007    7.741440   -2.721362
    126          6           0        0.111152    7.271880   -2.168082
    127          6           0       -1.014948    7.973248   -1.753224
    128          6           0       -2.066491    7.254326   -1.234749
    129          6           0       -2.008550    5.851349   -1.125192
    130          6           0       -0.878571    5.146250   -1.538249
    131          6           0        0.184922    5.858348   -2.064948
    132          6           0        1.459754    5.480732   -2.618986
    133          6           0        2.080482    4.262478   -2.852325
    134          1           0        4.892909    5.434302   -4.362184
    135          1           0        3.810527    7.610487   -3.925255
    136          1           0        1.459581    8.704951   -2.939735
    137          1           0       -1.065048    9.047448   -1.845244
    138          1           0       -2.962806    7.762745   -0.913937
    139          1           0       -0.843952    4.072582   -1.454381
    140          1           0        1.608330    3.334941   -2.572939
    141          6           0       -3.135945    5.180202   -0.622585
    142          6           0       -4.145083    4.648438   -0.218778
    143          6           0       -5.344597    4.051768    0.199306
    144          6           0       -6.392738    4.819709    0.730997
    145          6           0       -7.571468    4.196218    1.092540
    146          6           0       -7.694321    2.824668    0.921986
    147          7           0       -6.693465    2.094825    0.421701
    148          6           0       -5.546727    2.674062    0.069136
    149          1           0       -6.267828    5.884581    0.847411
    150          1           0       -8.392661    4.762800    1.500649
    151          1           0       -8.602487    2.289662    1.188080
    152          1           0       -4.769777    2.027246   -0.336235
    153          6           0       -3.474562    3.281044    3.757465
    154          6           0       -3.998058    2.355881    4.335395
    155          6           0       -4.720669    1.357683    5.022680
    156          6           0       -4.603234    1.202984    6.389958
    157          6           0       -5.429809    0.310653    7.084660
    158          6           0       -6.407135   -0.405589    6.439112
    159          6           0       -6.557514   -0.285759    5.045516
    160          6           0       -7.560377   -0.950417    4.304620
    161          6           0       -7.635424   -0.785289    2.950640
    162          7           0       -6.732978   -0.041460    2.260781
    163          6           0       -5.789455    0.601830    2.923420
    164          6           0       -5.676247    0.564665    4.319861
    165          1           0       -3.880070    1.793073    6.931788
    166          1           0       -5.308956    0.212419    8.152804
    167          1           0       -7.069453   -1.056579    6.987564
    168          1           0       -8.271178   -1.578229    4.817937
    169          1           0       -8.420442   -1.252853    2.366735
    170          1           0       -5.067413    1.180449    2.352870
    171          6           0       -2.909959    4.432783    3.164649
    172          6           0       -3.652146    5.626238    3.227771
    173          6           0       -3.142882    6.812704    2.748728
    174          6           0       -1.868416    6.796667    2.198604
    175          7           0       -1.121698    7.830294    1.697919
    176          6           0        0.091671    7.355356    1.289191
    177          6           0        1.173865    8.039248    0.747056
    178          6           0        2.300890    7.317159    0.427660
    179          6           0        2.358730    5.926513    0.636420
    180          6           0        1.270849    5.236371    1.170910
    181          6           0        0.135938    5.953703    1.502815
    182          6           0       -1.124554    5.595770    2.098008
    183          6           0       -1.646476    4.407073    2.583601
    184          1           0       -4.630345    5.606347    3.683864
    185          1           0       -3.709138    7.728671    2.819107
    186          1           0       -1.399741    8.797578    1.692167
    187          1           0        1.134837    9.106748    0.594084
    188          1           0        3.164398    7.817166    0.016319
    189          1           0        1.325129    4.172384    1.332698
    190          1           0       -1.081913    3.490373    2.536770
    191          6           0        3.547614    5.235013    0.350572
    192          6           0        4.583748    4.640565    0.158295
    193          6           0        5.785906    3.937849   -0.016065
    194          6           0        6.976323    4.580206   -0.390576
    195          6           0        8.132899    3.834513   -0.519242
    196          6           0        8.092045    2.468153   -0.280208
    197          7           0        6.956596    1.858729    0.072051
    198          6           0        5.830736    2.557151    0.204846
    199          1           0        6.977683    5.643956   -0.569517
    200          1           0        9.061704    4.302839   -0.801942
    201          1           0        8.975138    1.840799   -0.369541
    202          1           0        4.938572    2.006717    0.502575
 ---------------------------------------------------------------------

 SCF Done:  E(RPBE1PBE) =  -5516.33543050     a.u. after   19 cycles
 SCF Done:  E(RPBE1PBE) =  -5516.33585952     A.U. after   10 cycles

 The electronic state is 1-A.
 Alpha  occ. eigenvalues --  -14.48842 -14.48841 -14.48796 -14.48795 -14.48397
 Alpha  occ. eigenvalues --  -14.48397 -14.48345 -14.48345 -14.45275 -14.45275
 Alpha  occ. eigenvalues --  -14.45239 -14.45239 -10.32220 -10.32220 -10.32148
 Alpha  occ. eigenvalues --  -10.32148 -10.32123 -10.32122 -10.32088 -10.32088
 Alpha  occ. eigenvalues --  -10.31687 -10.31685 -10.31650 -10.31649 -10.30836
 Alpha  occ. eigenvalues --  -10.30835 -10.30814 -10.30814 -10.30527 -10.30527
 Alpha  occ. eigenvalues --  -10.30451 -10.30451 -10.29581 -10.29580 -10.29564
 Alpha  occ. eigenvalues --  -10.29564 -10.29231 -10.29231 -10.29225 -10.29225
 Alpha  occ. eigenvalues --  -10.29147 -10.29147 -10.29146 -10.29145 -10.29020
 Alpha  occ. eigenvalues --  -10.29020 -10.28967 -10.28966 -10.28956 -10.28955
 Alpha  occ. eigenvalues --  -10.28954 -10.28953 -10.28827 -10.28827 -10.28762
 Alpha  occ. eigenvalues --  -10.28761 -10.28080 -10.28079 -10.28031 -10.28030
 Alpha  occ. eigenvalues --  -10.27677 -10.27677 -10.27661 -10.27660 -10.27057
 Alpha  occ. eigenvalues --  -10.27057 -10.27035 -10.27034 -10.26999 -10.26998
 Alpha  occ. eigenvalues --  -10.26977 -10.26976 -10.26967 -10.26967 -10.26948
 Alpha  occ. eigenvalues --  -10.26948 -10.26947 -10.26946 -10.26867 -10.26867
 Alpha  occ. eigenvalues --  -10.26724 -10.26724 -10.26705 -10.26705 -10.26224
 Alpha  occ. eigenvalues --  -10.26224 -10.26073 -10.26072 -10.26000 -10.26000
 Alpha  occ. eigenvalues --  -10.25969 -10.25968 -10.25962 -10.25961 -10.25955
 Alpha  occ. eigenvalues --  -10.25954 -10.25937 -10.25937 -10.25902 -10.25901
 Alpha  occ. eigenvalues --  -10.25622 -10.25621 -10.25614 -10.25614 -10.25568
 Alpha  occ. eigenvalues --  -10.25568 -10.25554 -10.25554 -10.25501 -10.25501
 Alpha  occ. eigenvalues --  -10.25466 -10.25465 -10.25439 -10.25439 -10.25412
 Alpha  occ. eigenvalues --  -10.25412 -10.25401 -10.25401 -10.25291 -10.25291
 Alpha  occ. eigenvalues --  -10.25280 -10.25279 -10.25261 -10.25260 -10.25235
 Alpha  occ. eigenvalues --  -10.25234 -10.25219 -10.25219 -10.25212 -10.25212
 Alpha  occ. eigenvalues --  -10.25136 -10.25135  -3.57245  -3.57244  -2.25253
 Alpha  occ. eigenvalues --   -2.25252  -2.25020  -2.25019  -2.20900  -2.20899
 Alpha  occ. eigenvalues --   -1.04103  -1.04102  -1.03545  -1.03545  -1.02992
 Alpha  occ. eigenvalues --   -1.02991  -1.02963  -1.02963  -1.02893  -1.02891
 Alpha  occ. eigenvalues --   -1.02880  -1.02880  -0.92542  -0.92542  -0.92488
 Alpha  occ. eigenvalues --   -0.92488  -0.90074  -0.90072  -0.89985  -0.89984
 Alpha  occ. eigenvalues --   -0.89761  -0.89759  -0.89544  -0.89541  -0.88347
 Alpha  occ. eigenvalues --   -0.88333  -0.88178  -0.88165  -0.85787  -0.85786
 Alpha  occ. eigenvalues --   -0.85750  -0.85749  -0.84208  -0.84207  -0.84128
 Alpha  occ. eigenvalues --   -0.84127  -0.83048  -0.83041  -0.82970  -0.82965
 Alpha  occ. eigenvalues --   -0.82715  -0.82704  -0.82682  -0.82669  -0.82048
 Alpha  occ. eigenvalues --   -0.82030  -0.81965  -0.81942  -0.80871  -0.80835
 Alpha  occ. eigenvalues --   -0.80719  -0.80692  -0.79508  -0.79484  -0.79466
 Alpha  occ. eigenvalues --   -0.79439  -0.77218  -0.77203  -0.77062  -0.77046
 Alpha  occ. eigenvalues --   -0.75835  -0.75828  -0.75778  -0.75772  -0.75156
 Alpha  occ. eigenvalues --   -0.75152  -0.75117  -0.75115  -0.71234  -0.71232
 Alpha  occ. eigenvalues --   -0.71177  -0.71156  -0.71074  -0.71030  -0.70918
 Alpha  occ. eigenvalues --   -0.70898  -0.69556  -0.69506  -0.69462  -0.69442
 Alpha  occ. eigenvalues --   -0.69270  -0.69217  -0.69034  -0.68868  -0.68796
 Alpha  occ. eigenvalues --   -0.68778  -0.68646  -0.68612  -0.67356  -0.67353
 Alpha  occ. eigenvalues --   -0.67288  -0.67255  -0.65605  -0.65565  -0.65525
 Alpha  occ. eigenvalues --   -0.65502  -0.64253  -0.64241  -0.64190  -0.64189
 Alpha  occ. eigenvalues --   -0.61774  -0.61724  -0.61682  -0.61584  -0.61538
 Alpha  occ. eigenvalues --   -0.61431  -0.60601  -0.60488  -0.60037  -0.59790
 Alpha  occ. eigenvalues --   -0.59739  -0.59621  -0.58044  -0.57965  -0.57905
 Alpha  occ. eigenvalues --   -0.57855  -0.57839  -0.57822  -0.57793  -0.57723
 Alpha  occ. eigenvalues --   -0.57436  -0.57346  -0.57253  -0.57243  -0.56966
 Alpha  occ. eigenvalues --   -0.56944  -0.56160  -0.56115  -0.56028  -0.55989
 Alpha  occ. eigenvalues --   -0.55917  -0.55864  -0.55429  -0.55424  -0.55396
 Alpha  occ. eigenvalues --   -0.55394  -0.54564  -0.54507  -0.54503  -0.54437
 Alpha  occ. eigenvalues --   -0.52957  -0.52882  -0.52865  -0.52821  -0.51868
 Alpha  occ. eigenvalues --   -0.51860  -0.51742  -0.51679  -0.51183  -0.51140
 Alpha  occ. eigenvalues --   -0.50775  -0.50713  -0.50535  -0.50532  -0.50431
 Alpha  occ. eigenvalues --   -0.50414  -0.50387  -0.50382  -0.50238  -0.50230
 Alpha  occ. eigenvalues --   -0.49783  -0.49763  -0.49587  -0.49580  -0.49173
 Alpha  occ. eigenvalues --   -0.49171  -0.49099  -0.49097  -0.48776  -0.48765
 Alpha  occ. eigenvalues --   -0.48632  -0.48631  -0.48100  -0.48099  -0.48063
 Alpha  occ. eigenvalues --   -0.48057  -0.47536  -0.47505  -0.47467  -0.47464
 Alpha  occ. eigenvalues --   -0.47368  -0.47364  -0.47091  -0.47090  -0.47006
 Alpha  occ. eigenvalues --   -0.46994  -0.46904  -0.46902  -0.46834  -0.46831
 Alpha  occ. eigenvalues --   -0.46691  -0.46687  -0.46601  -0.46599  -0.46498
 Alpha  occ. eigenvalues --   -0.46497  -0.45466  -0.45464  -0.45181  -0.45181
 Alpha  occ. eigenvalues --   -0.45118  -0.45116  -0.44288  -0.44288  -0.43677
 Alpha  occ. eigenvalues --   -0.43660  -0.43353  -0.43321  -0.43279  -0.43255
 Alpha  occ. eigenvalues --   -0.42857  -0.42827  -0.42761  -0.42726  -0.42662
 Alpha  occ. eigenvalues --   -0.42661  -0.42482  -0.42468  -0.41778  -0.41766
 Alpha  occ. eigenvalues --   -0.41656  -0.41654  -0.41487  -0.41398  -0.41210
 Alpha  occ. eigenvalues --   -0.41196  -0.41170  -0.41162  -0.41068  -0.41023
 Alpha  occ. eigenvalues --   -0.40365  -0.40236  -0.39957  -0.39735  -0.39430
 Alpha  occ. eigenvalues --   -0.39389  -0.39370  -0.39283  -0.39182  -0.39082
 Alpha  occ. eigenvalues --   -0.38664  -0.38477  -0.37972  -0.37962  -0.37934
 Alpha  occ. eigenvalues --   -0.37917  -0.37802  -0.37779  -0.37680  -0.37580
 Alpha  occ. eigenvalues --   -0.37534  -0.37408  -0.37059  -0.36969  -0.36638
 Alpha  occ. eigenvalues --   -0.36592  -0.36557  -0.36496  -0.36478  -0.36352
 Alpha  occ. eigenvalues --   -0.35561  -0.35309  -0.34607  -0.34470  -0.34166
 Alpha  occ. eigenvalues --   -0.34150  -0.33942  -0.33864  -0.33180  -0.33151
 Alpha  occ. eigenvalues --   -0.32955  -0.32883  -0.32720  -0.32680  -0.32276
 Alpha  occ. eigenvalues --   -0.32258  -0.32070  -0.32043  -0.31530  -0.31524
 Alpha  occ. eigenvalues --   -0.31406  -0.31404  -0.31012  -0.30998  -0.30962
 Alpha  occ. eigenvalues --   -0.30947  -0.30867  -0.30847  -0.30626  -0.30592
 Alpha  occ. eigenvalues --   -0.29756  -0.29715  -0.29508  -0.29504  -0.28843
 Alpha  occ. eigenvalues --   -0.28826  -0.27633  -0.27632  -0.26418  -0.26395
 Alpha  occ. eigenvalues --   -0.25966  -0.25966  -0.25943  -0.25918  -0.24473
 Alpha  occ. eigenvalues --   -0.24461  -0.24241  -0.24240  -0.22961  -0.22948
 Alpha  occ. eigenvalues --   -0.22330  -0.22330
 Alpha virt. eigenvalues --   -0.09787  -0.09778  -0.09769  -0.09765  -0.08561
 Alpha virt. eigenvalues --   -0.08425  -0.08311  -0.08115  -0.07305  -0.07300
 Alpha virt. eigenvalues --   -0.07082  -0.07010  -0.06319  -0.06294  -0.06019

 Mulliken charges:
               1
     1  Pd   0.481773
     2  Pd   0.481827
     3  C    0.037065
     4  C   -0.109031
     5  C   -0.012543
     6  C    0.006703
     7  C    0.012669
     8  C    0.006265
     9  C    0.037772
    10  C   -0.023570
    11  C    0.150183
    12  N   -0.324861
    13  C    0.178356
    14  C   -0.021656
    15  H    0.039463
    16  H    0.054998
    17  H    0.039960
    18  H    0.052488
    19  H    0.091579
    20  H    0.085066
    21  C   -0.081550
    22  C    0.005755
    23  C   -0.053467
    24  C    0.119413
    25  N   -0.117767
    26  C    0.108644
    27  C   -0.023019
    28  C    0.003787
    29  C   -0.074777
    30  C   -0.047667
    31  C    0.049542
    32  C    0.039763
    33  C   -0.036480
    34  H    0.029396
    35  H    0.021093
    36  H    0.162720
    37  H    0.019187
    38  H    0.026833
    39  H    0.013600
    40  H    0.014373
    41  C    0.030329
    42  C   -0.033040
    43  C   -0.119540
    44  C    0.105029
    45  C   -0.032451
    46  C    0.143055
    47  N   -0.322230
    48  C    0.165014
    49  H    0.059967
    50  H    0.069860
    51  H    0.115039
    52  H    0.103878
    53  C    0.029185
    54  C   -0.103203
    55  C   -0.012980
    56  C    0.004574
    57  C    0.013529
    58  C    0.005186
    59  C    0.036079
    60  C   -0.021375
    61  C    0.149146
    62  N   -0.325532
    63  C    0.175955
    64  C   -0.016114
    65  H    0.039721
    66  H    0.054891
    67  H    0.040021
    68  H    0.052688
    69  H    0.094601
    70  H    0.086063
    71  C   -0.078979
    72  C   -0.003245
    73  C   -0.051316
    74  C    0.109707
    75  N   -0.121839
    76  C    0.128626
    77  C   -0.051586
    78  C    0.016727
    79  C   -0.100536
    80  C   -0.017559
    81  C    0.025908
    82  C    0.049375
    83  C   -0.033798
    84  H    0.029852
    85  H    0.022370
    86  H    0.163184
    87  H    0.019380
    88  H    0.026827
    89  H    0.012821
    90  H    0.014442
    91  C    0.040570
    92  C   -0.027099
    93  C   -0.123144
    94  C    0.103316
    95  C   -0.032826
    96  C    0.141127
    97  N   -0.324499
    98  C    0.168083
    99  H    0.057614
   100  H    0.069032
   101  H    0.115507
   102  H    0.102540
   103  C    0.029156
   104  C   -0.103137
   105  C   -0.013043
   106  C    0.004607
   107  C    0.013465
   108  C    0.005244
   109  C    0.036055
   110  C   -0.021471
   111  C    0.149140
   112  N   -0.325494
   113  C    0.175828
   114  C   -0.016015
   115  H    0.039706
   116  H    0.054920
   117  H    0.040013
   118  H    0.052732
   119  H    0.094579
   120  H    0.086127
   121  C   -0.079053
   122  C   -0.003233
   123  C   -0.051312
   124  C    0.109648
   125  N   -0.121752
   126  C    0.128856
   127  C   -0.051885
   128  C    0.016827
   129  C   -0.100791
   130  C   -0.017319
   131  C    0.025704
   132  C    0.049490
   133  C   -0.033818
   134  H    0.029829
   135  H    0.022409
   136  H    0.163151
   137  H    0.019429
   138  H    0.026814
   139  H    0.012844
   140  H    0.014427
   141  C    0.040581
   142  C   -0.027099
   143  C   -0.123145
   144  C    0.103261
   145  C   -0.032837
   146  C    0.141142
   147  N   -0.324469
   148  C    0.168123
   149  H    0.057625
   150  H    0.069008
   151  H    0.115501
   152  H    0.102531
   153  C    0.037110
   154  C   -0.109050
   155  C   -0.012496
   156  C    0.006608
   157  C    0.012682
   158  C    0.006299
   159  C    0.037856
   160  C   -0.023683
   161  C    0.150213
   162  N   -0.324790
   163  C    0.178398
   164  C   -0.021784
   165  H    0.039531
   166  H    0.054974
   167  H    0.039929
   168  H    0.052531
   169  H    0.091535
   170  H    0.085051
   171  C   -0.081585
   172  C    0.005797
   173  C   -0.053497
   174  C    0.119528
   175  N   -0.117699
   176  C    0.108393
   177  C   -0.022678
   178  C    0.003672
   179  C   -0.074566
   180  C   -0.047836
   181  C    0.049706
   182  C    0.039546
   183  C   -0.036504
   184  H    0.029380
   185  H    0.021103
   186  H    0.162727
   187  H    0.019110
   188  H    0.026845
   189  H    0.013613
   190  H    0.014399
   191  C    0.030297
   192  C   -0.033048
   193  C   -0.119440
   194  C    0.105012
   195  C   -0.032420
   196  C    0.143003
   197  N   -0.322240
   198  C    0.164986
   199  H    0.059959
   200  H    0.069838
   201  H    0.115085
   202  H    0.103886
 Sum of Mulliken charges =   4.00000

 Dipole moment (field-independent basis, Debye):
    X=              0.0004    Y=             -0.0015    Z=              1.6466  Tot=              1.6466
 Quadrupole moment (field-independent basis, Debye-Ang):
   XX=            134.3937   YY=           -279.8984   ZZ=           -550.3950
   XY=            -16.6644   XZ=              0.0030   YZ=             -0.0220

 Normal termination of Gaussian 16 at Fri Feb 26 13:21:27 2021.
