                         Program Version 4.2.1 -  RELEASE  -
|  1> ! RI-MP2 cc-pVTZ cc-pVTZ/C TIGHTSCF printbasis Grid6 NOFINALGRID SlowConv
|  2>
|  3> %base "_o_1_alde1_3_ami3_1_opt_MP2"
|  4> %maxcore 3000
|  5> %pal
|  6>    nprocs 32
|  7> end
|  8>
|  9> * xyzfile 0 1 _o_1_alde1_3_ami3_1_opt_B97-3c.xyz
| 10>
| 11>                          ****END OF INPUT****

CARTESIAN COORDINATES (ANGSTROEM)
---------------------------------
  C     -1.456625    0.725126   -1.768885
  C     -1.386792    0.388281   -0.302236
  C     -2.661982    1.012955   -2.392219
  C     -2.697955    1.362319   -3.739795
  H     -3.578381    0.929488   -1.824262
  C     -1.514543    1.411223   -4.461853
  C     -0.297244    1.125071   -3.849010
  H     -1.554042    1.642624   -5.517408
  C     -0.276403    0.778044   -2.506147
  C      0.970139    1.234213   -4.656022
  H      0.667133    0.516395   -2.047264
  C     -4.021420    1.711543   -4.369046
  C     -1.584383    1.683912    1.632470
  C     -2.971677    1.276514    1.156035
  N     -0.755023    1.521139    0.444035
  N     -2.711359    0.119601    0.308172
  C     -4.086693    3.239715   -6.126092
  C     -4.985231    3.743304   -5.005158
  N     -3.965996    1.813875   -5.847447
  N     -4.502313    3.023260   -3.832563
  C      2.955987    1.827573   -3.592673
  C      2.680231    2.826439   -4.707914
  N      2.158402    0.668080   -3.973046
  N      1.251538    2.673053   -4.956678
  H      2.683800    0.121003   -4.643954
  H      0.835500    0.700560   -5.599404
  H      0.743007    3.231297   -4.278900
  H     -0.767752   -0.502256   -0.173238
  H     -0.845644    2.352824   -0.130187
  H     -4.773922    1.340122   -6.232487
  H     -3.696092    3.514279   -3.460320
  H     -4.750303    0.940520   -4.109974
  C     -3.933777    1.118811    2.304287
  H     -2.633004   -0.700850    0.896509
  C     -4.590728    3.662797   -7.481030
  C      4.432573    1.635407   -3.365338
  H     -3.341447    2.083932    0.511785
  C     -3.982218    2.445786    3.065896
  H     -3.589075    0.318387    2.967156
  H     -4.928324    0.838144    1.955543
  C     -2.599149    2.950916    3.479582
  H     -4.616685    2.348212    3.947954
  H     -4.458950    3.195146    2.428213
  C     -1.611591    3.029961    2.311746
  H     -2.693199    3.927317    3.957046
  H     -2.187818    2.278439    4.237451
  H     -0.621706    3.322471    2.664275
  H     -1.936489    3.794278    1.598540
  H     -1.261402    0.937860    2.370449
  H     -3.098755    3.692215   -5.974809
  C     -4.682358    5.190742   -7.495125
  H     -5.578811    3.226274   -7.659943
  H     -3.936235    3.308553   -8.278315
  C     -5.493496    5.753599   -6.327071
  H     -5.111628    5.531349   -8.438428
  H     -3.669259    5.600009   -7.455259
  C     -5.014781    5.250373   -4.962141
  H     -6.541874    5.469703   -6.453868
  H     -5.467345    6.843902   -6.354293
  H     -6.002522    3.389889   -5.219056
  H     -5.665375    5.617248   -4.167257
  H     -4.009564    5.631111   -4.754887
  H      2.522113    2.242043   -2.674178
  C      5.042665    3.001593   -3.041942
  H      4.894348    1.222920   -4.268374
  H      4.622773    0.927467   -2.557769
  C      4.708251    4.069673   -4.084359
  H      6.125276    2.913558   -2.940376
  H      4.669919    3.326557   -2.066786
  C      3.206836    4.195722   -4.359035
  H      5.213261    3.820792   -5.021801
  H      5.112633    5.031658   -3.766180
  H      3.021248    4.913748   -5.158849
  H      2.693787    4.569698   -3.467228
  H      3.214695    2.474638   -5.600164

 Total Charge           Charge          ....    0
 Multiplicity           Mult            ....    1
 Number of Electrons    NEL             ....  246
 Basis Dimension        Dim             .... 1578

ORBITAL ENERGIES
----------------

  NO   OCC          E(Eh)            E(eV)
   0   2.0000     -15.535146      -422.7328
   1   2.0000     -15.535133      -422.7325
   2   2.0000     -15.535118      -422.7321
   3   2.0000     -15.534046      -422.7029
   4   2.0000     -15.534008      -422.7018
   5   2.0000     -15.534003      -422.7017
   6   2.0000     -11.276342      -306.8449
   7   2.0000     -11.276334      -306.8447
   8   2.0000     -11.276325      -306.8444
   9   2.0000     -11.237713      -305.7937
  10   2.0000     -11.237694      -305.7932
  11   2.0000     -11.237689      -305.7931
  12   2.0000     -11.237051      -305.7757
  13   2.0000     -11.237032      -305.7752
  14   2.0000     -11.237027      -305.7750
  15   2.0000     -11.220872      -305.3354
  16   2.0000     -11.220795      -305.3334
  17   2.0000     -11.220792      -305.3333
  18   2.0000     -11.219621      -305.3014
  19   2.0000     -11.219615      -305.3013
  20   2.0000     -11.219601      -305.3009
  21   2.0000     -11.218972      -305.2838
  22   2.0000     -11.218963      -305.2835
  23   2.0000     -11.218951      -305.2832
  24   2.0000     -11.217377      -305.2404
  25   2.0000     -11.217377      -305.2403
  26   2.0000     -11.217358      -305.2398
  27   2.0000     -11.217204      -305.2356
  28   2.0000     -11.217182      -305.2350
  29   2.0000     -11.217182      -305.2350
  30   2.0000     -11.208664      -305.0033
  31   2.0000     -11.208655      -305.0030
  32   2.0000     -11.208548      -305.0001
  33   2.0000      -1.267494       -34.4903
  34   2.0000      -1.265864       -34.4459
  35   2.0000      -1.265848       -34.4455
  36   2.0000      -1.148159       -31.2430
  37   2.0000      -1.137433       -30.9511
  38   2.0000      -1.137409       -30.9505
  39   2.0000      -1.136861       -30.9355
  40   2.0000      -1.110937       -30.2301
  41   2.0000      -1.110924       -30.2298
  42   2.0000      -1.102424       -29.9985
  43   2.0000      -1.032417       -28.0935
  44   2.0000      -1.032404       -28.0931
  45   2.0000      -0.998606       -27.1734
  46   2.0000      -0.998589       -27.1730
  47   2.0000      -0.998559       -27.1722
  48   2.0000      -0.984512       -26.7899
  49   2.0000      -0.966399       -26.2971
  50   2.0000      -0.966392       -26.2969
  51   2.0000      -0.867584       -23.6082
  52   2.0000      -0.867566       -23.6077
  53   2.0000      -0.858965       -23.3736
  54   2.0000      -0.825687       -22.4681
  55   2.0000      -0.825669       -22.4676
  56   2.0000      -0.820090       -22.3158
  57   2.0000      -0.816376       -22.2147
  58   2.0000      -0.816233       -22.2108
  59   2.0000      -0.816224       -22.2106
  60   2.0000      -0.778695       -21.1894
  61   2.0000      -0.778673       -21.1888
  62   2.0000      -0.776674       -21.1344
  63   2.0000      -0.755052       -20.5460
  64   2.0000      -0.755032       -20.5455
  65   2.0000      -0.684978       -18.6392
  66   2.0000      -0.676302       -18.4031
  67   2.0000      -0.664769       -18.0893
  68   2.0000      -0.664751       -18.0888
  69   2.0000      -0.654905       -17.8209
  70   2.0000      -0.644655       -17.5419
  71   2.0000      -0.644614       -17.5408
  72   2.0000      -0.630905       -17.1678
  73   2.0000      -0.626220       -17.0403
  74   2.0000      -0.626208       -17.0400
  75   2.0000      -0.623455       -16.9651
  76   2.0000      -0.617715       -16.8089
  77   2.0000      -0.617694       -16.8083
  78   2.0000      -0.608087       -16.5469
  79   2.0000      -0.601934       -16.3794
  80   2.0000      -0.595000       -16.1908
  81   2.0000      -0.594980       -16.1902
  82   2.0000      -0.580966       -15.8089
  83   2.0000      -0.580960       -15.8087
  84   2.0000      -0.577992       -15.7280
  85   2.0000      -0.552951       -15.0465
  86   2.0000      -0.552938       -15.0462
  87   2.0000      -0.551380       -15.0038
  88   2.0000      -0.545837       -14.8530
  89   2.0000      -0.545816       -14.8524
  90   2.0000      -0.541490       -14.7347
  91   2.0000      -0.530727       -14.4418
  92   2.0000      -0.527009       -14.3406
  93   2.0000      -0.526973       -14.3397
  94   2.0000      -0.507811       -13.8182
  95   2.0000      -0.501664       -13.6510
  96   2.0000      -0.501614       -13.6496
  97   2.0000      -0.495691       -13.4884
  98   2.0000      -0.495664       -13.4877
  99   2.0000      -0.493014       -13.4156
 100   2.0000      -0.486321       -13.2335
 101   2.0000      -0.486264       -13.2319
 102   2.0000      -0.486252       -13.2316
 103   2.0000      -0.467781       -12.7290
 104   2.0000      -0.467768       -12.7286
 105   2.0000      -0.466549       -12.6955
 106   2.0000      -0.462129       -12.5752
 107   2.0000      -0.462121       -12.5749
 108   2.0000      -0.460412       -12.5284
 109   2.0000      -0.452303       -12.3078
 110   2.0000      -0.452297       -12.3076
 111   2.0000      -0.451656       -12.2902
 112   2.0000      -0.449508       -12.2317
 113   2.0000      -0.449490       -12.2312
 114   2.0000      -0.446003       -12.1364
 115   2.0000      -0.378607       -10.3024
 116   2.0000      -0.378600       -10.3022
 117   2.0000      -0.374774       -10.1981
 118   2.0000      -0.372323       -10.1314
 119   2.0000      -0.366082        -9.9616
 120   2.0000      -0.366062        -9.9610
 121   2.0000      -0.311476        -8.4757
 122   2.0000      -0.311456        -8.4751
 123   0.0000       0.130726         3.5572
 124   0.0000       0.132974         3.6184
 125   0.0000       0.133048         3.6204
 126   0.0000       0.141744         3.8571
 127   0.0000       0.142589         3.8801

MULLIKEN ATOMIC CHARGES
-----------------------
   0 C :    0.088672
   1 C :    0.047815
   2 C :   -0.279253
   3 C :    0.089026
   4 H :    0.176242
   5 C :   -0.279535
   6 C :    0.088835
   7 H :    0.176350
   8 C :   -0.279658
   9 C :    0.047859
  10 H :    0.176418
  11 C :    0.047679
  12 C :    0.042037
  13 C :    0.048733
  14 N :   -0.288621
  15 N :   -0.281534
  16 C :    0.048543
  17 C :    0.041975
  18 N :   -0.281513
  19 N :   -0.288603
  20 C :    0.048568
  21 C :    0.041920
  22 N :   -0.281507
  23 N :   -0.288664
  24 H :    0.089246
  25 H :    0.107039
  26 H :    0.099682
  27 H :    0.107066
  28 H :    0.099644
  29 H :    0.089278
  30 H :    0.099618
  31 H :    0.106999
  32 C :   -0.224178
  33 H :    0.089264
  34 C :   -0.224158
  35 C :   -0.224131
  36 H :    0.087643
  37 C :   -0.203437
  38 H :    0.086378
  39 H :    0.120559
  40 C :   -0.201397
  41 H :    0.112224
  42 H :    0.093667
  43 C :   -0.219749
  44 H :    0.112260
  45 H :    0.090761
  46 H :    0.119423
  47 H :    0.087361
  48 H :    0.088514
  49 H :    0.087662
  50 C :   -0.203468
  51 H :    0.086425
  52 H :    0.120559
  53 C :   -0.201363
  54 H :    0.112207
  55 H :    0.093699
  56 C :   -0.219768
  57 H :    0.090740
  58 H :    0.112262
  59 H :    0.088578
  60 H :    0.119420
  61 H :    0.087369
  62 H :    0.087777
  63 C :   -0.203480
  64 H :    0.086416
  65 H :    0.120561
  66 C :   -0.201377
  67 H :    0.112209
  68 H :    0.093692
  69 C :   -0.219827
  70 H :    0.090751
  71 H :    0.112257
  72 H :    0.119415
  73 H :    0.087342
  74 H :    0.088584
Sum of atomic charges:   -0.0000000

LOEWDIN ATOMIC CHARGES
----------------------
   0 C :   -0.053182
   1 C :   -0.107438
   2 C :    0.042281
   3 C :   -0.053150
   4 H :   -0.025238
   5 C :    0.042252
   6 C :   -0.053187
   7 H :   -0.025172
   8 C :    0.042284
   9 C :   -0.107402
  10 H :   -0.025179
  11 C :   -0.107388
  12 C :   -0.108113
  13 C :   -0.107368
  14 N :    0.301253
  15 N :    0.317120
  16 C :   -0.107408
  17 C :   -0.108138
  18 N :    0.317048
  19 N :    0.301242
  20 C :   -0.107343
  21 C :   -0.108163
  22 N :    0.317087
  23 N :    0.301229
  24 H :   -0.116514
  25 H :   -0.029252
  26 H :   -0.118095
  27 H :   -0.029250
  28 H :   -0.118041
  29 H :   -0.116545
  30 H :   -0.118064
  31 H :   -0.029262
  32 C :    0.064202
  33 H :   -0.116555
  34 C :    0.064221
  35 C :    0.064218
  36 H :   -0.023652
  37 C :    0.065753
  38 H :   -0.027859
  39 H :   -0.023348
  40 C :    0.065568
  41 H :   -0.026292
  42 H :   -0.025343
  43 C :    0.064085
  44 H :   -0.026367
  45 H :   -0.026164
  46 H :   -0.024211
  47 H :   -0.027426
  48 H :   -0.024400
  49 H :   -0.023650
  50 C :    0.065740
  51 H :   -0.027854
  52 H :   -0.023338
  53 C :    0.065574
  54 H :   -0.026292
  55 H :   -0.025341
  56 C :    0.064093
  57 H :   -0.026163
  58 H :   -0.026369
  59 H :   -0.024420
  60 H :   -0.024216
  61 H :   -0.027430
  62 H :   -0.023625
  63 C :    0.065751
  64 H :   -0.027860
  65 H :   -0.023332
  66 C :    0.065600
  67 H :   -0.026293
  68 H :   -0.025347
  69 C :    0.064083
  70 H :   -0.026171
  71 H :   -0.026376
  72 H :   -0.024228
  73 H :   -0.027436
  74 H :   -0.024437

  Mayer bond orders larger than 0.100000
B(  0-C ,  1-C ) :   1.0341 B(  0-C ,  2-C ) :   1.3462 B(  0-C ,  8-C ) :   1.3433
B(  1-C , 14-N ) :   1.0208 B(  1-C , 15-N ) :   1.0268 B(  1-C , 27-H ) :   0.9927
B(  2-C ,  3-C ) :   1.3433 B(  2-C ,  4-H ) :   0.9531 B(  3-C ,  5-C ) :   1.3460
B(  3-C , 11-C ) :   1.0338 B(  5-C ,  6-C ) :   1.3433 B(  5-C ,  7-H ) :   0.9532
B(  6-C ,  8-C ) :   1.3460 B(  6-C ,  9-C ) :   1.0339 B(  8-C , 10-H ) :   0.9531
B(  9-C , 22-N ) :   1.0270 B(  9-C , 23-N ) :   1.0206 B(  9-C , 25-H ) :   0.9928
B( 11-C , 18-N ) :   1.0270 B( 11-C , 19-N ) :   1.0206 B( 11-C , 31-H ) :   0.9928
B( 12-C , 13-C ) :   0.9376 B( 12-C , 14-N ) :   1.0194 B( 12-C , 43-C ) :   0.9591
B( 12-C , 48-H ) :   0.9760 B( 13-C , 15-N ) :   0.9867 B( 13-C , 32-C ) :   0.9573
B( 13-C , 36-H ) :   0.9656 B( 14-N , 28-H ) :   0.9961 B( 15-N , 33-H ) :   0.9949
B( 16-C , 17-C ) :   0.9377 B( 16-C , 18-N ) :   0.9865 B( 16-C , 34-C ) :   0.9572
B( 16-C , 49-H ) :   0.9656 B( 17-C , 19-N ) :   1.0194 B( 17-C , 56-C ) :   0.9591
B( 17-C , 59-H ) :   0.9760 B( 18-N , 29-H ) :   0.9949 B( 19-N , 30-H ) :   0.9963
B( 20-C , 21-C ) :   0.9377 B( 20-C , 22-N ) :   0.9864 B( 20-C , 35-C ) :   0.9573
B( 20-C , 62-H ) :   0.9656 B( 21-C , 23-N ) :   1.0195 B( 21-C , 69-C ) :   0.9591
B( 21-C , 74-H ) :   0.9761 B( 22-N , 24-H ) :   0.9949 B( 23-N , 26-H ) :   0.9962
B( 32-C , 37-C ) :   0.9501 B( 32-C , 38-H ) :   0.9832 B( 32-C , 39-H ) :   0.9898
B( 34-C , 50-C ) :   0.9500 B( 34-C , 51-H ) :   0.9833 B( 34-C , 52-H ) :   0.9898
B( 35-C , 63-C ) :   0.9500 B( 35-C , 64-H ) :   0.9832 B( 35-C , 65-H ) :   0.9898
B( 37-C , 40-C ) :   0.9435 B( 37-C , 41-H ) :   0.9947 B( 37-C , 42-H ) :   0.9850
B( 40-C , 43-C ) :   0.9490 B( 40-C , 44-H ) :   0.9948 B( 40-C , 45-H ) :   0.9853
B( 43-C , 46-H ) :   0.9911 B( 43-C , 47-H ) :   0.9822 B( 50-C , 53-C ) :   0.9435
B( 50-C , 54-H ) :   0.9947 B( 50-C , 55-H ) :   0.9850 B( 53-C , 56-C ) :   0.9490
B( 53-C , 57-H ) :   0.9852 B( 53-C , 58-H ) :   0.9948 B( 56-C , 60-H ) :   0.9911
B( 56-C , 61-H ) :   0.9822 B( 63-C , 66-C ) :   0.9435 B( 63-C , 67-H ) :   0.9947
B( 63-C , 68-H ) :   0.9850 B( 66-C , 69-C ) :   0.9491 B( 66-C , 70-H ) :   0.9852
B( 66-C , 71-H ) :   0.9948 B( 69-C , 72-H ) :   0.9911 B( 69-C , 73-H ) :   0.9822

MP2 TOTAL ENERGY:    -1379.778182728 Eh
FINAL SINGLE POINT ENERGY     -1379.778182727529

DIPOLE MOMENT
-------------
                                X             Y             Z
Electronic contribution:     -1.85316     -16.59314      -4.21389
Nuclear contribution   :      1.93338      17.31407       4.39823
                        -----------------------------------------
Total Dipole Moment    :      0.08022       0.72093       0.18434
                        -----------------------------------------
Magnitude (a.u.)       :      0.74844
Magnitude (Debye)      :      1.90238

Rotational constants in cm-1:     0.003240     0.003229     0.001886
Rotational constants in MHz :    97.124757    96.802276    56.525922

                             ****ORCA TERMINATED NORMALLY****
TOTAL RUN TIME: 0 days 0 hours 34 minutes 14 seconds 790 msec
