                         Program Version 4.2.1 -  RELEASE  -
|  1> ! DFT COPT B97-3c TightSCF printbasis  Grid6 NOFINALGRID SlowConv NOSOSCF
|  2>
|  3> %base "_o_1_alde1_2_ami1_1_opt_B97-3c"
|  4> %maxcore 3000
|  5> %scf
|  6>    MaxIter 2000
|  7> end
|  8> %pal
|  9>    nprocs 32
| 10> end
| 11>
| 12> * xyzfile 0 1 o_1_alde1_2_ami1_1_opt.xyz
| 13>
| 14>                          ****END OF INPUT****
 Total Charge           Charge          ....    0
 Multiplicity           Mult            ....    1
 Number of Electrons    NEL             ....  228
Dispersion correction           -0.192841273
FINAL SINGLE POINT ENERGY     -1271.578798792685
Dispersion correction            ... done
Dispersion correction           -0.192874084
FINAL SINGLE POINT ENERGY     -1271.579704508582
Dispersion correction            ... done
Dispersion correction           -0.192915737
FINAL SINGLE POINT ENERGY     -1271.580100701841
Dispersion correction            ... done
FINAL SINGLE POINT ENERGY     -1271.580363684728
FINAL SINGLE POINT ENERGY     -1271.580570334179
FINAL SINGLE POINT ENERGY     -1271.580684673092
FINAL SINGLE POINT ENERGY     -1271.580782194535
FINAL SINGLE POINT ENERGY     -1271.580869870439
FINAL SINGLE POINT ENERGY     -1271.580951433973
FINAL SINGLE POINT ENERGY     -1271.581004785104
FINAL SINGLE POINT ENERGY     -1271.581689252028
FINAL SINGLE POINT ENERGY     -1271.581692873578
FINAL SINGLE POINT ENERGY     -1271.581696453860
FINAL SINGLE POINT ENERGY     -1271.581699908633
FINAL SINGLE POINT ENERGY     -1271.581703545787
FINAL SINGLE POINT ENERGY     -1271.581707500967
FINAL SINGLE POINT ENERGY     -1271.581711981856
Dispersion correction            ... done
Dispersion correction           -0.192191069
FINAL SINGLE POINT ENERGY     -1271.581716370883
Dispersion correction            ... done
Dispersion correction           -0.192204150
FINAL SINGLE POINT ENERGY     -1271.581720283839
Dispersion correction            ... done
                    ***********************HURRAY********************

CARTESIAN COORDINATES (ANGSTROEM)
---------------------------------
  C     -1.212727    0.419555   -1.577411
  C     -1.385201   -0.723038   -0.671536
  C     -2.302691    0.981609   -2.239973
  C     -2.118771    2.054995   -3.096038
  H     -3.294842    0.587113   -2.075592
  C     -0.834864    2.558690   -3.288184
  C      0.263140    2.011341   -2.631898
  H     -0.688175    3.396523   -3.960673
  C      0.064889    0.941551   -1.772296
  C      1.628553    2.619535   -2.811989
  H      0.922110    0.514651   -1.267359
  C     -3.285608    2.620339   -3.859516
  O     -2.440687   -1.268697   -0.415789
  C     -5.633919    2.622322   -4.071149
  C     -4.958966    2.140015   -5.388601
  N     -4.537819    2.550702   -3.104886
  H     -6.416820    1.918243   -3.768533
  C     -6.299120    3.999703   -4.209869
  N     -3.557948    1.848274   -5.061567
  H     -4.953526    2.983104   -6.084594
  C     -5.666343    0.974128   -6.081063
  H     -5.530840    4.705329   -4.545847
  C     -6.859099    4.496899   -2.882390
  C     -7.409267    3.964655   -5.252389
  H     -6.716349    1.267441   -6.156434
  C     -5.612061   -0.321646   -5.278893
  C     -5.141207    0.764756   -7.494812
  H     -8.177758    3.242805   -4.970812
  H     -7.042736    3.689265   -6.238932
  H     -7.890960    4.937258   -5.343895
  H     -7.595342    3.795928   -2.485772
  H     -7.352356    5.460919   -3.004932
  H     -6.089659    4.632353   -2.122553
  H     -4.083524    0.507105   -7.484915
  H     -5.254178    1.666290   -8.096438
  H     -5.678664   -0.039315   -7.996501
  H     -5.865032   -0.172716   -4.230424
  H     -4.624644   -0.783289   -5.317537
  H     -6.310126   -1.049915   -5.688874
  C      3.880274    2.517386   -2.086584
  C      3.275427    3.922083   -1.823322
  N      2.717572    1.703680   -2.462845
  H      4.276849    2.125024   -1.144589
  C      5.038952    2.507529   -3.096656
  N      1.819192    3.761493   -1.930866
  H      3.591939    4.599470   -2.621935
  C      3.676195    4.554765   -0.494778
  H      5.744228    3.270239   -2.754825
  C      4.620124    2.867605   -4.515809
  C      5.771524    1.171495   -3.074033
  H      3.335475    3.873497    0.294909
  C      2.997268    5.904744   -0.297790
  C      5.185759    4.700971   -0.364858
  H      5.132954    0.356337   -3.418503
  H      6.107014    0.921294   -2.067934
  H      6.646382    1.190448   -3.723414
  H      3.939779    2.124586   -4.933631
  H      5.488310    2.907840   -5.172440
  H      4.125458    3.835327   -4.572023
  H      5.444640    5.157867    0.589314
  H      5.584999    5.342185   -1.152048
  H      5.700991    3.744371   -0.419081
  H      3.254858    6.330343    0.671617
  H      1.914733    5.833201   -0.362456
  H      3.322639    6.610295   -1.063744
  H      2.923632    1.056903   -3.212652
  H      1.713506    2.984738   -3.844714
  H      1.457952    3.494518   -1.019375
  H     -4.594461    3.261267   -2.388562
  H     -3.479311    0.872116   -4.801362
  H     -3.042462    3.647185   -4.170649
  H     -0.441313   -1.082512   -0.209050

 Multiplicity           Mult            ....    1
 Number of Electrons    NEL             ....  228
 Basis Dimension        Dim             ....  701

ORBITAL ENERGIES
----------------

  NO   OCC          E(Eh)            E(eV)
   0   2.0000     -18.729495      -509.6555
   1   2.0000     -13.978697      -380.3797
   2   2.0000     -13.974608      -380.2684
   3   2.0000     -13.972424      -380.2090
   4   2.0000     -13.969713      -380.1352
   5   2.0000      -9.966172      -271.1933
   6   2.0000      -9.948301      -270.7070
   7   2.0000      -9.944862      -270.6134
   8   2.0000      -9.918482      -269.8956
   9   2.0000      -9.917190      -269.8605
  10   2.0000      -9.913815      -269.7686
  11   2.0000      -9.912640      -269.7366
  12   2.0000      -9.905560      -269.5440
  13   2.0000      -9.904599      -269.5178
  14   2.0000      -9.904172      -269.5062
  15   2.0000      -9.902061      -269.4488
  16   2.0000      -9.901131      -269.4235
  17   2.0000      -9.900785      -269.4141
  18   2.0000      -9.899321      -269.3742
  19   2.0000      -9.896682      -269.3024
  20   2.0000      -9.895580      -269.2724
  21   2.0000      -9.895072      -269.2586
  22   2.0000      -9.884938      -268.9829
  23   2.0000      -9.884405      -268.9683
  24   2.0000      -9.883993      -268.9571
  25   2.0000      -9.882509      -268.9167
  26   2.0000      -9.881151      -268.8798
  27   2.0000      -9.877882      -268.7908
  28   2.0000      -9.877439      -268.7788
  29   2.0000      -9.874134      -268.6888
  30   2.0000      -0.952548       -25.9201
  31   2.0000      -0.891283       -24.2530
  32   2.0000      -0.887409       -24.1476
  33   2.0000      -0.799735       -21.7619
  34   2.0000      -0.790906       -21.5216
  35   2.0000      -0.786131       -21.3917
  36   2.0000      -0.753510       -20.5040
  37   2.0000      -0.746539       -20.3144
  38   2.0000      -0.723547       -19.6887
  39   2.0000      -0.719789       -19.5865
  40   2.0000      -0.708026       -19.2664
  41   2.0000      -0.704496       -19.1703
  42   2.0000      -0.654650       -17.8139
  43   2.0000      -0.646530       -17.5930
  44   2.0000      -0.630950       -17.1690
  45   2.0000      -0.626891       -17.0586
  46   2.0000      -0.626587       -17.0503
  47   2.0000      -0.622844       -16.9484
  48   2.0000      -0.596132       -16.2216
  49   2.0000      -0.587837       -15.9959
  50   2.0000      -0.574403       -15.6303
  51   2.0000      -0.571135       -15.5414
  52   2.0000      -0.567058       -15.4304
  53   2.0000      -0.532359       -14.4862
  54   2.0000      -0.526963       -14.3394
  55   2.0000      -0.515716       -14.0333
  56   2.0000      -0.512834       -13.9549
  57   2.0000      -0.505689       -13.7605
  58   2.0000      -0.500912       -13.6305
  59   2.0000      -0.471578       -12.8323
  60   2.0000      -0.465749       -12.6737
  61   2.0000      -0.452778       -12.3207
  62   2.0000      -0.445226       -12.1152
  63   2.0000      -0.438518       -11.9327
  64   2.0000      -0.430197       -11.7062
  65   2.0000      -0.422643       -11.5007
  66   2.0000      -0.421743       -11.4762
  67   2.0000      -0.408308       -11.1106
  68   2.0000      -0.408020       -11.1028
  69   2.0000      -0.405148       -11.0246
  70   2.0000      -0.401015       -10.9122
  71   2.0000      -0.395617       -10.7653
  72   2.0000      -0.391110       -10.6427
  73   2.0000      -0.385118       -10.4796
  74   2.0000      -0.380378       -10.3506
  75   2.0000      -0.377823       -10.2811
  76   2.0000      -0.376056       -10.2330
  77   2.0000      -0.373666       -10.1680
  78   2.0000      -0.368296       -10.0218
  79   2.0000      -0.366034        -9.9603
  80   2.0000      -0.361405        -9.8343
  81   2.0000      -0.356406        -9.6983
  82   2.0000      -0.351622        -9.5681
  83   2.0000      -0.350822        -9.5463
  84   2.0000      -0.347993        -9.4694
  85   2.0000      -0.346477        -9.4281
  86   2.0000      -0.343107        -9.3364
  87   2.0000      -0.340793        -9.2734
  88   2.0000      -0.338907        -9.2221
  89   2.0000      -0.337858        -9.1936
  90   2.0000      -0.330511        -8.9937
  91   2.0000      -0.325702        -8.8628
  92   2.0000      -0.323769        -8.8102
  93   2.0000      -0.318557        -8.6684
  94   2.0000      -0.314021        -8.5450
  95   2.0000      -0.313247        -8.5239
  96   2.0000      -0.307405        -8.3649
  97   2.0000      -0.304444        -8.2843
  98   2.0000      -0.302097        -8.2205
  99   2.0000      -0.301650        -8.2083
 100   2.0000      -0.294671        -8.0184
 101   2.0000      -0.293869        -7.9966
 102   2.0000      -0.290094        -7.8938
 103   2.0000      -0.289293        -7.8721
 104   2.0000      -0.284113        -7.7311
 105   2.0000      -0.278901        -7.5893
 106   2.0000      -0.274127        -7.4594
 107   2.0000      -0.235356        -6.4044
 108   2.0000      -0.231645        -6.3034
 109   2.0000      -0.206195        -5.6109
 110   2.0000      -0.203387        -5.5344
 111   2.0000      -0.198377        -5.3981
 112   2.0000      -0.189341        -5.1522
 113   2.0000      -0.185339        -5.0433
 114   0.0000      -0.088880        -2.4185
 115   0.0000      -0.044329        -1.2062
 116   0.0000      -0.000009        -0.0002
 117   0.0000       0.012960         0.3527
 118   0.0000       0.019140         0.5208

MULLIKEN ATOMIC CHARGES
-----------------------
   0 C :    0.349551
   1 C :   -0.181206
   2 C :   -0.119684
   3 C :    0.390852
   4 H :    0.228478
   5 C :   -0.302719
   6 C :    0.232863
   7 H :    0.187600
   8 C :   -0.209604
   9 C :   -0.534005
  10 H :    0.217134
  11 C :   -0.610680
  12 O :   -0.310068
  13 C :    0.005344
  14 C :   -0.116432
  15 N :   -0.285796
  16 H :    0.150833
  17 C :   -0.278285
  18 N :   -0.249051
  19 H :    0.163302
  20 C :   -0.184042
  21 H :    0.169786
  22 C :   -0.483868
  23 C :   -0.501032
  24 H :    0.177254
  25 C :   -0.588355
  26 C :   -0.474246
  27 H :    0.161425
  28 H :    0.179800
  29 H :    0.172221
  30 H :    0.164617
  31 H :    0.171476
  32 H :    0.152087
  33 H :    0.169970
  34 H :    0.159776
  35 H :    0.169669
  36 H :    0.200669
  37 H :    0.171055
  38 H :    0.175570
  39 C :    0.114140
  40 C :   -0.194144
  41 N :   -0.324507
  42 H :    0.145615
  43 C :   -0.324710
  44 N :   -0.240554
  45 H :    0.141075
  46 C :   -0.212874
  47 H :    0.175628
  48 C :   -0.521113
  49 C :   -0.454060
  50 H :    0.161856
  51 C :   -0.456144
  52 C :   -0.517727
  53 H :    0.146922
  54 H :    0.168547
  55 H :    0.173217
  56 H :    0.149059
  57 H :    0.179939
  58 H :    0.181330
  59 H :    0.175786
  60 H :    0.163128
  61 H :    0.179286
  62 H :    0.168194
  63 H :    0.178677
  64 H :    0.150026
  65 H :    0.297053
  66 H :    0.158098
  67 H :    0.303109
  68 H :    0.289248
  69 H :    0.295280
  70 H :    0.154204
  71 H :    0.104156
Sum of atomic charges:   -0.0000000

LOEWDIN ATOMIC CHARGES
----------------------
   0 C :   -0.073079
   1 C :    0.206729
   2 C :   -0.098906
   3 C :   -0.070876
   4 H :    0.197928
   5 C :   -0.108977
   6 C :   -0.076191
   7 H :    0.175812
   8 C :   -0.131696
   9 C :   -0.030682
  10 H :    0.183476
  11 C :   -0.028808
  12 O :   -0.472087
  13 C :   -0.124634
  14 C :   -0.114275
  15 N :   -0.354886
  16 H :    0.151373
  17 C :   -0.230300
  18 N :   -0.332660
  19 H :    0.157464
  20 C :   -0.225099
  21 H :    0.153478
  22 C :   -0.421309
  23 C :   -0.420662
  24 H :    0.159626
  25 C :   -0.426998
  26 C :   -0.416904
  27 H :    0.155088
  28 H :    0.154800
  29 H :    0.155126
  30 H :    0.157395
  31 H :    0.155591
  32 H :    0.144923
  33 H :    0.159279
  34 H :    0.152880
  35 H :    0.152541
  36 H :    0.162434
  37 H :    0.152005
  38 H :    0.157955
  39 C :   -0.119466
  40 C :   -0.115252
  41 N :   -0.359141
  42 H :    0.150838
  43 C :   -0.234256
  44 N :   -0.334754
  45 H :    0.157326
  46 C :   -0.220313
  47 H :    0.160449
  48 C :   -0.423366
  49 C :   -0.417439
  50 H :    0.153235
  51 C :   -0.419084
  52 C :   -0.419916
  53 H :    0.149566
  54 H :    0.155124
  55 H :    0.154601
  56 H :    0.149274
  57 H :    0.157476
  58 H :    0.154083
  59 H :    0.156664
  60 H :    0.154478
  61 H :    0.154158
  62 H :    0.152135
  63 H :    0.159550
  64 H :    0.155336
  65 H :    0.263822
  66 H :    0.144669
  67 H :    0.270513
  68 H :    0.264382
  69 H :    0.269318
  70 H :    0.140264
  71 H :    0.148857

  Mayer bond orders larger than 0.100000
B(  0-C ,  1-C ) :   0.8893 B(  0-C ,  2-C ) :   1.1781 B(  0-C ,  8-C ) :   1.1444
B(  0-C , 12-O ) :  -0.1640 B(  0-C , 71-H ) :  -0.1092 B(  1-C , 12-O ) :   2.0719
B(  1-C , 71-H ) :   0.9613 B(  2-C ,  3-C ) :   1.2473 B(  2-C ,  4-H ) :   0.9113
B(  3-C ,  5-C ) :   1.2836 B(  3-C ,  6-C ) :   0.1123 B(  3-C , 11-C ) :   0.6717
B(  5-C ,  6-C ) :   1.3398 B(  5-C ,  7-H ) :   0.9162 B(  6-C ,  8-C ) :   1.4425
B(  6-C ,  9-C ) :   0.6992 B(  8-C , 10-H ) :   0.8733 B(  9-C , 41-N ) :   0.9657
B(  9-C , 44-N ) :   1.2229 B(  9-C , 66-H ) :   0.9574 B( 11-C , 15-N ) :   0.9359
B( 11-C , 18-N ) :   1.1876 B( 11-C , 70-H ) :   0.9580 B( 13-C , 14-C ) :   0.7593
B( 13-C , 15-N ) :   0.9782 B( 13-C , 16-H ) :   0.9281 B( 13-C , 17-C ) :   0.9244
B( 14-C , 18-N ) :   1.0885 B( 14-C , 19-H ) :   0.9625 B( 14-C , 20-C ) :   0.8356
B( 15-N , 68-H ) :   0.8708 B( 17-C , 21-H ) :   0.9592 B( 17-C , 22-C ) :   0.9979
B( 17-C , 23-C ) :   0.9703 B( 18-N , 69-H ) :   0.8493 B( 20-C , 24-H ) :   0.9570
B( 20-C , 25-C ) :   0.9817 B( 20-C , 26-C ) :   0.9813 B( 22-C , 30-H ) :   0.9594
B( 22-C , 31-H ) :   0.9600 B( 22-C , 32-H ) :   0.9529 B( 23-C , 27-H ) :   0.9583
B( 23-C , 28-H ) :   0.9505 B( 23-C , 29-H ) :   0.9553 B( 25-C , 36-H ) :   0.9532
B( 25-C , 37-H ) :   0.9592 B( 25-C , 38-H ) :   0.9561 B( 26-C , 33-H ) :   0.9592
B( 26-C , 34-H ) :   0.9581 B( 26-C , 35-H ) :   0.9607 B( 39-C , 40-C ) :   0.7464
B( 39-C , 41-N ) :   1.0036 B( 39-C , 42-H ) :   0.9564 B( 39-C , 43-C ) :   0.8409
B( 39-C , 48-C ) :  -0.1334 B( 40-C , 44-N ) :   1.0791 B( 40-C , 45-H ) :   0.9376
B( 40-C , 46-C ) :   0.9576 B( 41-N , 65-H ) :   0.8550 B( 43-C , 47-H ) :   0.9471
B( 43-C , 48-C ) :   1.0268 B( 43-C , 49-C ) :   0.9906 B( 44-N , 67-H ) :   0.8225
B( 46-C , 50-H ) :   0.9448 B( 46-C , 51-C ) :   1.0031 B( 46-C , 52-C ) :   0.9677
B( 48-C , 56-H ) :   0.9522 B( 48-C , 57-H ) :   0.9542 B( 48-C , 58-H ) :   0.9587
B( 49-C , 53-H ) :   0.9534 B( 49-C , 54-H ) :   0.9580 B( 49-C , 55-H ) :   0.9603
B( 51-C , 62-H ) :   0.9594 B( 51-C , 63-H ) :   0.9503 B( 51-C , 64-H ) :   0.9567
B( 52-C , 59-H ) :   0.9554 B( 52-C , 60-H ) :   0.9622 B( 52-C , 61-H ) :   0.9531

Dispersion correction           -0.192217062
FINAL SINGLE POINT ENERGY     -1271.581723888032

DIPOLE MOMENT
-------------
                                X             Y             Z
Electronic contribution:     -3.97769     -14.58911      12.42883
Nuclear contribution   :      4.84333      15.74640     -13.07163
                        -----------------------------------------
Total Dipole Moment    :      0.86564       1.15729      -0.64281
                        -----------------------------------------
Magnitude (a.u.)       :      1.58172
Magnitude (Debye)      :      4.02042

Rotational constants in cm-1:     0.008182     0.001969     0.001912
Rotational constants in MHz :   245.293688    59.024894    57.312743

                             ****ORCA TERMINATED NORMALLY****
TOTAL RUN TIME: 0 days 0 hours 46 minutes 13 seconds 878 msec
