                         Program Version 4.2.1 -  RELEASE  -
|  1> ! RI-MP2 cc-pVTZ cc-pVTZ/C TIGHTSCF printbasis Grid6 NOFINALGRID SlowConv
|  2>
|  3> %base "_o_1_alde1_3_ami1_2_opt_MP2"
|  4> %maxcore 3000
|  5> %pal
|  6>    nprocs 32
|  7> end
|  8>
|  9> * xyzfile 0 1 _o_1_alde1_3_ami1_2_opt_B97-3c.xyz
| 10>
| 11>                          ****END OF INPUT****

CARTESIAN COORDINATES (ANGSTROEM)
---------------------------------
  C     -2.139332   -1.004326   -1.246782
  C     -2.709009   -2.059037   -0.378820
  C     -2.962603   -0.385570   -2.174791
  C     -2.483549    0.656627   -2.976142
  H     -3.997227   -0.681903   -2.281370
  C     -1.158132    1.053833   -2.855540
  C     -0.306576    0.413726   -1.953011
  H     -0.764395    1.857626   -3.464574
  C     -0.799233   -0.618512   -1.161646
  C      1.090570    0.809061   -1.788287
  H     -0.144513   -1.127196   -0.464038
  C     -3.355652    1.331475   -3.936391
  C     -0.815514   -1.861642    2.448158
  C     -1.981716   -1.187021    1.708208
  N      0.041347   -2.519609    1.453432
  H     -1.253436   -2.595069    3.135609
  C      0.010394   -0.883877    3.297745
  N     -2.645081   -2.185104    0.885158
  H     -1.567089   -0.378942    1.104714
  C     -3.033101   -0.539641    2.632946
  H     -0.685057   -0.417925    3.998412
  C      0.676964    0.221667    2.487435
  C      1.042998   -1.624139    4.142399
  H     -2.498671    0.220545    3.207463
  C     -3.685896   -1.505768    3.610865
  C     -4.081512    0.188328    1.800989
  H      1.492780   -0.952730    4.872523
  H      1.859454   -2.018771    3.536464
  H      0.594616   -2.453664    4.689474
  H      1.272448    0.863892    3.135667
  H     -0.045321    0.856937    1.978255
  H      1.338945   -0.196158    1.731479
  H     -4.692286   -0.513236    1.235306
  H     -3.620658    0.875029    1.090881
  H     -4.747182    0.766520    2.440372
  H     -2.974035   -1.915232    4.325636
  H     -4.147067   -2.337946    3.083639
  H     -4.461032   -0.996927    4.183638
  C     -5.366699    1.765692   -5.049636
  C     -6.499522    2.492118   -4.306477
  N     -4.585850    1.044967   -4.066095
  H     -4.751802    2.535549   -5.534254
  C     -5.835925    0.788303   -6.144659
  N     -5.880188    3.441939   -3.377518
  H     -7.068684    1.720437   -3.771907
  C     -7.487647    3.215602   -5.233029
  H     -6.403648    1.384580   -6.861499
  C     -6.739972   -0.321891   -5.628115
  C     -4.639278    0.213233   -6.890817
  H     -7.945663    2.444885   -5.856449
  C     -6.832947    4.243170   -6.146355
  C     -8.617200    3.853760   -4.429801
  H     -4.964866   -0.367482   -7.753043
  H     -4.051947   -0.444184   -6.251683
  H     -3.979202    1.001852   -7.253406
  H     -7.027506   -0.986946   -6.442469
  H     -7.655289    0.065770   -5.184911
  H     -6.231480   -0.915584   -4.871391
  H     -9.053117    3.150400   -3.719025
  H     -9.415097    4.192658   -5.089335
  H     -8.274200    4.728346   -3.876644
  H     -6.142234    3.786382   -6.853016
  H     -6.275538    4.973884   -5.564741
  H     -7.587113    4.773376   -6.727732
  C      2.980097    2.145031   -2.052657
  C      3.039731    3.408863   -1.135624
  N      1.598533    1.832229   -2.342426
  H      3.437549    1.314094   -1.502315
  C      3.794313    2.273910   -3.351447
  N      2.004851    4.404038   -1.405853
  H      4.000648    3.897641   -1.321657
  C      3.017650    3.005746    0.350557
  H      4.825830    2.439406   -3.024144
  C      3.392641    3.442745   -4.240146
  C      3.757890    0.966732   -4.132226
  H      2.179092    2.313855    0.491979
  C      2.795353    4.201032    1.268073
  C      4.299850    2.290274    0.761024
  H      2.758633    0.772141   -4.519234
  H      4.040323    0.118477   -3.507791
  H      4.443207    0.999882   -4.978551
  H      3.949719    3.416782   -5.176751
  H      3.606091    4.404924   -3.776335
  H      2.332314    3.401872   -4.483687
  H      5.155435    2.961468    0.668689
  H      4.510351    1.404885    0.164511
  H      4.245992    1.971826    1.801356
  H      3.586089    4.940190    1.133681
  H      2.808006    3.884139    2.311297
  H      1.853752    4.699969    1.066399
  H      1.102112    3.946078   -1.349124
  H      2.076409    4.701463   -2.369021
  H     -0.505917   -3.235511    0.991114
  H      0.790108   -3.009094    1.926093
  H     -6.592973    3.852697   -2.788581
  H     -5.269282    2.930101   -2.753461
  H     -3.304140   -2.811097   -0.900956
  H     -2.881295    2.115847   -4.541320
  H      1.680891    0.160643   -1.124393

 Total Charge           Charge          ....    0
 Multiplicity           Mult            ....    1
 Number of Electrons    NEL             ....  300
 Basis Dimension        Dim             .... 2010

ORBITAL ENERGIES
----------------

  NO   OCC          E(Eh)            E(eV)
   0   2.0000     -15.556135      -423.3040
   1   2.0000     -15.554288      -423.2537
   2   2.0000     -15.553702      -423.2377
   3   2.0000     -15.538138      -422.8142
   4   2.0000     -15.527205      -422.5167
   5   2.0000     -15.521010      -422.3481
   6   2.0000     -11.283159      -307.0304
   7   2.0000     -11.282599      -307.0151
   8   2.0000     -11.282185      -307.0038
   9   2.0000     -11.251548      -306.1702
  10   2.0000     -11.250748      -306.1484
  11   2.0000     -11.250264      -306.1353
  12   2.0000     -11.249811      -306.1229
  13   2.0000     -11.248832      -306.0963
  14   2.0000     -11.248407      -306.0847
  15   2.0000     -11.247119      -306.0497
  16   2.0000     -11.246810      -306.0413
  17   2.0000     -11.246768      -306.0401
  18   2.0000     -11.246243      -306.0258
  19   2.0000     -11.245129      -305.9955
  20   2.0000     -11.243524      -305.9518
  21   2.0000     -11.226560      -305.4902
  22   2.0000     -11.224073      -305.4226
  23   2.0000     -11.222703      -305.3853
  24   2.0000     -11.222177      -305.3710
  25   2.0000     -11.219893      -305.3088
  26   2.0000     -11.217246      -305.2368
  27   2.0000     -11.215231      -305.1819
  28   2.0000     -11.209199      -305.0178
  29   2.0000     -11.209034      -305.0133
  30   2.0000     -11.207939      -304.9835
  31   2.0000     -11.206957      -304.9568
  32   2.0000     -11.206586      -304.9467
  33   2.0000     -11.205810      -304.9256
  34   2.0000     -11.204331      -304.8854
  35   2.0000     -11.203457      -304.8616
  36   2.0000     -11.202366      -304.8319
  37   2.0000     -11.201029      -304.7955
  38   2.0000     -11.194162      -304.6086
  39   2.0000      -1.249689       -34.0058
  40   2.0000      -1.246491       -33.9187
  41   2.0000      -1.244879       -33.8749
  42   2.0000      -1.188230       -32.3334
  43   2.0000      -1.181330       -32.1456
  44   2.0000      -1.176097       -32.0032
  45   2.0000      -1.162858       -31.6430
  46   2.0000      -1.088802       -29.6278
  47   2.0000      -1.087924       -29.6039
  48   2.0000      -1.080532       -29.4028
  49   2.0000      -1.064686       -28.9716
  50   2.0000      -1.061216       -28.8772
  51   2.0000      -1.059279       -28.8245
  52   2.0000      -1.045945       -28.4616
  53   2.0000      -1.045442       -28.4479
  54   2.0000      -0.970090       -26.3975
  55   2.0000      -0.964305       -26.2401
  56   2.0000      -0.958157       -26.0728
  57   2.0000      -0.934453       -25.4278
  58   2.0000      -0.930215       -25.3124
  59   2.0000      -0.929118       -25.2826
  60   2.0000      -0.927262       -25.2321
  61   2.0000      -0.926049       -25.1991
  62   2.0000      -0.919876       -25.0311
  63   2.0000      -0.890556       -24.2333
  64   2.0000      -0.889139       -24.1947
  65   2.0000      -0.876463       -23.8498
  66   2.0000      -0.852292       -23.1920
  67   2.0000      -0.844555       -22.9815
  68   2.0000      -0.829631       -22.5754
  69   2.0000      -0.793403       -21.5896
  70   2.0000      -0.786642       -21.4056
  71   2.0000      -0.767834       -20.8938
  72   2.0000      -0.762323       -20.7439
  73   2.0000      -0.755079       -20.5467
  74   2.0000      -0.746487       -20.3129
  75   2.0000      -0.734735       -19.9931
  76   2.0000      -0.723113       -19.6769
  77   2.0000      -0.695247       -18.9186
  78   2.0000      -0.687850       -18.7174
  79   2.0000      -0.682051       -18.5595
  80   2.0000      -0.675573       -18.3833
  81   2.0000      -0.669791       -18.2260
  82   2.0000      -0.666124       -18.1262
  83   2.0000      -0.660062       -17.9612
  84   2.0000      -0.656050       -17.8520
  85   2.0000      -0.640913       -17.4401
  86   2.0000      -0.637345       -17.3430
  87   2.0000      -0.632212       -17.2034
  88   2.0000      -0.626007       -17.0345
  89   2.0000      -0.619105       -16.8467
  90   2.0000      -0.612926       -16.6786
  91   2.0000      -0.604587       -16.4516
  92   2.0000      -0.600704       -16.3460
  93   2.0000      -0.597371       -16.2553
  94   2.0000      -0.594452       -16.1759
  95   2.0000      -0.593445       -16.1485
  96   2.0000      -0.587795       -15.9947
  97   2.0000      -0.582536       -15.8516
  98   2.0000      -0.579177       -15.7602
  99   2.0000      -0.575866       -15.6701
 100   2.0000      -0.574180       -15.6242
 101   2.0000      -0.572924       -15.5900
 102   2.0000      -0.571197       -15.5431
 103   2.0000      -0.566763       -15.4224
 104   2.0000      -0.560664       -15.2564
 105   2.0000      -0.548121       -14.9151
 106   2.0000      -0.544380       -14.8133
 107   2.0000      -0.543926       -14.8010
 108   2.0000      -0.541170       -14.7260
 109   2.0000      -0.536060       -14.5869
 110   2.0000      -0.535175       -14.5629
 111   2.0000      -0.532357       -14.4862
 112   2.0000      -0.529789       -14.4163
 113   2.0000      -0.529104       -14.3977
 114   2.0000      -0.526880       -14.3371
 115   2.0000      -0.526401       -14.3241
 116   2.0000      -0.523257       -14.2385
 117   2.0000      -0.521790       -14.1986
 118   2.0000      -0.514596       -14.0029
 119   2.0000      -0.513571       -13.9750
 120   2.0000      -0.506782       -13.7902
 121   2.0000      -0.489277       -13.3139
 122   2.0000      -0.486991       -13.2517
 123   2.0000      -0.482279       -13.1235
 124   2.0000      -0.481098       -13.0913
 125   2.0000      -0.477569       -12.9953
 126   2.0000      -0.476454       -12.9650
 127   2.0000      -0.475710       -12.9447
 128   2.0000      -0.475159       -12.9297
 129   2.0000      -0.473450       -12.8832
 130   2.0000      -0.472397       -12.8546
 131   2.0000      -0.469292       -12.7701
 132   2.0000      -0.465027       -12.6540
 133   2.0000      -0.463590       -12.6149
 134   2.0000      -0.461451       -12.5567
 135   2.0000      -0.457419       -12.4470
 136   2.0000      -0.450088       -12.2475
 137   2.0000      -0.447410       -12.1747
 138   2.0000      -0.440872       -11.9967
 139   2.0000      -0.432204       -11.7609
 140   2.0000      -0.425856       -11.5881
 141   2.0000      -0.409150       -11.1335
 142   2.0000      -0.406557       -11.0630
 143   2.0000      -0.403966       -10.9925
 144   2.0000      -0.396070       -10.7776
 145   2.0000      -0.386564       -10.5189
 146   2.0000      -0.382555       -10.4098
 147   2.0000      -0.373050       -10.1512
 148   2.0000      -0.332728        -9.0540
 149   2.0000      -0.324144        -8.8204
 150   0.0000       0.069439         1.8895
 151   0.0000       0.080295         2.1849
 152   0.0000       0.124774         3.3953
 153   0.0000       0.130867         3.5611
 154   0.0000       0.134987         3.6732

MULLIKEN ATOMIC CHARGES
-----------------------
   0 C :    0.162606
   1 C :   -0.162776
   2 C :   -0.209288
   3 C :    0.173410
   4 H :    0.173559
   5 C :   -0.209884
   6 C :    0.158816
   7 H :    0.166078
   8 C :   -0.228252
   9 C :   -0.125642
  10 H :    0.182796
  11 C :   -0.121813
  12 C :    0.040004
  13 C :   -0.010285
  14 N :   -0.395064
  15 H :    0.123517
  16 C :   -0.086992
  17 N :   -0.291271
  18 H :    0.138662
  19 C :   -0.065030
  20 H :    0.116657
  21 C :   -0.336264
  22 C :   -0.330348
  23 H :    0.112499
  24 C :   -0.315875
  25 C :   -0.333790
  26 H :    0.109436
  27 H :    0.087511
  28 H :    0.104649
  29 H :    0.120127
  30 H :    0.106753
  31 H :    0.103430
  32 H :    0.101542
  33 H :    0.102036
  34 H :    0.110797
  35 H :    0.093869
  36 H :    0.112095
  37 H :    0.102495
  38 C :    0.045800
  39 C :    0.023738
  40 N :   -0.296285
  41 H :    0.111322
  42 C :   -0.077281
  43 N :   -0.394157
  44 H :    0.115939
  45 C :   -0.083015
  46 H :    0.117218
  47 C :   -0.311154
  48 C :   -0.332490
  49 H :    0.115760
  50 C :   -0.316695
  51 C :   -0.336523
  52 H :    0.109524
  53 H :    0.101151
  54 H :    0.096461
  55 H :    0.102918
  56 H :    0.095336
  57 H :    0.108302
  58 H :    0.101167
  59 H :    0.107326
  60 H :    0.092395
  61 H :    0.094360
  62 H :    0.111117
  63 H :    0.102940
  64 C :   -0.013576
  65 C :    0.003372
  66 N :   -0.272123
  67 H :    0.113981
  68 C :   -0.031057
  69 N :   -0.366902
  70 H :    0.112188
  71 C :   -0.074643
  72 H :    0.105619
  73 C :   -0.341959
  74 C :   -0.327745
  75 H :    0.105982
  76 C :   -0.290143
  77 C :   -0.323100
  78 H :    0.101527
  79 H :    0.093263
  80 H :    0.108158
  81 H :    0.110180
  82 H :    0.098178
  83 H :    0.105701
  84 H :    0.095627
  85 H :    0.095059
  86 H :    0.105774
  87 H :    0.086103
  88 H :    0.088070
  89 H :    0.113346
  90 H :    0.143012
  91 H :    0.136611
  92 H :    0.155163
  93 H :    0.132437
  94 H :    0.137292
  95 H :    0.147057
  96 H :    0.159027
  97 H :    0.096992
  98 H :    0.105583
Sum of atomic charges:   -0.0000000

LOEWDIN ATOMIC CHARGES
----------------------
   0 C :   -0.072359
   1 C :   -0.073563
   2 C :    0.089173
   3 C :   -0.076678
   4 H :   -0.017401
   5 C :    0.087753
   6 C :   -0.077527
   7 H :   -0.018756
   8 C :    0.079722
   9 C :   -0.074348
  10 H :   -0.029660
  11 C :   -0.067705
  12 C :   -0.072719
  13 C :   -0.093500
  14 N :    0.352717
  15 H :   -0.032701
  16 C :   -0.021630
  17 N :    0.235090
  18 H :   -0.036143
  19 C :   -0.021720
  20 H :   -0.022515
  21 C :    0.115455
  22 C :    0.115195
  23 H :   -0.024495
  24 C :    0.116470
  25 C :    0.115463
  26 H :   -0.026766
  27 H :   -0.033685
  28 H :   -0.028673
  29 H :   -0.027561
  30 H :   -0.033435
  31 H :   -0.033873
  32 H :   -0.030803
  33 H :   -0.029842
  34 H :   -0.029769
  35 H :   -0.035795
  36 H :   -0.028429
  37 H :   -0.029052
  38 C :   -0.100059
  39 C :   -0.077303
  40 N :    0.238034
  41 H :   -0.029305
  42 C :   -0.024018
  43 N :    0.340686
  44 H :   -0.035441
  45 C :   -0.026320
  46 H :   -0.023664
  47 C :    0.116746
  48 C :    0.114721
  49 H :   -0.024152
  50 C :    0.116653
  51 C :    0.114548
  52 H :   -0.029029
  53 H :   -0.030979
  54 H :   -0.030811
  55 H :   -0.029062
  56 H :   -0.034598
  57 H :   -0.029949
  58 H :   -0.029638
  59 H :   -0.028089
  60 H :   -0.031722
  61 H :   -0.035477
  62 H :   -0.028667
  63 H :   -0.029738
  64 C :   -0.103553
  65 C :   -0.069096
  66 N :    0.232388
  67 H :   -0.032046
  68 C :   -0.028447
  69 N :    0.346462
  70 H :   -0.025087
  71 C :   -0.026812
  72 H :   -0.020862
  73 C :    0.114035
  74 C :    0.113537
  75 H :   -0.027302
  76 C :    0.115340
  77 C :    0.115105
  78 H :   -0.029775
  79 H :   -0.031087
  80 H :   -0.029766
  81 H :   -0.027045
  82 H :   -0.033710
  83 H :   -0.030728
  84 H :   -0.028624
  85 H :   -0.038480
  86 H :   -0.028626
  87 H :   -0.028251
  88 H :   -0.033973
  89 H :   -0.032745
  90 H :   -0.110651
  91 H :   -0.115545
  92 H :   -0.111609
  93 H :   -0.113029
  94 H :   -0.112777
  95 H :   -0.114528
  96 H :   -0.026899
  97 H :   -0.033127
  98 H :   -0.031994

  Mayer bond orders larger than 0.100000
B(  0-C ,  1-C ) :   0.8920 B(  0-C ,  2-C ) :   1.3835 B(  0-C ,  8-C ) :   1.3134
B(  1-C , 17-N ) :   2.0050 B(  1-C , 96-H ) :   0.9975 B(  2-C ,  3-C ) :   1.2907
B(  2-C ,  4-H ) :   0.9622 B(  3-C ,  5-C ) :   1.3894 B(  3-C , 11-C ) :   0.9999
B(  5-C ,  6-C ) :   1.3185 B(  5-C ,  7-H ) :   0.9608 B(  6-C ,  8-C ) :   1.3918
B(  6-C ,  9-C ) :   1.0145 B(  8-C , 10-H ) :   0.9267 B(  9-C , 66-N ) :   1.9472
B(  9-C , 98-H ) :   0.9881 B( 11-C , 40-N ) :   1.9465 B( 11-C , 97-H ) :   0.9923
B( 12-C , 13-C ) :   0.9518 B( 12-C , 14-N ) :   0.9490 B( 12-C , 15-H ) :   1.0031
B( 12-C , 16-C ) :   0.9378 B( 13-C , 17-N ) :   0.9066 B( 13-C , 18-H ) :   0.9739
B( 13-C , 19-C ) :   0.9601 B( 14-N , 92-H ) :   0.9718 B( 14-N , 93-H ) :   0.9864
B( 16-C , 20-H ) :   0.9842 B( 16-C , 21-C ) :   0.9640 B( 16-C , 22-C ) :   0.9489
B( 19-C , 23-H ) :   0.9815 B( 19-C , 24-C ) :   0.9531 B( 19-C , 25-C ) :   0.9448
B( 21-C , 29-H ) :   0.9851 B( 21-C , 30-H ) :   0.9786 B( 21-C , 31-H ) :   0.9716
B( 22-C , 26-H ) :   0.9867 B( 22-C , 27-H ) :   0.9832 B( 22-C , 28-H ) :   0.9854
B( 24-C , 35-H ) :   0.9829 B( 24-C , 36-H ) :   0.9737 B( 24-C , 37-H ) :   0.9875
B( 25-C , 32-H ) :   0.9799 B( 25-C , 33-H ) :   0.9847 B( 25-C , 34-H ) :   0.9870
B( 38-C , 39-C ) :   0.9595 B( 38-C , 40-N ) :   0.9175 B( 38-C , 41-H ) :   0.9761
B( 38-C , 42-C ) :   0.9490 B( 39-C , 43-N ) :   0.9710 B( 39-C , 44-H ) :   0.9969
B( 39-C , 45-C ) :   0.9360 B( 42-C , 46-H ) :   0.9799 B( 42-C , 47-C ) :   0.9508
B( 42-C , 48-C ) :   0.9472 B( 43-N , 94-H ) :   0.9911 B( 43-N , 95-H ) :   0.9812
B( 45-C , 49-H ) :   0.9851 B( 45-C , 50-C ) :   0.9465 B( 45-C , 51-C ) :   0.9472
B( 47-C , 55-H ) :   0.9870 B( 47-C , 56-H ) :   0.9831 B( 47-C , 57-H ) :   0.9751
B( 48-C , 52-H ) :   0.9879 B( 48-C , 53-H ) :   0.9811 B( 48-C , 54-H ) :   0.9860
B( 50-C , 61-H ) :   0.9841 B( 50-C , 62-H ) :   0.9713 B( 50-C , 63-H ) :   0.9886
B( 51-C , 58-H ) :   0.9863 B( 51-C , 59-H ) :   0.9879 B( 51-C , 60-H ) :   0.9840
B( 64-C , 65-C ) :   0.9640 B( 64-C , 66-N ) :   0.9123 B( 64-C , 67-H ) :   0.9904
B( 64-C , 68-C ) :   0.9580 B( 65-C , 69-N ) :   1.0060 B( 65-C , 70-H ) :   0.9833
B( 65-C , 71-C ) :   0.9714 B( 68-C , 72-H ) :   0.9829 B( 68-C , 73-C ) :   0.9416
B( 68-C , 74-C ) :   0.9486 B( 69-N , 90-H ) :   0.9882 B( 69-N , 91-H ) :   1.0074
B( 71-C , 75-H ) :   0.9660 B( 71-C , 76-C ) :   0.9707 B( 71-C , 77-C ) :   0.9537
B( 73-C , 81-H ) :   0.9862 B( 73-C , 82-H ) :   0.9844 B( 73-C , 83-H ) :   0.9759
B( 74-C , 78-H ) :   0.9784 B( 74-C , 79-H ) :   0.9857 B( 74-C , 80-H ) :   0.9867
B( 76-C , 87-H ) :   0.9798 B( 76-C , 88-H ) :   0.9878 B( 76-C , 89-H ) :   0.9775
B( 77-C , 84-H ) :   0.9802 B( 77-C , 85-H ) :   0.9837 B( 77-C , 86-H ) :   0.9865

MP2 TOTAL ENERGY:    -1618.671150265 Eh
FINAL SINGLE POINT ENERGY     -1618.671150264839

DIPOLE MOMENT
-------------
                                X             Y             Z
Electronic contribution:     -2.27584     -13.66838      -5.70440
Nuclear contribution   :      2.47995      12.89579       5.76544
                        -----------------------------------------
Total Dipole Moment    :      0.20411      -0.77259       0.06104
                        -----------------------------------------
Magnitude (a.u.)       :      0.80143
Magnitude (Debye)      :      2.03707

Rotational constants in cm-1:     0.003000     0.001660     0.001258
Rotational constants in MHz :    89.925326    49.774140    37.704691

                             ****ORCA TERMINATED NORMALLY****
TOTAL RUN TIME: 0 days 1 hours 7 minutes 36 seconds 140 msec
