                         Program Version 4.2.1 -  RELEASE  -
|  1> ! DFT COPT B97-3c TightSCF printbasis  Grid6 NOFINALGRID SlowConv
|  2>
|  3> %base "_o_1_alde1_3_ami3_2_opt_B97-3c"
|  4> %maxcore 3000
|  5> %scf
|  6>    MaxIter 2000
|  7> end
|  8> %pal
|  9>    nprocs 32
| 10> end
| 11>
| 12> * xyzfile 0 1 o_1_alde1_3_ami3_2_opt.xyz
| 13> # * xyzfile 0 1 _o_1_alde1_3_ami3_2_opt_B97-3c.xyz
| 14>
| 15>                          ****END OF INPUT****
 Total Charge           Charge          ....    0
 Multiplicity           Mult            ....    1
 Number of Electrons    NEL             ....  246
Dispersion correction           -0.202367769
FINAL SINGLE POINT ENERGY     -1382.006327970162
Dispersion correction            ... done
Dispersion correction           -0.202382125
FINAL SINGLE POINT ENERGY     -1382.007495501905
Dispersion correction            ... done
Dispersion correction           -0.202416763
FINAL SINGLE POINT ENERGY     -1382.008051733900
Dispersion correction            ... done
FINAL SINGLE POINT ENERGY     -1382.008522428055
FINAL SINGLE POINT ENERGY     -1382.008802482854
FINAL SINGLE POINT ENERGY     -1382.008928026965
FINAL SINGLE POINT ENERGY     -1382.009025773535
FINAL SINGLE POINT ENERGY     -1382.009122412664
FINAL SINGLE POINT ENERGY     -1382.009222251060
FINAL SINGLE POINT ENERGY     -1382.009305799054
FINAL SINGLE POINT ENERGY     -1382.010927787764
FINAL SINGLE POINT ENERGY     -1382.010936654055
FINAL SINGLE POINT ENERGY     -1382.010944852797
FINAL SINGLE POINT ENERGY     -1382.010952667967
FINAL SINGLE POINT ENERGY     -1382.010959647111
FINAL SINGLE POINT ENERGY     -1382.010966514409
FINAL SINGLE POINT ENERGY     -1382.010972834168
Dispersion correction            ... done
Dispersion correction           -0.201187433
FINAL SINGLE POINT ENERGY     -1382.010978130284
Dispersion correction            ... done
Dispersion correction           -0.201198780
FINAL SINGLE POINT ENERGY     -1382.010982487300
Dispersion correction            ... done
                    ***********************HURRAY********************

CARTESIAN COORDINATES (ANGSTROEM)
---------------------------------
  C     -0.857867    0.056373    0.158607
  C     -0.449146   -1.019563    1.089465
  C     -2.192965    0.406224   -0.070622
  C     -2.512851    1.452313   -0.931462
  H     -2.979757   -0.127168    0.448918
  C     -1.489527    2.151790   -1.573893
  C     -0.159919    1.825403   -1.346223
  H     -1.753971    2.962867   -2.239832
  C      0.146367    0.787886   -0.460666
  C      0.895250    2.580438   -2.020574
  H      1.188046    0.561377   -0.275471
  C     -3.917348    1.808456   -1.128035
  C     -3.142513   -3.104958    1.287382
  C     -1.937789   -2.752942    0.412253
  N     -3.652708   -1.889480    1.923280
  H     -2.792700   -3.842277    2.024515
  C     -4.226990   -3.751324    0.441040
  N     -0.885610   -2.204452    1.243294
  H     -2.283058   -2.057978   -0.359266
  C     -1.407967   -4.005658   -0.280630
  C     -3.718873   -4.987737   -0.286360
  C     -2.487652   -4.668703   -1.121476
  C     -5.700157    3.001163   -2.054065
  C     -6.121146    2.766258   -3.506703
  N     -4.287416    2.726235   -1.925368
  H     -6.299351    2.321603   -1.428983
  C     -5.978929    4.443514   -1.639719
  N     -5.914407    1.360721   -3.842527
  H     -5.509363    3.444240   -4.120660
  C     -7.582208    3.136845   -3.701919
  C     -7.436848    4.819378   -1.851746
  C     -7.865227    4.573043   -3.290497
  C      3.097052    3.096951   -2.607454
  C      3.891534    2.182924   -3.543462
  N      2.127707    2.302105   -1.889878
  H      2.606259    3.855898   -3.235515
  C      4.024216    3.789399   -1.612508
  N      2.982829    1.604612   -4.529209
  H      4.366740    1.422411   -2.905605
  C      4.987823    2.967777   -4.245221
  C      5.128482    4.561696   -2.316045
  C      5.913458    3.661585   -3.258171
  H      2.313777    1.009775   -4.056007
  H      3.502578    1.005579   -5.159174
  H     -2.971261   -1.566025    2.599917
  H     -4.490223   -2.108576    2.449010
  H     -4.924503    1.151974   -3.802066
  H     -6.203044    1.195205   -4.799109
  H      0.398915   -0.750647    1.723601
  H      0.555608    3.406018   -2.661210
  H     -8.925245    4.799138   -3.417599
  H     -7.321976    5.255122   -3.950774
  H     -7.593870    5.864246   -1.578547
  H     -8.067272    4.227029   -1.182777
  H     -5.692582    4.572770   -0.595206
  H     -5.332047    5.100669   -2.224534
  H     -7.855432    2.980842   -4.748829
  H     -8.195354    2.448658   -3.115125
  H     -4.640162    1.226700   -0.540348
  H      5.792181    5.014764   -1.577817
  H      4.691358    5.386135   -2.886063
  H      3.431309    4.449212   -0.977799
  H      4.454970    3.029778   -0.956985
  H      6.671391    4.235939   -3.793444
  H      6.450427    2.909481   -2.673238
  H      5.557253    2.291419   -4.888062
  H      4.519362    3.702304   -4.904655
  H     -2.095384   -5.576733   -1.582064
  H     -2.770342   -4.003323   -1.941881
  H     -4.509302   -5.404461   -0.913000
  H     -3.466653   -5.760622    0.445020
  H     -4.591893   -3.013835   -0.278146
  H     -5.076037   -4.012640    1.077978
  H     -1.040118   -4.696184    0.480816
  H     -0.550217   -3.731828   -0.895653

 Multiplicity           Mult            ....    1
 Number of Electrons    NEL             ....  246
 Basis Dimension        Dim             ....  753

ORBITAL ENERGIES
----------------

  NO   OCC          E(Eh)            E(eV)
   0   2.0000     -13.977700      -380.3525
   1   2.0000     -13.977427      -380.3451
   2   2.0000     -13.976517      -380.3204
   3   2.0000     -13.969106      -380.1187
   4   2.0000     -13.961273      -379.9056
   5   2.0000     -13.960960      -379.8970
   6   2.0000      -9.931604      -270.2527
   7   2.0000      -9.931133      -270.2399
   8   2.0000      -9.929639      -270.1992
   9   2.0000      -9.914572      -269.7892
  10   2.0000      -9.911587      -269.7080
  11   2.0000      -9.910886      -269.6889
  12   2.0000      -9.910555      -269.6799
  13   2.0000      -9.910119      -269.6680
  14   2.0000      -9.909932      -269.6630
  15   2.0000      -9.909784      -269.6589
  16   2.0000      -9.907765      -269.6040
  17   2.0000      -9.906766      -269.5768
  18   2.0000      -9.902489      -269.4604
  19   2.0000      -9.902150      -269.4512
  20   2.0000      -9.901156      -269.4241
  21   2.0000      -9.883799      -268.9519
  22   2.0000      -9.883683      -268.9487
  23   2.0000      -9.882600      -268.9192
  24   2.0000      -9.882577      -268.9186
  25   2.0000      -9.882409      -268.9140
  26   2.0000      -9.882357      -268.9126
  27   2.0000      -9.882205      -268.9085
  28   2.0000      -9.881666      -268.8938
  29   2.0000      -9.881149      -268.8797
  30   2.0000      -9.880631      -268.8656
  31   2.0000      -9.880431      -268.8602
  32   2.0000      -9.880370      -268.8585
  33   2.0000      -0.858369       -23.3574
  34   2.0000      -0.856232       -23.2993
  35   2.0000      -0.854021       -23.2391
  36   2.0000      -0.815213       -22.1831
  37   2.0000      -0.811265       -22.0756
  38   2.0000      -0.809164       -22.0185
  39   2.0000      -0.792947       -21.5772
  40   2.0000      -0.749590       -20.3974
  41   2.0000      -0.748528       -20.3685
  42   2.0000      -0.746472       -20.3125
  43   2.0000      -0.712770       -19.3955
  44   2.0000      -0.710529       -19.3345
  45   2.0000      -0.677794       -18.4437
  46   2.0000      -0.672359       -18.2958
  47   2.0000      -0.669844       -18.2274
  48   2.0000      -0.659594       -17.9485
  49   2.0000      -0.656487       -17.8639
  50   2.0000      -0.654478       -17.8093
  51   2.0000      -0.594208       -16.1692
  52   2.0000      -0.592061       -16.1108
  53   2.0000      -0.582511       -15.8509
  54   2.0000      -0.557469       -15.1695
  55   2.0000      -0.551262       -15.0006
  56   2.0000      -0.547452       -14.8969
  57   2.0000      -0.543799       -14.7975
  58   2.0000      -0.539682       -14.6855
  59   2.0000      -0.530102       -14.4248
  60   2.0000      -0.505839       -13.7646
  61   2.0000      -0.501892       -13.6572
  62   2.0000      -0.500118       -13.6089
  63   2.0000      -0.490093       -13.3361
  64   2.0000      -0.485204       -13.2031
  65   2.0000      -0.460360       -12.5270
  66   2.0000      -0.455623       -12.3981
  67   2.0000      -0.441279       -12.0078
  68   2.0000      -0.438418       -11.9300
  69   2.0000      -0.434057       -11.8113
  70   2.0000      -0.432189       -11.7604
  71   2.0000      -0.431002       -11.7282
  72   2.0000      -0.430150       -11.7050
  73   2.0000      -0.426967       -11.6184
  74   2.0000      -0.425102       -11.5676
  75   2.0000      -0.419318       -11.4102
  76   2.0000      -0.404433       -11.0052
  77   2.0000      -0.401612       -10.9284
  78   2.0000      -0.401346       -10.9212
  79   2.0000      -0.400440       -10.8965
  80   2.0000      -0.398937       -10.8556
  81   2.0000      -0.394843       -10.7442
  82   2.0000      -0.385211       -10.4821
  83   2.0000      -0.380834       -10.3630
  84   2.0000      -0.379993       -10.3401
  85   2.0000      -0.362760        -9.8712
  86   2.0000      -0.357067        -9.7163
  87   2.0000      -0.356704        -9.7064
  88   2.0000      -0.352833        -9.6011
  89   2.0000      -0.344753        -9.3812
  90   2.0000      -0.343759        -9.3541
  91   2.0000      -0.341246        -9.2858
  92   2.0000      -0.340108        -9.2548
  93   2.0000      -0.339748        -9.2450
  94   2.0000      -0.334756        -9.1092
  95   2.0000      -0.327596        -8.9143
  96   2.0000      -0.324047        -8.8178
  97   2.0000      -0.315248        -8.5783
  98   2.0000      -0.311180        -8.4676
  99   2.0000      -0.309318        -8.4170
 100   2.0000      -0.307196        -8.3592
 101   2.0000      -0.306065        -8.3284
 102   2.0000      -0.305235        -8.3059
 103   2.0000      -0.304078        -8.2744
 104   2.0000      -0.298357        -8.1187
 105   2.0000      -0.289234        -7.8705
 106   2.0000      -0.283829        -7.7234
 107   2.0000      -0.282683        -7.6922
 108   2.0000      -0.282138        -7.6774
 109   2.0000      -0.275226        -7.4893
 110   2.0000      -0.272035        -7.4024
 111   2.0000      -0.270469        -7.3598
 112   2.0000      -0.266197        -7.2436
 113   2.0000      -0.265376        -7.2212
 114   2.0000      -0.250098        -6.8055
 115   2.0000      -0.222356        -6.0506
 116   2.0000      -0.217692        -5.9237
 117   2.0000      -0.216383        -5.8881
 118   2.0000      -0.214678        -5.8417
 119   2.0000      -0.207443        -5.6448
 120   2.0000      -0.200727        -5.4620
 121   2.0000      -0.195348        -5.3157
 122   2.0000      -0.194916        -5.3039
 123   0.0000      -0.083572        -2.2741
 124   0.0000      -0.076602        -2.0845
 125   0.0000      -0.047324        -1.2877
 126   0.0000       0.008539         0.2324
 127   0.0000       0.024255         0.6600

MULLIKEN ATOMIC CHARGES
-----------------------
   0 C :    0.110365
   1 C :   -0.352142
   2 C :   -0.139402
   3 C :    0.233084
   4 H :    0.377050
   5 C :   -0.236734
   6 C :    0.287524
   7 H :    0.212153
   8 C :   -0.180144
   9 C :   -0.355980
  10 H :    0.213812
  11 C :   -0.387515
  12 C :   -0.098848
  13 C :   -0.216405
  14 N :   -0.710413
  15 H :    0.147396
  16 C :   -0.315053
  17 N :   -0.048413
  18 H :    0.139952
  19 C :   -0.306929
  20 C :   -0.289802
  21 C :   -0.298566
  22 C :   -0.215239
  23 C :   -0.087107
  24 N :   -0.064206
  25 H :    0.115742
  26 C :   -0.267927
  27 N :   -0.650808
  28 H :    0.143656
  29 C :   -0.317755
  30 C :   -0.292833
  31 C :   -0.287117
  32 C :   -0.215607
  33 C :   -0.087322
  34 N :   -0.065596
  35 H :    0.116816
  36 C :   -0.269189
  37 N :   -0.651060
  38 H :    0.144088
  39 C :   -0.317674
  40 C :   -0.292570
  41 C :   -0.287187
  42 H :    0.314656
  43 H :    0.302662
  44 H :    0.322153
  45 H :    0.312084
  46 H :    0.314706
  47 H :    0.302412
  48 H :    0.156687
  49 H :    0.119109
  50 H :    0.174317
  51 H :    0.139189
  52 H :    0.171656
  53 H :    0.140089
  54 H :    0.166766
  55 H :    0.154800
  56 H :    0.154321
  57 H :    0.160718
  58 H :    0.117191
  59 H :    0.171963
  60 H :    0.140461
  61 H :    0.167026
  62 H :    0.155281
  63 H :    0.174659
  64 H :    0.139258
  65 H :    0.154494
  66 H :    0.161106
  67 H :    0.172225
  68 H :    0.141848
  69 H :    0.173879
  70 H :    0.140317
  71 H :    0.161429
  72 H :    0.155990
  73 H :    0.160046
  74 H :    0.170409
Sum of atomic charges:   -0.0000000

LOEWDIN ATOMIC CHARGES
----------------------
   0 C :   -0.089445
   1 C :   -0.048045
   2 C :   -0.136233
   3 C :   -0.082523
   4 H :    0.192942
   5 C :   -0.111400
   6 C :   -0.082578
   7 H :    0.183080
   8 C :   -0.108113
   9 C :   -0.036580
  10 H :    0.184650
  11 C :   -0.037173
  12 C :   -0.126766
  13 C :   -0.137111
  14 N :   -0.527864
  15 H :    0.143655
  16 C :   -0.296757
  17 N :   -0.178243
  18 H :    0.160079
  19 C :   -0.287331
  20 C :   -0.295992
  21 C :   -0.297178
  22 C :   -0.131549
  23 C :   -0.129597
  24 N :   -0.182248
  25 H :    0.147295
  26 C :   -0.288908
  27 N :   -0.529305
  28 H :    0.140855
  29 C :   -0.297708
  30 C :   -0.296706
  31 C :   -0.296930
  32 C :   -0.131611
  33 C :   -0.129514
  34 N :   -0.181304
  35 H :    0.147329
  36 C :   -0.288683
  37 N :   -0.529255
  38 H :    0.140942
  39 C :   -0.297751
  40 C :   -0.296649
  41 C :   -0.296856
  42 H :    0.261122
  43 H :    0.255532
  44 H :    0.263591
  45 H :    0.257479
  46 H :    0.261079
  47 H :    0.255416
  48 H :    0.158282
  49 H :    0.144317
  50 H :    0.154040
  51 H :    0.152581
  52 H :    0.154631
  53 H :    0.152902
  54 H :    0.157393
  55 H :    0.160458
  56 H :    0.151984
  57 H :    0.160487
  58 H :    0.147216
  59 H :    0.154805
  60 H :    0.153054
  61 H :    0.157495
  62 H :    0.160620
  63 H :    0.154197
  64 H :    0.152666
  65 H :    0.152153
  66 H :    0.160633
  67 H :    0.155172
  68 H :    0.153476
  69 H :    0.154715
  70 H :    0.152945
  71 H :    0.160711
  72 H :    0.152103
  73 H :    0.161114
  74 H :    0.158714

  Mayer bond orders larger than 0.100000
B(  0-C ,  1-C ) :   0.8621 B(  0-C ,  2-C ) :   1.2648 B(  0-C ,  3-C ) :   0.1151
B(  0-C ,  6-C ) :   0.1217 B(  0-C ,  8-C ) :   1.2797 B(  1-C , 17-N ) :   2.0022
B(  1-C , 48-H ) :   0.9628 B(  2-C ,  3-C ) :   1.2292 B(  2-C ,  4-H ) :   0.8638
B(  2-C , 11-C ) :   0.1027 B(  2-C , 14-N ) :   0.1127 B(  3-C ,  5-C ) :   1.3655
B(  3-C ,  6-C ) :   0.1332 B(  3-C , 11-C ) :   0.9402 B(  3-C , 24-N ) :  -0.1853
B(  4-H , 14-N ) :  -0.1585 B(  5-C ,  6-C ) :   1.1229 B(  5-C ,  7-H ) :   0.8904
B(  5-C ,  9-C ) :   0.1062 B(  6-C ,  8-C ) :   1.3764 B(  6-C ,  9-C ) :   0.9404
B(  6-C , 34-N ) :  -0.1891 B(  8-C , 10-H ) :   0.8901 B(  9-C , 34-N ) :   1.9304
B(  9-C , 49-H ) :   0.9024 B( 11-C , 24-N ) :   1.9245 B( 11-C , 58-H ) :   0.9142
B( 12-C , 13-C ) :   0.8545 B( 12-C , 14-N ) :   0.9809 B( 12-C , 15-H ) :   0.9694
B( 12-C , 16-C ) :   0.9627 B( 13-C , 17-N ) :   0.9116 B( 13-C , 18-H ) :   0.9428
B( 13-C , 19-C ) :   0.9475 B( 14-N , 44-H ) :   0.8552 B( 14-N , 45-H ) :   0.8660
B( 16-C , 20-C ) :   1.0076 B( 16-C , 71-H ) :   0.9464 B( 16-C , 72-H ) :   0.9357
B( 19-C , 21-C ) :   0.9846 B( 19-C , 73-H ) :   0.9619 B( 19-C , 74-H ) :   0.9350
B( 20-C , 21-C ) :   0.9947 B( 20-C , 69-H ) :   0.9407 B( 20-C , 70-H ) :   0.9471
B( 21-C , 67-H ) :   0.9384 B( 21-C , 68-H ) :   0.9509 B( 22-C , 23-C ) :   0.8734
B( 22-C , 24-N ) :   0.9601 B( 22-C , 25-H ) :   0.9095 B( 22-C , 26-C ) :   0.9602
B( 23-C , 27-N ) :   0.9972 B( 23-C , 28-H ) :   0.9694 B( 23-C , 29-C ) :   0.9514
B( 26-C , 30-C ) :   0.9839 B( 26-C , 54-H ) :   0.9315 B( 26-C , 55-H ) :   0.9532
B( 27-N , 46-H ) :   0.8566 B( 27-N , 47-H ) :   0.8617 B( 29-C , 31-C ) :   0.9959
B( 29-C , 56-H ) :   0.9355 B( 29-C , 57-H ) :   0.9498 B( 30-C , 31-C ) :   0.9893
B( 30-C , 52-H ) :   0.9390 B( 30-C , 53-H ) :   0.9512 B( 31-C , 50-H ) :   0.9422
B( 31-C , 51-H ) :   0.9473 B( 32-C , 33-C ) :   0.8711 B( 32-C , 34-N ) :   0.9594
B( 32-C , 35-H ) :   0.9106 B( 32-C , 36-C ) :   0.9605 B( 33-C , 37-N ) :   0.9990
B( 33-C , 38-H ) :   0.9695 B( 33-C , 39-C ) :   0.9520 B( 36-C , 40-C ) :   0.9833
B( 36-C , 61-H ) :   0.9311 B( 36-C , 62-H ) :   0.9537 B( 37-N , 42-H ) :   0.8566
B( 37-N , 43-H ) :   0.8617 B( 39-C , 41-C ) :   0.9958 B( 39-C , 65-H ) :   0.9356
B( 39-C , 66-H ) :   0.9495 B( 40-C , 41-C ) :   0.9890 B( 40-C , 59-H ) :   0.9392
B( 40-C , 60-H ) :   0.9513 B( 41-C , 63-H ) :   0.9420 B( 41-C , 64-H ) :   0.9471

Dispersion correction           -0.201209436
FINAL SINGLE POINT ENERGY     -1382.010986255978

DIPOLE MOMENT
-------------
                                X             Y             Z
Electronic contribution:      5.52277      -0.71772       9.81627
Nuclear contribution   :     -5.76538       0.64438      -9.92254
                        -----------------------------------------
Total Dipole Moment    :     -0.24261      -0.07334      -0.10628
                        -----------------------------------------
Magnitude (a.u.)       :      0.27483
Magnitude (Debye)      :      0.69856

Rotational constants in cm-1:     0.003393     0.002151     0.001464
Rotational constants in MHz :   101.710324    64.471250    43.886785

                             ****ORCA TERMINATED NORMALLY****
TOTAL RUN TIME: 0 days 0 hours 58 minutes 12 seconds 816 msec
