                         Program Version 4.2.1 -  RELEASE  -
|  1> ! DFT COPT B97-3c TightSCF printbasis  Grid6 NOFINALGRID SlowConv
|  2>
|  3> %base "_o_1_alde1_2_ami4_2_opt_B97-3c"
|  4> %maxcore 3000
|  5> %scf
|  6>    MaxIter 2000
|  7> end
|  8> %pal
|  9>    nprocs 32
| 10> end
| 11>
| 12> * xyzfile 0 1 o_1_alde1_2_ami4_2_opt.xyz
| 13> # * xyzfile 0 1 _o_1_alde1_2_ami4_2_opt_B97-3c.xyz
| 14>
| 15>                          ****END OF INPUT****
 Total Charge           Charge          ....    0
 Multiplicity           Mult            ....    1
 Number of Electrons    NEL             ....  132
Dispersion correction           -0.086150772
FINAL SINGLE POINT ENERGY      -800.031522516925
Dispersion correction            ... done
Dispersion correction           -0.086140457
FINAL SINGLE POINT ENERGY      -800.032119244229
Dispersion correction            ... done
Dispersion correction           -0.086138714
FINAL SINGLE POINT ENERGY      -800.032382987640
Dispersion correction            ... done
FINAL SINGLE POINT ENERGY      -800.032593398229
FINAL SINGLE POINT ENERGY      -800.032719531800
FINAL SINGLE POINT ENERGY      -800.032822630872
FINAL SINGLE POINT ENERGY      -800.032873219841
FINAL SINGLE POINT ENERGY      -800.032916816668
FINAL SINGLE POINT ENERGY      -800.032965919517
FINAL SINGLE POINT ENERGY      -800.033022429748
FINAL SINGLE POINT ENERGY      -800.034420796599
FINAL SINGLE POINT ENERGY      -800.034423629383
FINAL SINGLE POINT ENERGY      -800.034426772973
FINAL SINGLE POINT ENERGY      -800.034429491904
FINAL SINGLE POINT ENERGY      -800.034431761683
FINAL SINGLE POINT ENERGY      -800.034433744225
FINAL SINGLE POINT ENERGY      -800.034435808964
Dispersion correction            ... done
Dispersion correction           -0.085687748
FINAL SINGLE POINT ENERGY      -800.034438071922
Dispersion correction            ... done
Dispersion correction           -0.085684136
FINAL SINGLE POINT ENERGY      -800.034439902766
Dispersion correction            ... done
                    ***********************HURRAY********************

CARTESIAN COORDINATES (ANGSTROEM)
---------------------------------
  C     -1.610580    0.796550   -1.160372
  C     -2.197405   -0.119275   -0.164749
  C     -2.444535    1.685866   -1.827531
  C     -1.923563    2.571413   -2.769401
  H     -3.507548    1.704717   -1.624458
  C     -0.554339    2.547633   -3.021026
  C      0.294563    1.652736   -2.366061
  H     -0.137280    3.236659   -3.747234
  C     -0.243686    0.775788   -1.430923
  C      1.724365    1.660517   -2.682166
  H      0.399666    0.078545   -0.913740
  C     -2.779666    3.510307   -3.492243
  O     -1.577051   -0.931223    0.488804
  C     -4.807638    4.476654   -4.128719
  C     -5.859027    3.740186   -4.968201
  N     -4.039970    3.540322   -3.348353
  N     -6.824541    2.942287   -4.234269
  C      4.770788    1.323215   -1.269626
  C      3.945683    0.983978   -2.502440
  N      4.385341    2.631254   -0.752576
  N      2.552535    0.862682   -2.146235
  H     -3.296175   -0.014171   -0.042714
  H      4.997594    2.898134    0.007341
  H      3.454015    2.569869   -0.359916
  H     -7.364694    3.538211   -3.618144
  H     -6.325787    2.297533   -3.633901
  H      2.043425    2.409233   -3.420334
  H      4.666257    0.504642   -0.546004
  H      5.819148    1.362923   -1.567875
  H      4.281518    0.018901   -2.888637
  H      4.117742    1.745584   -3.274154
  H     -2.259861    4.194739   -4.179406
  H     -5.340221    3.089219   -5.674470
  H     -6.395786    4.479276   -5.565434
  H     -5.326948    5.144338   -3.435032
  H     -4.178803    5.097883   -4.785006

 Multiplicity           Mult            ....    1
 Number of Electrons    NEL             ....  132
 Basis Dimension        Dim             ....  401

ORBITAL ENERGIES
----------------

  NO   OCC          E(Eh)            E(eV)
   0   2.0000     -18.743761      -510.0437
   1   2.0000     -13.994948      -380.8219
   2   2.0000     -13.989680      -380.6786
   3   2.0000     -13.969732      -380.1357
   4   2.0000     -13.966232      -380.0405
   5   2.0000      -9.980439      -271.5815
   6   2.0000      -9.948066      -270.7006
   7   2.0000      -9.942490      -270.5489
   8   2.0000      -9.926720      -270.1198
   9   2.0000      -9.925806      -270.0949
  10   2.0000      -9.924433      -270.0576
  11   2.0000      -9.923411      -270.0297
  12   2.0000      -9.922117      -269.9945
  13   2.0000      -9.920180      -269.9418
  14   2.0000      -9.917755      -269.8758
  15   2.0000      -9.917606      -269.8718
  16   2.0000      -9.917144      -269.8592
  17   2.0000      -9.916397      -269.8389
  18   2.0000      -0.967406       -26.3245
  19   2.0000      -0.869637       -23.6640
  20   2.0000      -0.864980       -23.5373
  21   2.0000      -0.819582       -22.3020
  22   2.0000      -0.812029       -22.0964
  23   2.0000      -0.807204       -21.9651
  24   2.0000      -0.730762       -19.8851
  25   2.0000      -0.729115       -19.8402
  26   2.0000      -0.677663       -18.4402
  27   2.0000      -0.667767       -18.1709
  28   2.0000      -0.615157       -16.7393
  29   2.0000      -0.606084       -16.4924
  30   2.0000      -0.592281       -16.1168
  31   2.0000      -0.559006       -15.2113
  32   2.0000      -0.534968       -14.5572
  33   2.0000      -0.519555       -14.1378
  34   2.0000      -0.499897       -13.6029
  35   2.0000      -0.475988       -12.9523
  36   2.0000      -0.469458       -12.7746
  37   2.0000      -0.457346       -12.4450
  38   2.0000      -0.448774       -12.2118
  39   2.0000      -0.442743       -12.0476
  40   2.0000      -0.433742       -11.8027
  41   2.0000      -0.429997       -11.7008
  42   2.0000      -0.420320       -11.4375
  43   2.0000      -0.406313       -11.0563
  44   2.0000      -0.401194       -10.9170
  45   2.0000      -0.397938       -10.8284
  46   2.0000      -0.383802       -10.4438
  47   2.0000      -0.382156       -10.3990
  48   2.0000      -0.369643       -10.0585
  49   2.0000      -0.364058        -9.9065
  50   2.0000      -0.358998        -9.7688
  51   2.0000      -0.348476        -9.4825
  52   2.0000      -0.346807        -9.4371
  53   2.0000      -0.339201        -9.2301
  54   2.0000      -0.334941        -9.1142
  55   2.0000      -0.320786        -8.7290
  56   2.0000      -0.316850        -8.6219
  57   2.0000      -0.309989        -8.4352
  58   2.0000      -0.284420        -7.7395
  59   2.0000      -0.247575        -6.7369
  60   2.0000      -0.232826        -6.3355
  61   2.0000      -0.232123        -6.3164
  62   2.0000      -0.225844        -6.1455
  63   2.0000      -0.218837        -5.9549
  64   2.0000      -0.202423        -5.5082
  65   2.0000      -0.198901        -5.4124
  66   0.0000      -0.105560        -2.8724
  67   0.0000      -0.099821        -2.7163
  68   0.0000      -0.066359        -1.8057
  69   0.0000       0.005007         0.1362
  70   0.0000       0.017230         0.4689

MULLIKEN ATOMIC CHARGES
-----------------------
   0 C :    0.252882
   1 C :   -0.149401
   2 C :   -0.160973
   3 C :    0.196488
   4 H :    0.222267
   5 C :   -0.229005
   6 C :    0.280845
   7 H :    0.215219
   8 C :   -0.122258
   9 C :   -0.407766
  10 H :    0.235545
  11 C :   -0.385516
  12 O :   -0.302366
  13 C :   -0.293728
  14 C :   -0.238102
  15 N :   -0.063029
  16 N :   -0.629803
  17 C :   -0.230771
  18 C :   -0.225691
  19 N :   -0.688262
  20 N :   -0.081170
  21 H :    0.109882
  22 H :    0.307880
  23 H :    0.312470
  24 H :    0.294616
  25 H :    0.308598
  26 H :    0.110785
  27 H :    0.158223
  28 H :    0.162438
  29 H :    0.176853
  30 H :    0.125468
  31 H :    0.105341
  32 H :    0.163493
  33 H :    0.171105
  34 H :    0.174382
  35 H :    0.123062
Sum of atomic charges:   -0.0000000

LOEWDIN ATOMIC CHARGES
----------------------
   0 C :   -0.066759
   1 C :    0.212853
   2 C :   -0.097069
   3 C :   -0.081838
   4 H :    0.184719
   5 C :   -0.113415
   6 C :   -0.078657
   7 H :    0.173557
   8 C :   -0.064753
   9 C :   -0.044542
  10 H :    0.202332
  11 C :   -0.040365
  12 O :   -0.457503
  13 C :   -0.229265
  14 C :   -0.224708
  15 N :   -0.198032
  16 N :   -0.536629
  17 C :   -0.218107
  18 C :   -0.214281
  19 N :   -0.553303
  20 N :   -0.190339
  21 H :    0.152397
  22 H :    0.256591
  23 H :    0.259407
  24 H :    0.253372
  25 H :    0.257512
  26 H :    0.141557
  27 H :    0.135190
  28 H :    0.150348
  29 H :    0.158937
  30 H :    0.140306
  31 H :    0.139437
  32 H :    0.150632
  33 H :    0.151808
  34 H :    0.153064
  35 H :    0.135546

  Mayer bond orders larger than 0.100000
B(  0-C ,  1-C ) :   0.8848 B(  0-C ,  2-C ) :   1.1776 B(  0-C ,  3-C ) :   0.1046
B(  0-C ,  6-C ) :   0.1242 B(  0-C ,  8-C ) :   1.1620 B(  0-C , 12-O ) :  -0.1570
B(  0-C , 21-H ) :  -0.1013 B(  1-C , 12-O ) :   2.0822 B(  1-C , 21-H ) :   0.9595
B(  2-C ,  3-C ) :   1.4252 B(  2-C ,  4-H ) :   0.8694 B(  3-C ,  5-C ) :   1.2803
B(  3-C ,  6-C ) :   0.1169 B(  3-C , 11-C ) :   0.9602 B(  3-C , 15-N ) :  -0.2546
B(  5-C ,  6-C ) :   1.2457 B(  5-C ,  7-H ) :   0.8810 B(  6-C ,  8-C ) :   1.2746
B(  6-C ,  9-C ) :   0.9452 B(  6-C , 20-N ) :  -0.2640 B(  8-C , 10-H ) :   0.9031
B(  9-C , 20-N ) :   2.0722 B(  9-C , 26-H ) :   0.9055 B( 11-C , 15-N ) :   2.0722
B( 11-C , 31-H ) :   0.9053 B( 13-C , 14-C ) :   0.9194 B( 13-C , 15-N ) :   0.9252
B( 13-C , 34-H ) :   0.9428 B( 13-C , 35-H ) :   0.9148 B( 14-C , 16-N ) :   1.0582
B( 14-C , 32-H ) :   0.9420 B( 14-C , 33-H ) :   0.9517 B( 16-N , 24-H ) :   0.8784
B( 16-N , 25-H ) :   0.8738 B( 17-C , 18-C ) :   0.9040 B( 17-C , 19-N ) :   0.9980
B( 17-C , 27-H ) :   0.9514 B( 17-C , 28-H ) :   0.9483 B( 18-C , 20-N ) :   0.9286
B( 18-C , 29-H ) :   0.9399 B( 18-C , 30-H ) :   0.9180 B( 19-N , 22-H ) :   0.8737
B( 19-N , 23-H ) :   0.8677

Dispersion correction           -0.085681024
FINAL SINGLE POINT ENERGY      -800.034441678265

DIPOLE MOMENT
-------------
                                X             Y             Z
Electronic contribution:     -2.09591      -7.46482       6.54228
Nuclear contribution   :      2.63871       8.87391      -7.08148
                        -----------------------------------------
Total Dipole Moment    :      0.54280       1.40908      -0.53920
                        -----------------------------------------
Magnitude (a.u.)       :      1.60340
Magnitude (Debye)      :      4.07551

Rotational constants in cm-1:     0.022884     0.005077     0.004341
Rotational constants in MHz :   686.052530   152.195360   130.142090

                             ****ORCA TERMINATED NORMALLY****
TOTAL RUN TIME: 0 days 0 hours 27 minutes 56 seconds 480 msec
