                         Program Version 4.2.1 -  RELEASE  -
|  1> ! RI-MP2 cc-pVTZ cc-pVTZ/C TIGHTSCF printbasis Grid6 NOFINALGRID SlowConv
|  2>
|  3> %base "_o_1_alde1_3_ami4_2_opt_MP2"
|  4> %maxcore 3000
|  5> %pal
|  6>    nprocs 32
|  7> end
|  8>
|  9> * xyzfile 0 1 _o_1_alde1_3_ami4_2_opt_B97-3c.xyz
| 10>
| 11>                          ****END OF INPUT****

CARTESIAN COORDINATES (ANGSTROEM)
---------------------------------
  C     -0.845297   -0.344541   -1.076322
  C     -0.922735   -1.681471   -0.450578
  C     -1.933930    0.512220   -1.155871
  C     -1.820299    1.761498   -1.772186
  H     -2.900190    0.222216   -0.775886
  C     -0.604611    2.146173   -2.317771
  C      0.499968    1.293605   -2.265608
  H     -0.490247    3.109178   -2.796973
  C      0.363475    0.050214   -1.658755
  C      1.789233    1.687810   -2.832452
  H      1.213916   -0.621802   -1.624445
  C     -2.971261    2.661223   -1.850907
  C     -3.717582   -1.431187    1.441178
  C     -2.209140   -1.151992    1.487216
  N     -4.142100   -2.762563    1.838740
  N     -1.492818   -2.062634    0.620459
  H     -1.862213   -1.353093    2.504210
  C     -5.174627    3.331791   -1.428424
  C     -6.429011    2.586474   -1.855445
  N     -4.076279    2.406105   -1.282961
  N     -6.829202    1.646179   -0.817961
  C      3.296582    3.119399   -3.888700
  C      3.834334    4.382593   -3.228473
  N      1.979137    2.812260   -3.389192
  H      4.017223    2.304451   -3.747024
  N      5.126273    4.736832   -3.806600
  H      4.996361    5.111766   -4.738182
  H      5.556801    5.472408   -3.262564
  H     -3.913060   -2.913809    2.813896
  H     -3.603171   -3.444287    1.319228
  H     -7.604990    1.080859   -1.136644
  H     -6.058439    1.014954   -0.638321
  H     -0.372865   -2.455965   -0.990859
  H     -2.816501    3.580700   -2.433460
  H      2.595628    0.945105   -2.741537
  H     -2.026214   -0.092561    1.280057
  H      3.212514    3.300798   -4.964862
  H     -4.955571    4.141185   -2.138514
  H     -5.368282    3.777213   -0.449687
  H     -6.237413    2.127361   -2.836844
  H     -7.227315    3.317301   -1.996917
  H     -4.075012   -1.251537    0.425381
  H     -4.218992   -0.699582    2.076171
  H      3.068186    5.164453   -3.299482
  H      3.979961    4.180953   -2.166834

 Total Charge           Charge          ....    0
 Multiplicity           Mult            ....    1
 Number of Electrons    NEL             ....  156
 Basis Dimension        Dim             ....  966

ORBITAL ENERGIES
----------------

  NO   OCC          E(Eh)            E(eV)
   0   2.0000     -15.562852      -423.4867
   1   2.0000     -15.561875      -423.4601
   2   2.0000     -15.558413      -423.3659
   3   2.0000     -15.541345      -422.9015
   4   2.0000     -15.527223      -422.5172
   5   2.0000     -15.525843      -422.4797
   6   2.0000     -11.287984      -307.1617
   7   2.0000     -11.286401      -307.1186
   8   2.0000     -11.282985      -307.0256
   9   2.0000     -11.259558      -306.3882
  10   2.0000     -11.256721      -306.3109
  11   2.0000     -11.254970      -306.2633
  12   2.0000     -11.253663      -306.2277
  13   2.0000     -11.252332      -306.1915
  14   2.0000     -11.251698      -306.1743
  15   2.0000     -11.251233      -306.1616
  16   2.0000     -11.249904      -306.1254
  17   2.0000     -11.249286      -306.1086
  18   2.0000     -11.244568      -305.9803
  19   2.0000     -11.243991      -305.9645
  20   2.0000     -11.243081      -305.9398
  21   2.0000      -1.248633       -33.9770
  22   2.0000      -1.245024       -33.8788
  23   2.0000      -1.236455       -33.6456
  24   2.0000      -1.184245       -32.2249
  25   2.0000      -1.176933       -32.0260
  26   2.0000      -1.169276       -31.8176
  27   2.0000      -1.163105       -31.6497
  28   2.0000      -1.066141       -29.0112
  29   2.0000      -1.059696       -28.8358
  30   2.0000      -0.992471       -27.0065
  31   2.0000      -0.984685       -26.7946
  32   2.0000      -0.982615       -26.7383
  33   2.0000      -0.896725       -24.4011
  34   2.0000      -0.886124       -24.1126
  35   2.0000      -0.867704       -23.6114
  36   2.0000      -0.834657       -22.7122
  37   2.0000      -0.820226       -22.3195
  38   2.0000      -0.800846       -21.7921
  39   2.0000      -0.760421       -20.6921
  40   2.0000      -0.743531       -20.2325
  41   2.0000      -0.707556       -19.2536
  42   2.0000      -0.692193       -18.8355
  43   2.0000      -0.677577       -18.4378
  44   2.0000      -0.672716       -18.3055
  45   2.0000      -0.668101       -18.1800
  46   2.0000      -0.660186       -17.9646
  47   2.0000      -0.654356       -17.8059
  48   2.0000      -0.642123       -17.4731
  49   2.0000      -0.635012       -17.2795
  50   2.0000      -0.625424       -17.0187
  51   2.0000      -0.610335       -16.6081
  52   2.0000      -0.609511       -16.5856
  53   2.0000      -0.600008       -16.3271
  54   2.0000      -0.586891       -15.9701
  55   2.0000      -0.578410       -15.7393
  56   2.0000      -0.561703       -15.2847
  57   2.0000      -0.553599       -15.0642
  58   2.0000      -0.542805       -14.7705
  59   2.0000      -0.541090       -14.7238
  60   2.0000      -0.535312       -14.5666
  61   2.0000      -0.530754       -14.4426
  62   2.0000      -0.528290       -14.3755
  63   2.0000      -0.516671       -14.0593
  64   2.0000      -0.503550       -13.7023
  65   2.0000      -0.494584       -13.4583
  66   2.0000      -0.490065       -13.3353
  67   2.0000      -0.457182       -12.4406
  68   2.0000      -0.449138       -12.2217
  69   2.0000      -0.418035       -11.3753
  70   2.0000      -0.414717       -11.2850
  71   2.0000      -0.413468       -11.2510
  72   2.0000      -0.397743       -10.8231
  73   2.0000      -0.396268       -10.7830
  74   2.0000      -0.384808       -10.4711
  75   2.0000      -0.378301       -10.2941
  76   2.0000      -0.335488        -9.1291
  77   2.0000      -0.329833        -8.9752
  78   0.0000       0.065611         1.7854
  79   0.0000       0.076592         2.0842
  80   0.0000       0.128518         3.4971
  81   0.0000       0.137994         3.7550
  82   0.0000       0.144676         3.9368

MULLIKEN ATOMIC CHARGES
-----------------------
   0 C :    0.148953
   1 C :   -0.142151
   2 C :   -0.217219
   3 C :    0.163363
   4 H :    0.193127
   5 C :   -0.204805
   6 C :    0.147166
   7 H :    0.160334
   8 C :   -0.225704
   9 C :   -0.084864
  10 H :    0.146777
  11 C :   -0.095798
  12 C :   -0.055689
  13 C :   -0.089055
  14 N :   -0.365284
  15 N :   -0.246461
  16 H :    0.102156
  17 C :   -0.033630
  18 C :   -0.036451
  19 N :   -0.261834
  20 N :   -0.378684
  21 C :   -0.019748
  22 C :   -0.049498
  23 N :   -0.255213
  24 H :    0.063409
  25 N :   -0.378030
  26 H :    0.138848
  27 H :    0.142461
  28 H :    0.128771
  29 H :    0.146114
  30 H :    0.137909
  31 H :    0.157661
  32 H :    0.149061
  33 H :    0.096548
  34 H :    0.092239
  35 H :    0.090571
  36 H :    0.086684
  37 H :    0.061101
  38 H :    0.099947
  39 H :    0.060327
  40 H :    0.084474
  41 H :    0.077583
  42 H :    0.105115
  43 H :    0.075866
  44 H :    0.083555
Sum of atomic charges:   -0.0000000

LOEWDIN ATOMIC CHARGES
----------------------
   0 C :   -0.071623
   1 C :   -0.087714
   2 C :    0.091264
   3 C :   -0.073964
   4 H :   -0.020894
   5 C :    0.090889
   6 C :   -0.075021
   7 H :   -0.018706
   8 C :    0.070755
   9 C :   -0.075632
  10 H :   -0.018655
  11 C :   -0.074450
  12 C :   -0.026574
  13 C :   -0.041974
  14 N :    0.325910
  15 N :    0.213233
  16 H :   -0.032164
  17 C :   -0.037305
  18 C :   -0.023001
  19 N :    0.221147
  20 N :    0.324933
  21 C :   -0.041512
  22 C :   -0.019950
  23 N :    0.220823
  24 H :   -0.038090
  25 N :    0.325436
  26 H :   -0.108785
  27 H :   -0.108800
  28 H :   -0.110112
  29 H :   -0.108670
  30 H :   -0.111092
  31 H :   -0.112231
  32 H :   -0.026398
  33 H :   -0.034207
  34 H :   -0.035271
  35 H :   -0.038970
  36 H :   -0.030707
  37 H :   -0.038386
  38 H :   -0.025081
  39 H :   -0.046403
  40 H :   -0.031020
  41 H :   -0.037152
  42 H :   -0.026308
  43 H :   -0.044217
  44 H :   -0.033349

  Mayer bond orders larger than 0.100000
B(  0-C ,  1-C ) :   0.8973 B(  0-C ,  2-C ) :   1.3794 B(  0-C ,  8-C ) :   1.3305
B(  1-C , 15-N ) :   2.0459 B(  1-C , 32-H ) :   0.9968 B(  2-C ,  3-C ) :   1.3017
B(  2-C ,  4-H ) :   0.9463 B(  3-C ,  5-C ) :   1.3759 B(  3-C , 11-C ) :   0.9919
B(  5-C ,  6-C ) :   1.3169 B(  5-C ,  7-H ) :   0.9615 B(  6-C ,  8-C ) :   1.3823
B(  6-C ,  9-C ) :   0.9915 B(  8-C , 10-H ) :   0.9778 B(  9-C , 23-N ) :   1.9975
B(  9-C , 34-H ) :   0.9898 B( 11-C , 19-N ) :   2.0108 B( 11-C , 33-H ) :   0.9869
B( 12-C , 13-C ) :   0.9525 B( 12-C , 14-N ) :   1.0013 B( 12-C , 41-H ) :   0.9838
B( 12-C , 42-H ) :   0.9843 B( 13-C , 15-N ) :   0.9419 B( 13-C , 16-H ) :   0.9755
B( 13-C , 35-H ) :   0.9711 B( 14-N , 28-H ) :   1.0001 B( 14-N , 29-H ) :   0.9916
B( 17-C , 18-C ) :   0.9611 B( 17-C , 19-N ) :   0.9538 B( 17-C , 37-H ) :   0.9843
B( 17-C , 38-H ) :   0.9681 B( 18-C , 20-N ) :   0.9866 B( 18-C , 39-H ) :   0.9748
B( 18-C , 40-H ) :   0.9789 B( 20-N , 30-H ) :   0.9929 B( 20-N , 31-H ) :   0.9810
B( 21-C , 22-C ) :   0.9525 B( 21-C , 23-N ) :   0.9620 B( 21-C , 24-H ) :   0.9728
B( 21-C , 36-H ) :   0.9773 B( 22-C , 25-N ) :   0.9815 B( 22-C , 43-H ) :   0.9857
B( 22-C , 44-H ) :   0.9798 B( 25-N , 26-H ) :   0.9892 B( 25-N , 27-H ) :   0.9901

MP2 TOTAL ENERGY:     -912.622855148 Eh
FINAL SINGLE POINT ENERGY      -912.622855148262

DIPOLE MOMENT
-------------
                                X             Y             Z
Electronic contribution:      5.02944      -4.85962      -1.98424
Nuclear contribution   :     -4.05467       5.79737       1.13758
                        -----------------------------------------
Total Dipole Moment    :      0.97477       0.93775      -0.84666
                        -----------------------------------------
Magnitude (a.u.)       :      1.59574
Magnitude (Debye)      :      4.05605

Rotational constants in cm-1:     0.012058     0.004169     0.003207
Rotational constants in MHz :   361.478216   124.995012    96.138265

                             ****ORCA TERMINATED NORMALLY****
TOTAL RUN TIME: 0 days 0 hours 21 minutes 17 seconds 963 msec
