                         Program Version 4.2.1 -  RELEASE  -
|  1> ! DFT COPT B97-3c TightSCF printbasis  Grid6 NOFINALGRID SlowConv
|  2>
|  3> %base "_o_1_alde1_3_ami4_1_opt_B97-3c"
|  4> %maxcore 3000
|  5> %scf
|  6>    MaxIter 2000
|  7> end
|  8> %pal
|  9>    nprocs 32
| 10> end
| 11>
| 12> * xyzfile 0 1 o_1_alde1_3_ami4_1_opt.xyz
| 13> # * xyzfile 0 1 _o_1_alde1_3_ami4_1_opt_B97-3c.xyz
| 14>
| 15>                          ****END OF INPUT****
 Total Charge           Charge          ....    0
 Multiplicity           Mult            ....    1
 Number of Electrons    NEL             ....  156
Dispersion correction           -0.117883013
FINAL SINGLE POINT ENERGY      -914.064137342003
Dispersion correction            ... done
Dispersion correction           -0.117880229
FINAL SINGLE POINT ENERGY      -914.064552219746
Dispersion correction            ... done
Dispersion correction           -0.117878426
FINAL SINGLE POINT ENERGY      -914.064797337995
Dispersion correction            ... done
FINAL SINGLE POINT ENERGY      -914.064983697692
FINAL SINGLE POINT ENERGY      -914.065155328473
FINAL SINGLE POINT ENERGY      -914.065270062265
FINAL SINGLE POINT ENERGY      -914.065353711123
FINAL SINGLE POINT ENERGY      -914.065418641745
FINAL SINGLE POINT ENERGY      -914.065478709955
FINAL SINGLE POINT ENERGY      -914.065529115002
FINAL SINGLE POINT ENERGY      -914.065864383396
FINAL SINGLE POINT ENERGY      -914.065879236518
FINAL SINGLE POINT ENERGY      -914.065889318590
FINAL SINGLE POINT ENERGY      -914.065898334264
FINAL SINGLE POINT ENERGY      -914.065907311927
FINAL SINGLE POINT ENERGY      -914.065915273565
FINAL SINGLE POINT ENERGY      -914.065922290304
Dispersion correction            ... done
Dispersion correction           -0.117280409
FINAL SINGLE POINT ENERGY      -914.065930433071
Dispersion correction            ... done
ORCA finished by error termination in SCF gradient
                         Program Version 4.2.1 -  RELEASE  -
|  1> ! DFT COPT B97-3c TightSCF printbasis  Grid6 NOFINALGRID SlowConv
|  2>
|  3> %base "_o_1_alde1_3_ami4_1_opt_B97-3c"
|  4> %maxcore 3000
|  5> %scf
|  6>    MaxIter 2000
|  7> end
|  8> %pal
|  9>    nprocs 32
| 10> end
| 11>
| 12> # * xyzfile 0 1 o_1_alde1_3_ami4_1_opt.xyz
| 13> * xyzfile 0 1 _o_1_alde1_3_ami4_1_opt_B97-3c.xyz
| 14>
| 15>                          ****END OF INPUT****
Dispersion correction           -0.117280409
FINAL SINGLE POINT ENERGY      -914.065930370916
Dispersion correction            ... done
                    ***********************HURRAY********************

CARTESIAN COORDINATES (ANGSTROEM)
---------------------------------
  C     -1.201310    1.014760    0.247219
  C     -1.283056    0.456477    1.643795
  C     -2.349987    1.119745   -0.529131
  C     -2.299519    1.672774   -1.801005
  H     -3.282026    0.738535   -0.133457
  C     -1.086205    2.130628   -2.294775
  C      0.071497    2.040200   -1.535493
  H     -1.040122    2.556041   -3.286663
  C      0.006504    1.476732   -0.265488
  C      1.376894    2.500439   -2.126331
  H      0.908819    1.390485    0.329640
  C     -3.544583    1.819534   -2.630160
  C     -2.193678    0.692615    3.743584
  C     -2.822903   -0.575711    3.140426
  N     -1.691163    1.467514    2.610350
  N     -2.287883   -0.619243    1.773062
  C     -4.224765    2.353995   -4.849859
  C     -4.890469    3.266522   -3.804538
  N     -3.309209    1.520835   -4.059445
  N     -4.051652    3.184231   -2.610739
  C      2.236522    3.739826   -3.970187
  C      2.840437    2.325502   -3.891699
  N      1.230954    3.751589   -2.900396
  N      1.915841    1.538054   -3.077675
  H      1.317402    4.563040   -2.305192
  H      2.116206    2.610669   -1.321131
  H      1.146589    1.214058   -3.654013
  H     -1.887883   -1.519817    1.551847
  H     -0.285158    0.107282    1.943376
  H     -2.449483    1.999698    2.197558
  H     -3.433658    0.536521   -4.248693
  H     -3.258203    3.808628   -2.707058
  H     -4.328589    1.174456   -2.211313
  H     -3.913220   -0.506868    3.116889
  H     -2.566616   -1.463297    3.724690
  H     -1.354106    0.430303    4.389704
  H     -2.890427    1.283222    4.334162
  H     -3.664098    2.935306   -5.585826
  H     -4.966758    1.766715   -5.396673
  H     -5.887689    2.898079   -3.557784
  H     -4.993072    4.298526   -4.132022
  H      1.760171    3.917532   -4.937488
  H      3.005214    4.506501   -3.841339
  H      3.810287    2.353840   -3.392304
  H      2.986196    1.861781   -4.864721

 Multiplicity           Mult            ....    1
 Number of Electrons    NEL             ....  156
 Basis Dimension        Dim             ....  471

ORBITAL ENERGIES
----------------

  NO   OCC          E(Eh)            E(eV)
   0   2.0000     -13.973056      -380.2262
   1   2.0000     -13.972262      -380.2046
   2   2.0000     -13.972129      -380.2010
   3   2.0000     -13.966812      -380.0563
   4   2.0000     -13.965839      -380.0298
   5   2.0000     -13.965563      -380.0223
   6   2.0000      -9.939701      -270.4730
   7   2.0000      -9.938743      -270.4470
   8   2.0000      -9.937629      -270.4166
   9   2.0000      -9.910663      -269.6829
  10   2.0000      -9.910122      -269.6681
  11   2.0000      -9.909897      -269.6620
  12   2.0000      -9.908444      -269.6225
  13   2.0000      -9.907722      -269.6028
  14   2.0000      -9.907508      -269.5970
  15   2.0000      -9.889460      -269.1059
  16   2.0000      -9.888669      -269.0844
  17   2.0000      -9.887370      -269.0490
  18   2.0000      -9.884888      -268.9815
  19   2.0000      -9.880333      -268.8575
  20   2.0000      -9.877397      -268.7776
  21   2.0000      -0.879970       -23.9452
  22   2.0000      -0.879015       -23.9192
  23   2.0000      -0.878424       -23.9031
  24   2.0000      -0.781955       -21.2781
  25   2.0000      -0.774058       -21.0632
  26   2.0000      -0.773159       -21.0387
  27   2.0000      -0.773121       -21.0377
  28   2.0000      -0.708500       -19.2793
  29   2.0000      -0.708285       -19.2734
  30   2.0000      -0.669816       -18.2266
  31   2.0000      -0.649101       -17.6629
  32   2.0000      -0.645296       -17.5594
  33   2.0000      -0.579030       -15.7562
  34   2.0000      -0.569098       -15.4859
  35   2.0000      -0.560591       -15.2544
  36   2.0000      -0.547908       -14.9093
  37   2.0000      -0.547525       -14.8989
  38   2.0000      -0.546179       -14.8623
  39   2.0000      -0.521512       -14.1911
  40   2.0000      -0.511020       -13.9056
  41   2.0000      -0.479963       -13.0605
  42   2.0000      -0.464250       -12.6329
  43   2.0000      -0.456554       -12.4235
  44   2.0000      -0.451600       -12.2886
  45   2.0000      -0.440955       -11.9990
  46   2.0000      -0.436251       -11.8710
  47   2.0000      -0.429577       -11.6894
  48   2.0000      -0.414504       -11.2792
  49   2.0000      -0.390331       -10.6215
  50   2.0000      -0.390019       -10.6130
  51   2.0000      -0.378316       -10.2945
  52   2.0000      -0.376313       -10.2400
  53   2.0000      -0.375295       -10.2123
  54   2.0000      -0.372215       -10.1285
  55   2.0000      -0.354477        -9.6458
  56   2.0000      -0.350560        -9.5392
  57   2.0000      -0.349363        -9.5067
  58   2.0000      -0.347290        -9.4503
  59   2.0000      -0.346534        -9.4297
  60   2.0000      -0.335518        -9.1299
  61   2.0000      -0.331722        -9.0266
  62   2.0000      -0.330952        -9.0057
  63   2.0000      -0.329513        -8.9665
  64   2.0000      -0.310451        -8.4478
  65   2.0000      -0.308373        -8.3913
  66   2.0000      -0.307664        -8.3720
  67   2.0000      -0.302912        -8.2427
  68   2.0000      -0.288681        -7.8554
  69   2.0000      -0.287090        -7.8121
  70   2.0000      -0.218308        -5.9405
  71   2.0000      -0.216845        -5.9007
  72   2.0000      -0.198442        -5.3999
  73   2.0000      -0.198269        -5.3952
  74   2.0000      -0.196918        -5.3584
  75   2.0000      -0.180896        -4.9224
  76   2.0000      -0.179458        -4.8833
  77   2.0000      -0.177881        -4.8404
  78   0.0000      -0.031371        -0.8537
  79   0.0000      -0.029027        -0.7899
  80   0.0000       0.019258         0.5240
  81   0.0000       0.024148         0.6571
  82   0.0000       0.026898         0.7319

MULLIKEN ATOMIC CHARGES
-----------------------
   0 C :    0.351355
   1 C :   -0.681371
   2 C :   -0.262098
   3 C :    0.552676
   4 H :    0.181833
   5 C :   -0.146073
   6 C :    0.436540
   7 H :    0.194128
   8 C :   -0.281525
   9 C :   -0.723342
  10 H :    0.179277
  11 C :   -0.745004
  12 C :   -0.278838
  13 C :   -0.243098
  14 N :   -0.300434
  15 N :   -0.294657
  16 C :   -0.242683
  17 C :   -0.274574
  18 N :   -0.285412
  19 N :   -0.296309
  20 C :   -0.241902
  21 C :   -0.276990
  22 N :   -0.288963
  23 N :   -0.296059
  24 H :    0.294576
  25 H :    0.169442
  26 H :    0.309558
  27 H :    0.295699
  28 H :    0.168018
  29 H :    0.309368
  30 H :    0.293872
  31 H :    0.310057
  32 H :    0.176674
  33 H :    0.147863
  34 H :    0.150324
  35 H :    0.160882
  36 H :    0.187578
  37 H :    0.147435
  38 H :    0.150065
  39 H :    0.159521
  40 H :    0.187266
  41 H :    0.147929
  42 H :    0.149609
  43 H :    0.160628
  44 H :    0.187159
Sum of atomic charges:   -0.0000000

LOEWDIN ATOMIC CHARGES
----------------------
   0 C :   -0.075756
   1 C :   -0.035732
   2 C :   -0.142687
   3 C :   -0.075319
   4 H :    0.177792
   5 C :   -0.143440
   6 C :   -0.074625
   7 H :    0.182368
   8 C :   -0.136683
   9 C :   -0.035900
  10 H :    0.168878
  11 C :   -0.036866
  12 C :   -0.213924
  13 C :   -0.218350
  14 N :   -0.357520
  15 N :   -0.391989
  16 C :   -0.218734
  17 C :   -0.213866
  18 N :   -0.392078
  19 N :   -0.357283
  20 C :   -0.218572
  21 C :   -0.213684
  22 N :   -0.391961
  23 N :   -0.357167
  24 H :    0.263319
  25 H :    0.141954
  26 H :    0.269508
  27 H :    0.263668
  28 H :    0.142479
  29 H :    0.269543
  30 H :    0.262942
  31 H :    0.269629
  32 H :    0.142787
  33 H :    0.138578
  34 H :    0.140450
  35 H :    0.148950
  36 H :    0.155078
  37 H :    0.138434
  38 H :    0.140306
  39 H :    0.148810
  40 H :    0.154660
  41 H :    0.138678
  42 H :    0.139748
  43 H :    0.148870
  44 H :    0.154705

  Mayer bond orders larger than 0.100000
B(  0-C ,  1-C ) :   0.6197 B(  0-C ,  2-C ) :   1.3899 B(  0-C ,  8-C ) :   1.3958
B(  0-C , 14-N ) :  -0.1323 B(  0-C , 15-N ) :  -0.1180 B(  1-C , 14-N ) :   1.2173
B(  1-C , 15-N ) :   1.0645 B(  1-C , 28-H ) :   0.9653 B(  2-C ,  3-C ) :   1.2694
B(  2-C ,  4-H ) :   0.9043 B(  3-C ,  5-C ) :   1.2692 B(  3-C , 11-C ) :   0.5542
B(  3-C , 18-N ) :  -0.1263 B(  3-C , 19-N ) :  -0.1339 B(  5-C ,  6-C ) :   1.2789
B(  5-C ,  7-H ) :   0.9235 B(  6-C ,  8-C ) :   1.3873 B(  6-C ,  9-C ) :   0.5745
B(  6-C , 22-N ) :  -0.1082 B(  6-C , 23-N ) :  -0.1275 B(  8-C , 10-H ) :   0.8795
B(  9-C , 22-N ) :   1.1038 B(  9-C , 23-N ) :   1.2252 B(  9-C , 25-H ) :   0.9662
B( 11-C , 18-N ) :   1.1204 B( 11-C , 19-N ) :   1.2183 B( 11-C , 32-H ) :   0.9663
B( 12-C , 13-C ) :   0.9388 B( 12-C , 14-N ) :   1.0035 B( 12-C , 35-H ) :   0.9494
B( 12-C , 36-H ) :   0.9492 B( 13-C , 15-N ) :   1.0360 B( 13-C , 33-H ) :   0.9420
B( 13-C , 34-H ) :   0.9520 B( 14-N , 29-H ) :   0.8484 B( 15-N , 27-H ) :   0.8652
B( 16-C , 17-C ) :   0.9374 B( 16-C , 18-N ) :   1.0321 B( 16-C , 37-H ) :   0.9428
B( 16-C , 38-H ) :   0.9522 B( 17-C , 19-N ) :   0.9972 B( 17-C , 39-H ) :   0.9500
B( 17-C , 40-H ) :   0.9489 B( 18-N , 30-H ) :   0.8660 B( 19-N , 31-H ) :   0.8514
B( 20-C , 21-C ) :   0.9378 B( 20-C , 22-N ) :   1.0340 B( 20-C , 41-H ) :   0.9426
B( 20-C , 42-H ) :   0.9523 B( 21-C , 23-N ) :   0.9996 B( 21-C , 43-H ) :   0.9510
B( 21-C , 44-H ) :   0.9494 B( 22-N , 24-H ) :   0.8649 B( 23-N , 26-H ) :   0.8506

Dispersion correction           -0.117279281
FINAL SINGLE POINT ENERGY      -914.065934681967

DIPOLE MOMENT
-------------
                                X             Y             Z
Electronic contribution:      1.27228      -1.23026       2.15569
Nuclear contribution   :     -1.37472       1.08481      -2.43048
                        -----------------------------------------
Total Dipole Moment    :     -0.10244      -0.14545      -0.27479
                        -----------------------------------------
Magnitude (a.u.)       :      0.32735
Magnitude (Debye)      :      0.83206

Rotational constants in cm-1:     0.010854     0.006822     0.004573
Rotational constants in MHz :   325.395748   204.528937   137.102824

                             ****ORCA TERMINATED NORMALLY****
TOTAL RUN TIME: 0 days 0 hours 2 minutes 55 seconds 157 msec
