                         Program Version 4.2.1 -  RELEASE  -
|  1> ! RI-MP2 cc-pVTZ cc-pVTZ/C TIGHTSCF printbasis Grid6 NOFINALGRID SlowConv
|  2>
|  3> %base "_o_1_alde1_2_ami4_2_opt_MP2"
|  4> %maxcore 3000
|  5> %pal
|  6>    nprocs 32
|  7> end
|  8>
|  9> * xyzfile 0 1 _o_1_alde1_2_ami4_2_opt_B97-3c.xyz
| 10>
| 11>                          ****END OF INPUT****

CARTESIAN COORDINATES (ANGSTROEM)
---------------------------------
  C     -1.610580    0.796550   -1.160372
  C     -2.197405   -0.119275   -0.164749
  C     -2.444535    1.685866   -1.827531
  C     -1.923563    2.571413   -2.769401
  H     -3.507548    1.704717   -1.624458
  C     -0.554339    2.547633   -3.021026
  C      0.294563    1.652736   -2.366061
  H     -0.137280    3.236659   -3.747234
  C     -0.243686    0.775788   -1.430923
  C      1.724365    1.660517   -2.682166
  H      0.399666    0.078545   -0.913740
  C     -2.779666    3.510307   -3.492243
  O     -1.577051   -0.931223    0.488804
  C     -4.807638    4.476654   -4.128719
  C     -5.859027    3.740186   -4.968201
  N     -4.039970    3.540322   -3.348353
  N     -6.824541    2.942287   -4.234269
  C      4.770788    1.323215   -1.269626
  C      3.945683    0.983978   -2.502440
  N      4.385341    2.631254   -0.752576
  N      2.552535    0.862682   -2.146235
  H     -3.296175   -0.014171   -0.042714
  H      4.997594    2.898134    0.007341
  H      3.454015    2.569869   -0.359916
  H     -7.364694    3.538211   -3.618144
  H     -6.325787    2.297533   -3.633901
  H      2.043425    2.409233   -3.420334
  H      4.666257    0.504642   -0.546004
  H      5.819148    1.362923   -1.567875
  H      4.281518    0.018901   -2.888637
  H      4.117742    1.745584   -3.274154
  H     -2.259861    4.194739   -4.179406
  H     -5.340221    3.089219   -5.674470
  H     -6.395786    4.479276   -5.565434
  H     -5.326948    5.144338   -3.435032
  H     -4.178803    5.097883   -4.785006

 Total Charge           Charge          ....    0
 Multiplicity           Mult            ....    1
 Number of Electrons    NEL             ....  132
 Basis Dimension        Dim             ....  792

ORBITAL ENERGIES
----------------

  NO   OCC          E(Eh)            E(eV)
   0   2.0000     -20.556027      -559.3579
   1   2.0000     -15.569276      -423.6616
   2   2.0000     -15.563009      -423.4910
   3   2.0000     -15.536082      -422.7583
   4   2.0000     -15.534179      -422.7065
   5   2.0000     -11.335944      -308.4667
   6   2.0000     -11.295447      -307.3647
   7   2.0000     -11.288364      -307.1720
   8   2.0000     -11.270128      -306.6758
   9   2.0000     -11.265975      -306.5628
  10   2.0000     -11.261334      -306.4365
  11   2.0000     -11.260660      -306.4181
  12   2.0000     -11.259220      -306.3790
  13   2.0000     -11.257841      -306.3414
  14   2.0000     -11.256339      -306.3006
  15   2.0000     -11.250651      -306.1458
  16   2.0000     -11.250377      -306.1383
  17   2.0000     -11.247937      -306.0719
  18   2.0000      -1.390759       -37.8445
  19   2.0000      -1.254774       -34.1441
  20   2.0000      -1.248645       -33.9774
  21   2.0000      -1.189179       -32.3592
  22   2.0000      -1.176930       -32.0259
  23   2.0000      -1.171346       -31.8739
  24   2.0000      -1.072892       -29.1949
  25   2.0000      -1.069421       -29.1004
  26   2.0000      -0.995412       -27.0865
  27   2.0000      -0.984542       -26.7907
  28   2.0000      -0.910130       -24.7659
  29   2.0000      -0.899223       -24.4691
  30   2.0000      -0.875593       -23.8261
  31   2.0000      -0.830620       -22.6023
  32   2.0000      -0.800521       -21.7833
  33   2.0000      -0.784877       -21.3576
  34   2.0000      -0.756196       -20.5771
  35   2.0000      -0.716918       -19.5083
  36   2.0000      -0.698164       -18.9980
  37   2.0000      -0.680539       -18.5184
  38   2.0000      -0.674672       -18.3588
  39   2.0000      -0.667032       -18.1509
  40   2.0000      -0.656653       -17.8684
  41   2.0000      -0.653186       -17.7741
  42   2.0000      -0.640291       -17.4232
  43   2.0000      -0.630805       -17.1651
  44   2.0000      -0.609828       -16.5943
  45   2.0000      -0.605071       -16.4648
  46   2.0000      -0.601318       -16.3627
  47   2.0000      -0.572750       -15.5853
  48   2.0000      -0.567051       -15.4302
  49   2.0000      -0.550799       -14.9880
  50   2.0000      -0.545874       -14.8540
  51   2.0000      -0.544024       -14.8036
  52   2.0000      -0.531776       -14.4704
  53   2.0000      -0.530530       -14.4365
  54   2.0000      -0.521404       -14.1881
  55   2.0000      -0.503883       -13.7114
  56   2.0000      -0.497648       -13.5417
  57   2.0000      -0.466657       -12.6984
  58   2.0000      -0.433097       -11.7852
  59   2.0000      -0.430418       -11.7123
  60   2.0000      -0.421096       -11.4586
  61   2.0000      -0.415722       -11.3124
  62   2.0000      -0.393888       -10.7182
  63   2.0000      -0.390851       -10.6356
  64   2.0000      -0.354125        -9.6362
  65   2.0000      -0.332413        -9.0454
  66   0.0000       0.054968         1.4957
  67   0.0000       0.064174         1.7463
  68   0.0000       0.121884         3.3166
  69   0.0000       0.133247         3.6258
  70   0.0000       0.143159         3.8956

MULLIKEN ATOMIC CHARGES
-----------------------
   0 C :    0.071016
   1 C :    0.174020
   2 C :   -0.190716
   3 C :    0.148673
   4 H :    0.168002
   5 C :   -0.205962
   6 C :    0.153053
   7 H :    0.145394
   8 C :   -0.170993
   9 C :   -0.096300
  10 H :    0.195847
  11 C :   -0.092245
  12 O :   -0.355688
  13 C :   -0.044395
  14 C :   -0.051654
  15 N :   -0.252844
  16 N :   -0.363676
  17 C :   -0.049359
  18 C :   -0.033095
  19 N :   -0.389040
  20 N :   -0.249475
  21 H :    0.089720
  22 H :    0.141353
  23 H :    0.150335
  24 H :    0.130011
  25 H :    0.145933
  26 H :    0.088931
  27 H :    0.078431
  28 H :    0.088083
  29 H :    0.103092
  30 H :    0.058496
  31 H :    0.089388
  32 H :    0.085950
  33 H :    0.093842
  34 H :    0.089175
  35 H :    0.056697
Sum of atomic charges:   -0.0000000

LOEWDIN ATOMIC CHARGES
----------------------
   0 C :   -0.091499
   1 C :   -0.149021
   2 C :    0.098878
   3 C :   -0.078330
   4 H :   -0.016589
   5 C :    0.082252
   6 C :   -0.074699
   7 H :   -0.018186
   8 C :    0.122723
   9 C :   -0.076860
  10 H :   -0.008754
  11 C :   -0.076996
  12 O :    0.145530
  13 C :   -0.046331
  14 C :   -0.026835
  15 N :    0.217141
  16 N :    0.327177
  17 C :   -0.019938
  18 C :   -0.039308
  19 N :    0.321151
  20 N :    0.222916
  21 H :   -0.034909
  22 H :   -0.109698
  23 H :   -0.110903
  24 H :   -0.110194
  25 H :   -0.110188
  26 H :   -0.035723
  27 H :   -0.041401
  28 H :   -0.030150
  29 H :   -0.026689
  30 H :   -0.038078
  31 H :   -0.035212
  32 H :   -0.031755
  33 H :   -0.028696
  34 H :   -0.032808
  35 H :   -0.038018

  Mayer bond orders larger than 0.100000
B(  0-C ,  1-C ) :   0.9294 B(  0-C ,  2-C ) :   1.3439 B(  0-C ,  8-C ) :   1.2963
B(  1-C , 12-O ) :   2.0956 B(  1-C , 21-H ) :   1.0208 B(  2-C ,  3-C ) :   1.3224
B(  2-C ,  4-H ) :   0.9611 B(  3-C ,  5-C ) :   1.3804 B(  3-C , 11-C ) :   0.9894
B(  5-C ,  6-C ) :   1.3498 B(  5-C ,  7-H ) :   0.9752 B(  6-C ,  8-C ) :   1.3352
B(  6-C ,  9-C ) :   0.9844 B(  8-C , 10-H ) :   0.9480 B(  9-C , 20-N ) :   1.9951
B(  9-C , 26-H ) :   0.9964 B( 11-C , 15-N ) :   2.0095 B( 11-C , 31-H ) :   0.9927
B( 13-C , 14-C ) :   0.9561 B( 13-C , 15-N ) :   0.9524 B( 13-C , 34-H ) :   0.9717
B( 13-C , 35-H ) :   0.9765 B( 14-C , 16-N ) :   1.0050 B( 14-C , 32-H ) :   0.9812
B( 14-C , 33-H ) :   0.9874 B( 16-N , 24-H ) :   0.9999 B( 16-N , 25-H ) :   0.9948
B( 17-C , 18-C ) :   0.9456 B( 17-C , 19-N ) :   0.9806 B( 17-C , 27-H ) :   0.9840
B( 17-C , 28-H ) :   0.9831 B( 18-C , 20-N ) :   0.9597 B( 18-C , 29-H ) :   0.9830
B( 18-C , 30-H ) :   0.9745 B( 19-N , 22-H ) :   0.9911 B( 19-N , 23-H ) :   0.9822

MP2 TOTAL ENERGY:     -798.808078540 Eh
FINAL SINGLE POINT ENERGY      -798.808078540190

DIPOLE MOMENT
-------------
                                X             Y             Z
Electronic contribution:     -2.17689      -7.31327       6.35496
Nuclear contribution   :      2.63871       8.87391      -7.08148
                        -----------------------------------------
Total Dipole Moment    :      0.46182       1.56064      -0.72653
                        -----------------------------------------
Magnitude (a.u.)       :      1.78233
Magnitude (Debye)      :      4.53032

Rotational constants in cm-1:     0.022884     0.005077     0.004341
Rotational constants in MHz :   686.052530   152.195360   130.142090

                             ****ORCA TERMINATED NORMALLY****
TOTAL RUN TIME: 0 days 0 hours 19 minutes 41 seconds 274 msec
