                         Program Version 4.2.1 -  RELEASE  -
|  1> ! DFT COPT B97-3c TightSCF printbasis  Grid6 NOFINALGRID SlowConv
|  2>
|  3> %base "_o_1_alde1_3_ami4_2_opt_B97-3c"
|  4> %maxcore 3000
|  5> %scf
|  6>    MaxIter 2000
|  7> end
|  8> %pal
|  9>    nprocs 32
| 10> end
| 11>
| 12> * xyzfile 0 1 o_1_alde1_3_ami4_2_opt.xyz
| 13> # * xyzfile 0 1 _o_1_alde1_3_ami4_2_opt_B97-3c.xyz
| 14>
| 15>                          ****END OF INPUT****
 Total Charge           Charge          ....    0
 Multiplicity           Mult            ....    1
 Number of Electrons    NEL             ....  156
Dispersion correction           -0.107576201
FINAL SINGLE POINT ENERGY      -914.054631382180
Dispersion correction            ... done
Dispersion correction           -0.107563477
FINAL SINGLE POINT ENERGY      -914.055427010599
Dispersion correction            ... done
Dispersion correction           -0.107557955
FINAL SINGLE POINT ENERGY      -914.055853056152
Dispersion correction            ... done
FINAL SINGLE POINT ENERGY      -914.056161104905
FINAL SINGLE POINT ENERGY      -914.056394481915
FINAL SINGLE POINT ENERGY      -914.056520651739
FINAL SINGLE POINT ENERGY      -914.056602434358
FINAL SINGLE POINT ENERGY      -914.056671068795
FINAL SINGLE POINT ENERGY      -914.056748696145
FINAL SINGLE POINT ENERGY      -914.056825697781
FINAL SINGLE POINT ENERGY      -914.057757702187
FINAL SINGLE POINT ENERGY      -914.057762608017
FINAL SINGLE POINT ENERGY      -914.057767198586
FINAL SINGLE POINT ENERGY      -914.057771824823
FINAL SINGLE POINT ENERGY      -914.057776578252
FINAL SINGLE POINT ENERGY      -914.057781624307
FINAL SINGLE POINT ENERGY      -914.057786499724
Dispersion correction            ... done
Dispersion correction           -0.107172180
FINAL SINGLE POINT ENERGY      -914.057790310893
Dispersion correction            ... done
Dispersion correction           -0.107166935
FINAL SINGLE POINT ENERGY      -914.057792920454
Dispersion correction            ... done
                    ***********************HURRAY********************

CARTESIAN COORDINATES (ANGSTROEM)
---------------------------------
  C     -0.845297   -0.344541   -1.076322
  C     -0.922735   -1.681471   -0.450578
  C     -1.933930    0.512220   -1.155871
  C     -1.820299    1.761498   -1.772186
  H     -2.900190    0.222216   -0.775886
  C     -0.604611    2.146173   -2.317771
  C      0.499968    1.293605   -2.265608
  H     -0.490247    3.109178   -2.796973
  C      0.363475    0.050214   -1.658755
  C      1.789233    1.687810   -2.832452
  H      1.213916   -0.621802   -1.624445
  C     -2.971261    2.661223   -1.850907
  C     -3.717582   -1.431187    1.441178
  C     -2.209140   -1.151992    1.487216
  N     -4.142100   -2.762563    1.838740
  N     -1.492818   -2.062634    0.620459
  H     -1.862213   -1.353093    2.504210
  C     -5.174627    3.331791   -1.428424
  C     -6.429011    2.586474   -1.855445
  N     -4.076279    2.406105   -1.282961
  N     -6.829202    1.646179   -0.817961
  C      3.296582    3.119399   -3.888700
  C      3.834334    4.382593   -3.228473
  N      1.979137    2.812260   -3.389192
  H      4.017223    2.304451   -3.747024
  N      5.126273    4.736832   -3.806600
  H      4.996361    5.111766   -4.738182
  H      5.556801    5.472408   -3.262564
  H     -3.913060   -2.913809    2.813896
  H     -3.603171   -3.444287    1.319228
  H     -7.604990    1.080859   -1.136644
  H     -6.058439    1.014954   -0.638321
  H     -0.372865   -2.455965   -0.990859
  H     -2.816501    3.580700   -2.433460
  H      2.595628    0.945105   -2.741537
  H     -2.026214   -0.092561    1.280057
  H      3.212514    3.300798   -4.964862
  H     -4.955571    4.141185   -2.138514
  H     -5.368282    3.777213   -0.449687
  H     -6.237413    2.127361   -2.836844
  H     -7.227315    3.317301   -1.996917
  H     -4.075012   -1.251537    0.425381
  H     -4.218992   -0.699582    2.076171
  H      3.068186    5.164453   -3.299482
  H      3.979961    4.180953   -2.166834

 Multiplicity           Mult            ....    1
 Number of Electrons    NEL             ....  156
 Basis Dimension        Dim             ....  471

ORBITAL ENERGIES
----------------

  NO   OCC          E(Eh)            E(eV)
   0   2.0000     -13.987807      -380.6276
   1   2.0000     -13.987644      -380.6231
   2   2.0000     -13.983368      -380.5068
   3   2.0000     -13.973158      -380.2290
   4   2.0000     -13.959598      -379.8600
   5   2.0000     -13.958524      -379.8307
   6   2.0000      -9.940571      -270.4967
   7   2.0000      -9.940107      -270.4841
   8   2.0000      -9.937316      -270.4081
   9   2.0000      -9.919286      -269.9175
  10   2.0000      -9.918046      -269.8838
  11   2.0000      -9.917257      -269.8623
  12   2.0000      -9.916873      -269.8518
  13   2.0000      -9.916763      -269.8488
  14   2.0000      -9.916394      -269.8388
  15   2.0000      -9.915890      -269.8251
  16   2.0000      -9.911906      -269.7167
  17   2.0000      -9.911364      -269.7019
  18   2.0000      -9.911306      -269.7003
  19   2.0000      -9.911131      -269.6956
  20   2.0000      -9.910123      -269.6682
  21   2.0000      -0.863054       -23.4849
  22   2.0000      -0.860677       -23.4202
  23   2.0000      -0.853517       -23.2254
  24   2.0000      -0.817048       -22.2330
  25   2.0000      -0.809882       -22.0380
  26   2.0000      -0.804291       -21.8859
  27   2.0000      -0.798962       -21.7409
  28   2.0000      -0.725746       -19.7486
  29   2.0000      -0.720155       -19.5964
  30   2.0000      -0.674110       -18.3435
  31   2.0000      -0.666802       -18.1446
  32   2.0000      -0.665628       -18.1127
  33   2.0000      -0.604650       -16.4534
  34   2.0000      -0.596968       -16.2443
  35   2.0000      -0.584821       -15.9138
  36   2.0000      -0.560692       -15.2572
  37   2.0000      -0.548665       -14.9299
  38   2.0000      -0.535217       -14.5640
  39   2.0000      -0.504547       -13.7294
  40   2.0000      -0.491879       -13.3847
  41   2.0000      -0.472189       -12.8489
  42   2.0000      -0.465048       -12.6546
  43   2.0000      -0.453090       -12.3292
  44   2.0000      -0.448193       -12.1959
  45   2.0000      -0.446432       -12.1480
  46   2.0000      -0.438953       -11.9445
  47   2.0000      -0.432347       -11.7648
  48   2.0000      -0.423351       -11.5200
  49   2.0000      -0.421613       -11.4727
  50   2.0000      -0.413131       -11.2419
  51   2.0000      -0.403382       -10.9766
  52   2.0000      -0.397588       -10.8189
  53   2.0000      -0.393344       -10.7034
  54   2.0000      -0.389339       -10.5945
  55   2.0000      -0.377600       -10.2750
  56   2.0000      -0.367208        -9.9922
  57   2.0000      -0.361386        -9.8338
  58   2.0000      -0.353044        -9.6068
  59   2.0000      -0.347532        -9.4568
  60   2.0000      -0.345118        -9.3911
  61   2.0000      -0.341898        -9.3035
  62   2.0000      -0.337045        -9.1715
  63   2.0000      -0.331215        -9.0128
  64   2.0000      -0.318614        -8.6699
  65   2.0000      -0.311805        -8.4846
  66   2.0000      -0.308314        -8.3896
  67   2.0000      -0.302694        -8.2367
  68   2.0000      -0.294277        -8.0077
  69   2.0000      -0.266610        -7.2548
  70   2.0000      -0.231628        -6.3029
  71   2.0000      -0.227832        -6.1996
  72   2.0000      -0.225765        -6.1434
  73   2.0000      -0.223567        -6.0836
  74   2.0000      -0.208512        -5.6739
  75   2.0000      -0.203117        -5.5271
  76   2.0000      -0.192568        -5.2400
  77   2.0000      -0.191654        -5.2152
  78   0.0000      -0.093042        -2.5318
  79   0.0000      -0.085455        -2.3253
  80   0.0000      -0.056132        -1.5274
  81   0.0000       0.002448         0.0666
  82   0.0000       0.016613         0.4521

MULLIKEN ATOMIC CHARGES
-----------------------
   0 C :    0.092797
   1 C :   -0.319011
   2 C :   -0.039607
   3 C :    0.249249
   4 H :    0.213144
   5 C :   -0.205394
   6 C :    0.192373
   7 H :    0.220336
   8 C :   -0.158914
   9 C :   -0.372322
  10 H :    0.213497
  11 C :   -0.394859
  12 C :   -0.286690
  13 C :   -0.360163
  14 N :   -0.624016
  15 N :   -0.086569
  16 H :    0.167048
  17 C :   -0.251325
  18 C :   -0.190771
  19 N :   -0.109623
  20 N :   -0.677445
  21 C :   -0.286188
  22 C :   -0.248056
  23 N :   -0.046499
  24 H :    0.136802
  25 N :   -0.659109
  26 H :    0.303790
  27 H :    0.313019
  28 H :    0.294928
  29 H :    0.310477
  30 H :    0.303003
  31 H :    0.316566
  32 H :    0.149921
  33 H :    0.116791
  34 H :    0.105981
  35 H :    0.187558
  36 H :    0.164210
  37 H :    0.131476
  38 H :    0.175510
  39 H :    0.133068
  40 H :    0.156389
  41 H :    0.176659
  42 H :    0.181967
  43 H :    0.154258
  44 H :    0.155745
Sum of atomic charges:   -0.0000000

LOEWDIN ATOMIC CHARGES
----------------------
   0 C :   -0.086971
   1 C :   -0.052263
   2 C :   -0.109869
   3 C :   -0.078250
   4 H :    0.184587
   5 C :   -0.108292
   6 C :   -0.079525
   7 H :    0.184580
   8 C :   -0.121213
   9 C :   -0.040685
  10 H :    0.174435
  11 C :   -0.038233
  12 C :   -0.222480
  13 C :   -0.239227
  14 N :   -0.538001
  15 N :   -0.197583
  16 H :    0.150796
  17 C :   -0.215993
  18 C :   -0.214362
  19 N :   -0.196984
  20 N :   -0.555743
  21 C :   -0.215687
  22 C :   -0.218801
  23 N :   -0.190575
  24 H :    0.140588
  25 N :   -0.550972
  26 H :    0.254971
  27 H :    0.257460
  28 H :    0.253472
  29 H :    0.258292
  30 H :    0.254808
  31 H :    0.259951
  32 H :    0.156760
  33 H :    0.141282
  34 H :    0.139410
  35 H :    0.150531
  36 H :    0.153029
  37 H :    0.137262
  38 H :    0.164935
  39 H :    0.126848
  40 H :    0.147527
  41 H :    0.144059
  42 H :    0.155147
  43 H :    0.132204
  44 H :    0.148777

  Mayer bond orders larger than 0.100000
B(  0-C ,  1-C ) :   0.9076 B(  0-C ,  2-C ) :   1.2285 B(  0-C ,  3-C ) :   0.1482
B(  0-C ,  6-C ) :   0.1185 B(  0-C ,  8-C ) :   1.2941 B(  1-C , 15-N ) :   2.0397
B(  1-C , 32-H ) :   0.9582 B(  2-C ,  3-C ) :   1.3442 B(  2-C ,  4-H ) :   0.8958
B(  2-C , 19-N ) :   0.1049 B(  3-C ,  5-C ) :   1.1251 B(  3-C ,  6-C ) :   0.1317
B(  3-C , 11-C ) :   0.9665 B(  3-C , 19-N ) :  -0.2569 B(  5-C ,  6-C ) :   1.3875
B(  5-C ,  7-H ) :   0.8862 B(  6-C ,  8-C ) :   1.2921 B(  6-C ,  9-C ) :   0.9690
B(  6-C , 23-N ) :  -0.2706 B(  8-C , 10-H ) :   0.8824 B(  9-C , 23-N ) :   2.0635
B(  9-C , 34-H ) :   0.9024 B( 11-C , 19-N ) :   2.0962 B( 11-C , 33-H ) :   0.9155
B( 12-C , 13-C ) :   0.8838 B( 12-C , 14-N ) :   1.0468 B( 12-C , 41-H ) :   0.9369
B( 12-C , 42-H ) :   0.9509 B( 13-C , 15-N ) :   0.8720 B( 13-C , 16-H ) :   0.9415
B( 13-C , 35-H ) :   0.9273 B( 14-N , 28-H ) :   0.8791 B( 14-N , 29-H ) :   0.8696
B( 17-C , 18-C ) :   0.9318 B( 17-C , 19-N ) :   0.9208 B( 17-C , 37-H ) :   0.9314
B( 17-C , 38-H ) :   0.9304 B( 18-C , 20-N ) :   1.0054 B( 18-C , 39-H ) :   0.9372
B( 18-C , 40-H ) :   0.9473 B( 20-N , 30-H ) :   0.8740 B( 20-N , 31-H ) :   0.8669
B( 21-C , 22-C ) :   0.9154 B( 21-C , 23-N ) :   0.9693 B( 21-C , 24-H ) :   0.9271
B( 21-C , 36-H ) :   0.9435 B( 22-C , 25-N ) :   1.0701 B( 22-C , 43-H ) :   0.9594
B( 22-C , 44-H ) :   0.9440 B( 25-N , 26-H ) :   0.8726 B( 25-N , 27-H ) :   0.8749

Dispersion correction           -0.107163953
FINAL SINGLE POINT ENERGY      -914.057795174691

DIPOLE MOMENT
-------------
                                X             Y             Z
Electronic contribution:      4.90998      -4.83606      -1.88645
Nuclear contribution   :     -4.05467       5.79737       1.13758
                        -----------------------------------------
Total Dipole Moment    :      0.85532       0.96131      -0.74888
                        -----------------------------------------
Magnitude (a.u.)       :      1.48879
Magnitude (Debye)      :      3.78421

Rotational constants in cm-1:     0.012058     0.004169     0.003207
Rotational constants in MHz :   361.478216   124.995012    96.138265

                             ****ORCA TERMINATED NORMALLY****
TOTAL RUN TIME: 0 days 0 hours 20 minutes 41 seconds 543 msec
