                         Program Version 4.2.1 -  RELEASE  -
|  1> ! RI-MP2 cc-pVTZ cc-pVTZ/C TIGHTSCF printbasis Grid6 NOFINALGRID SlowConv
|  2>
|  3> %base "_o_1_alde1_3_ami2_1_opt_MP2"
|  4> %maxcore 3000
|  5> %pal
|  6>    nprocs 32
|  7> end
|  8>
|  9> * xyzfile 0 1 _o_1_alde1_3_ami2_1_opt_B97-3c.xyz
| 10>
| 11>                          ****END OF INPUT****

CARTESIAN COORDINATES (ANGSTROEM)
---------------------------------
  C     -1.784823    1.115982   -0.963435
  C     -2.173691    0.350540    0.269122
  C     -2.750869    1.581853   -1.844457
  C     -2.385669    2.243620   -3.010577
  H     -3.802473    1.454211   -1.623602
  C     -1.037474    2.439390   -3.284604
  C     -0.059774    1.978544   -2.412074
  H     -0.746077    2.961249   -4.189234
  C     -0.443428    1.317915   -1.254642
  C      1.397183    2.245642   -2.669432
  H      0.312185    0.962301   -0.569406
  C     -3.429367    2.683768   -3.999545
  C     -1.853119   -1.592986    1.445100
  C     -1.106931   -0.505741    2.250963
  N     -1.978613   -1.083075    0.087074
  N     -1.362701    0.712512    1.450299
  C     -5.810666    2.794303   -4.283876
  C     -5.095487    2.031722   -5.426275
  N     -4.690203    3.108442   -3.368089
  N     -3.806296    1.600891   -4.900717
  C      3.519305    1.597270   -1.730856
  C      3.321724    3.129127   -1.780644
  N      2.260000    1.096448   -2.325695
  N      1.885307    3.355816   -1.858770
  H      2.438480    0.526458   -3.140545
  H      1.522934    2.525812   -3.723613
  H      1.472080    3.278279   -0.936426
  H     -3.241382    0.515749    0.463180
  H     -1.110351   -1.222796   -0.417287
  H     -4.667665    4.091199   -3.132284
  H     -3.923976    0.760653   -4.344528
  H     -3.004741    3.485068   -4.621124
  H     -4.919907    2.704770   -6.268198
  H     -5.668494    1.183953   -5.794867
  H      3.789929    3.533519   -2.681089
  H      3.750929    3.644897   -0.924112
  C      0.393669   -0.780116    2.277579
  H      0.776333   -0.921821    1.267451
  H      0.627171   -1.671486    2.862114
  H      0.927451    0.064960    2.709729
  H     -1.828347    1.421427    1.999248
  C     -1.646930   -0.371946    3.665496
  C     -6.500654    4.051538   -4.791797
  H     -7.290021    3.806515   -5.502336
  H     -5.791092    4.709190   -5.294642
  H     -6.960112    4.607802   -3.974082
  C     -6.805661    1.893782   -3.560133
  H     -6.321835    0.970321   -3.243813
  H     -7.652357    1.638500   -4.198767
  H     -7.186238    2.385262   -2.665848
  C      4.734241    1.154492   -2.529910
  H      4.668326    1.501322   -3.561673
  H      4.826107    0.068007   -2.539793
  H      5.652015    1.555907   -2.100526
  C      3.621242    1.105374   -0.289964
  H      3.603661    0.017082   -0.257873
  H      2.776085    1.459830    0.299008
  H      4.540327    1.449508    0.186885
  H     -1.481293   -1.285515    4.236328
  H     -2.719214   -0.173979    3.655045
  H     -1.154803    0.441111    4.200189
  H     -1.348309   -2.556705    1.455288
  H     -2.854298   -1.737500    1.857482

 Total Charge           Charge          ....    0
 Multiplicity           Mult            ....    1
 Number of Electrons    NEL             ....  204
 Basis Dimension        Dim             .... 1314

ORBITAL ENERGIES
----------------

  NO   OCC          E(Eh)            E(eV)
   0   2.0000     -15.536829      -422.7786
   1   2.0000     -15.536534      -422.7706
   2   2.0000     -15.536303      -422.7643
   3   2.0000     -15.530459      -422.6053
   4   2.0000     -15.529331      -422.5746
   5   2.0000     -15.529243      -422.5722
   6   2.0000     -11.276522      -306.8498
   7   2.0000     -11.276103      -306.8384
   8   2.0000     -11.275214      -306.8142
   9   2.0000     -11.255014      -306.2645
  10   2.0000     -11.254319      -306.2456
  11   2.0000     -11.254158      -306.2412
  12   2.0000     -11.239887      -305.8529
  13   2.0000     -11.239507      -305.8425
  14   2.0000     -11.239334      -305.8378
  15   2.0000     -11.222498      -305.3797
  16   2.0000     -11.221625      -305.3559
  17   2.0000     -11.220865      -305.3353
  18   2.0000     -11.217316      -305.2387
  19   2.0000     -11.214339      -305.1577
  20   2.0000     -11.214291      -305.1564
  21   2.0000     -11.214242      -305.1550
  22   2.0000     -11.213451      -305.1335
  23   2.0000     -11.210555      -305.0547
  24   2.0000     -11.204768      -304.8972
  25   2.0000     -11.204276      -304.8839
  26   2.0000     -11.204255      -304.8833
  27   2.0000      -1.268993       -34.5310
  28   2.0000      -1.267475       -34.4898
  29   2.0000      -1.266624       -34.4666
  30   2.0000      -1.149965       -31.2921
  31   2.0000      -1.138409       -30.9777
  32   2.0000      -1.138242       -30.9731
  33   2.0000      -1.136622       -30.9291
  34   2.0000      -1.068000       -29.0617
  35   2.0000      -1.067029       -29.0353
  36   2.0000      -1.045963       -28.4621
  37   2.0000      -1.008439       -27.4410
  38   2.0000      -1.004249       -27.3270
  39   2.0000      -0.936918       -25.4948
  40   2.0000      -0.936807       -25.4918
  41   2.0000      -0.936102       -25.4726
  42   2.0000      -0.917783       -24.9741
  43   2.0000      -0.912964       -24.8430
  44   2.0000      -0.911783       -24.8109
  45   2.0000      -0.861917       -23.4539
  46   2.0000      -0.850519       -23.1438
  47   2.0000      -0.839418       -22.8417
  48   2.0000      -0.782271       -21.2867
  49   2.0000      -0.766759       -20.8646
  50   2.0000      -0.759440       -20.6654
  51   2.0000      -0.758614       -20.6429
  52   2.0000      -0.758486       -20.6395
  53   2.0000      -0.701835       -19.0979
  54   2.0000      -0.688485       -18.7346
  55   2.0000      -0.670739       -18.2517
  56   2.0000      -0.664963       -18.0946
  57   2.0000      -0.658527       -17.9194
  58   2.0000      -0.655379       -17.8338
  59   2.0000      -0.649502       -17.6738
  60   2.0000      -0.620690       -16.8898
  61   2.0000      -0.607920       -16.5423
  62   2.0000      -0.606113       -16.4932
  63   2.0000      -0.604114       -16.4388
  64   2.0000      -0.602287       -16.3891
  65   2.0000      -0.594316       -16.1722
  66   2.0000      -0.592876       -16.1330
  67   2.0000      -0.583332       -15.8733
  68   2.0000      -0.580533       -15.7971
  69   2.0000      -0.563706       -15.3392
  70   2.0000      -0.557027       -15.1575
  71   2.0000      -0.553994       -15.0749
  72   2.0000      -0.552069       -15.0226
  73   2.0000      -0.544304       -14.8113
  74   2.0000      -0.542611       -14.7652
  75   2.0000      -0.541464       -14.7340
  76   2.0000      -0.534450       -14.5431
  77   2.0000      -0.533618       -14.5205
  78   2.0000      -0.532671       -14.4947
  79   2.0000      -0.509389       -13.8612
  80   2.0000      -0.508895       -13.8477
  81   2.0000      -0.508371       -13.8335
  82   2.0000      -0.502772       -13.6811
  83   2.0000      -0.501323       -13.6417
  84   2.0000      -0.500294       -13.6137
  85   2.0000      -0.496651       -13.5146
  86   2.0000      -0.494594       -13.4586
  87   2.0000      -0.488835       -13.3019
  88   2.0000      -0.471622       -12.8335
  89   2.0000      -0.469579       -12.7779
  90   2.0000      -0.468240       -12.7415
  91   2.0000      -0.467645       -12.7253
  92   2.0000      -0.462711       -12.5910
  93   2.0000      -0.457047       -12.4369
  94   2.0000      -0.381621       -10.3844
  95   2.0000      -0.380619       -10.3572
  96   2.0000      -0.379931       -10.3384
  97   2.0000      -0.367437        -9.9985
  98   2.0000      -0.365073        -9.9341
  99   2.0000      -0.362576        -9.8662
 100   2.0000      -0.317799        -8.6477
 101   2.0000      -0.312705        -8.5091
 102   0.0000       0.130048         3.5388
 103   0.0000       0.130841         3.5604
 104   0.0000       0.134427         3.6579
 105   0.0000       0.138071         3.7571
 106   0.0000       0.139354         3.7920

MULLIKEN ATOMIC CHARGES
-----------------------
   0 C :    0.080083
   1 C :    0.039256
   2 C :   -0.243798
   3 C :    0.105473
   4 H :    0.165020
   5 C :   -0.266493
   6 C :    0.104569
   7 H :    0.132510
   8 C :   -0.229493
   9 C :    0.038079
  10 H :    0.192828
  11 C :    0.058948
  12 C :   -0.096501
  13 C :    0.104619
  14 N :   -0.257961
  15 N :   -0.288733
  16 C :    0.104226
  17 C :   -0.099483
  18 N :   -0.292194
  19 N :   -0.257402
  20 C :    0.104611
  21 C :   -0.096180
  22 N :   -0.288252
  23 N :   -0.257489
  24 H :    0.105611
  25 H :    0.091717
  26 H :    0.108384
  27 H :    0.092280
  28 H :    0.108473
  29 H :    0.105553
  30 H :    0.106988
  31 H :    0.089435
  32 H :    0.091187
  33 H :    0.109277
  34 H :    0.090095
  35 H :    0.108287
  36 C :   -0.306789
  37 H :    0.096587
  38 H :    0.101113
  39 H :    0.100694
  40 H :    0.104672
  41 C :   -0.316195
  42 C :   -0.316845
  43 H :    0.099923
  44 H :    0.099024
  45 H :    0.102925
  46 C :   -0.291573
  47 H :    0.093893
  48 H :    0.094764
  49 H :    0.097371
  50 C :   -0.316048
  51 H :    0.097144
  52 H :    0.105056
  53 H :    0.099280
  54 C :   -0.307374
  55 H :    0.100976
  56 H :    0.096789
  57 H :    0.101368
  58 H :    0.099361
  59 H :    0.096980
  60 H :    0.104802
  61 H :    0.108546
  62 H :    0.090026
Sum of atomic charges:   -0.0000000

LOEWDIN ATOMIC CHARGES
----------------------
   0 C :   -0.049868
   1 C :   -0.145750
   2 C :    0.047280
   3 C :   -0.048260
   4 H :   -0.028092
   5 C :    0.049200
   6 C :   -0.049103
   7 H :   -0.024019
   8 C :    0.047570
   9 C :   -0.145209
  10 H :   -0.029197
  11 C :   -0.152628
  12 C :   -0.000981
  13 C :   -0.181091
  14 N :    0.310852
  15 N :    0.325164
  16 C :   -0.178409
  17 C :    0.002066
  18 N :    0.328066
  19 N :    0.309494
  20 C :   -0.180976
  21 C :   -0.000788
  22 N :    0.325677
  23 N :    0.310674
  24 H :   -0.120974
  25 H :   -0.031205
  26 H :   -0.112125
  27 H :   -0.030691
  28 H :   -0.111987
  29 H :   -0.119290
  30 H :   -0.110476
  31 H :   -0.030953
  32 H :   -0.029846
  33 H :   -0.029348
  34 H :   -0.029839
  35 H :   -0.029157
  36 C :    0.106611
  37 H :   -0.031506
  38 H :   -0.031608
  39 H :   -0.029376
  40 H :   -0.121325
  41 C :    0.109927
  42 C :    0.109014
  43 H :   -0.024616
  44 H :   -0.030014
  45 H :   -0.028121
  46 C :    0.106002
  47 H :   -0.030768
  48 H :   -0.031821
  49 H :   -0.029443
  50 C :    0.110028
  51 H :   -0.030181
  52 H :   -0.027412
  53 H :   -0.024306
  54 C :    0.106682
  55 H :   -0.029298
  56 H :   -0.031537
  57 H :   -0.031653
  58 H :   -0.024324
  59 H :   -0.030291
  60 H :   -0.027416
  61 H :   -0.029185
  62 H :   -0.029847

  Mayer bond orders larger than 0.100000
B(  0-C ,  1-C ) :   1.0119 B(  0-C ,  2-C ) :   1.3868 B(  0-C ,  8-C ) :   1.3651
B(  1-C , 14-N ) :   1.0191 B(  1-C , 15-N ) :   1.0064 B(  1-C , 27-H ) :   0.9977
B(  2-C ,  3-C ) :   1.3446 B(  2-C ,  4-H ) :   0.9492 B(  3-C ,  5-C ) :   1.3908
B(  3-C , 11-C ) :   1.0173 B(  5-C ,  6-C ) :   1.3739 B(  5-C ,  7-H ) :   0.9713
B(  6-C ,  8-C ) :   1.3701 B(  6-C ,  9-C ) :   1.0069 B(  8-C , 10-H ) :   0.9297
B(  9-C , 22-N ) :   1.0090 B(  9-C , 23-N ) :   1.0197 B(  9-C , 25-H ) :   0.9987
B( 11-C , 18-N ) :   1.0095 B( 11-C , 19-N ) :   1.0137 B( 11-C , 31-H ) :   0.9939
B( 12-C , 13-C ) :   0.9385 B( 12-C , 14-N ) :   1.0012 B( 12-C , 61-H ) :   0.9913
B( 12-C , 62-H ) :   0.9925 B( 13-C , 15-N ) :   0.9957 B( 13-C , 36-C ) :   0.9517
B( 13-C , 41-C ) :   0.9551 B( 14-N , 28-H ) :   1.0003 B( 15-N , 40-H ) :   0.9936
B( 16-C , 17-C ) :   0.9360 B( 16-C , 18-N ) :   0.9819 B( 16-C , 42-C ) :   0.9559
B( 16-C , 46-C ) :   0.9542 B( 17-C , 19-N ) :   1.0018 B( 17-C , 32-H ) :   0.9934
B( 17-C , 33-H ) :   0.9923 B( 18-N , 29-H ) :   0.9924 B( 19-N , 30-H ) :   0.9979
B( 20-C , 21-C ) :   0.9384 B( 20-C , 22-N ) :   0.9957 B( 20-C , 50-C ) :   0.9551
B( 20-C , 54-C ) :   0.9520 B( 21-C , 23-N ) :   1.0007 B( 21-C , 34-H ) :   0.9925
B( 21-C , 35-H ) :   0.9913 B( 22-N , 24-H ) :   0.9933 B( 23-N , 26-H ) :   1.0003
B( 36-C , 37-H ) :   0.9810 B( 36-C , 38-H ) :   0.9845 B( 36-C , 39-H ) :   0.9815
B( 41-C , 58-H ) :   0.9805 B( 41-C , 59-H ) :   0.9833 B( 41-C , 60-H ) :   0.9817
B( 42-C , 43-H ) :   0.9800 B( 42-C , 44-H ) :   0.9828 B( 42-C , 45-H ) :   0.9812
B( 46-C , 47-H ) :   0.9822 B( 46-C , 48-H ) :   0.9831 B( 46-C , 49-H ) :   0.9819
B( 50-C , 51-H ) :   0.9832 B( 50-C , 52-H ) :   0.9816 B( 50-C , 53-H ) :   0.9805
B( 54-C , 55-H ) :   0.9814 B( 54-C , 56-H ) :   0.9810 B( 54-C , 57-H ) :   0.9845

MP2 TOTAL ENERGY:    -1148.020721830 Eh
FINAL SINGLE POINT ENERGY     -1148.020721830358

DIPOLE MOMENT
-------------
                                X             Y             Z
Electronic contribution:     -2.36397       3.65668      -7.65409
Nuclear contribution   :      2.40854      -3.55543       8.01841
                        -----------------------------------------
Total Dipole Moment    :      0.04457       0.10125       0.36432
                        -----------------------------------------
Magnitude (a.u.)       :      0.38074
Magnitude (Debye)      :      0.96777

Rotational constants in cm-1:     0.007212     0.003660     0.002614
Rotational constants in MHz :   216.196044   109.722261    78.351402

                             ****ORCA TERMINATED NORMALLY****
TOTAL RUN TIME: 0 days 0 hours 24 minutes 3 seconds 907 msec
