                         Program Version 4.2.1 -  RELEASE  -
|  1> ! DFT COPT B97-3c TightSCF printbasis  Grid6 NOFINALGRID SlowConv
|  2>
|  3> %base "_o_1_alde1_2_ami2_1_opt_B97-3c"
|  4> %maxcore 3000
|  5> %scf
|  6>    MaxIter 2000
|  7> end
|  8> %pal
|  9>    nprocs 32
| 10> end
| 11>
| 12> * xyzfile 0 1 o_1_alde1_2_ami2_1_opt.xyz
| 13> # * xyzfile 0 1 _o_1_alde1_2_ami2_1_opt_B97-3c.xyz
| 14>
| 15>                          ****END OF INPUT****
 Total Charge           Charge          ....    0
 Multiplicity           Mult            ....    1
 Number of Electrons    NEL             ....  164
Dispersion correction           -0.127795898
FINAL SINGLE POINT ENERGY      -957.226116255909
Dispersion correction            ... done
Dispersion correction           -0.127808936
FINAL SINGLE POINT ENERGY      -957.226711502938
Dispersion correction            ... done
Dispersion correction           -0.127822202
FINAL SINGLE POINT ENERGY      -957.226919965956
Dispersion correction            ... done
FINAL SINGLE POINT ENERGY      -957.227046761963
FINAL SINGLE POINT ENERGY      -957.227184206554
FINAL SINGLE POINT ENERGY      -957.227279237844
FINAL SINGLE POINT ENERGY      -957.227349253380
FINAL SINGLE POINT ENERGY      -957.227415248743
FINAL SINGLE POINT ENERGY      -957.227486580132
FINAL SINGLE POINT ENERGY      -957.227552529508
FINAL SINGLE POINT ENERGY      -957.228188327522
FINAL SINGLE POINT ENERGY      -957.228193605617
FINAL SINGLE POINT ENERGY      -957.228197460847
FINAL SINGLE POINT ENERGY      -957.228201188643
FINAL SINGLE POINT ENERGY      -957.228204705842
FINAL SINGLE POINT ENERGY      -957.228208128781
FINAL SINGLE POINT ENERGY      -957.228211383341
Dispersion correction            ... done
Dispersion correction           -0.127239108
FINAL SINGLE POINT ENERGY      -957.228214255496
Dispersion correction            ... done
Dispersion correction           -0.127244599
FINAL SINGLE POINT ENERGY      -957.228216908278
Dispersion correction            ... done
                    ***********************HURRAY********************

CARTESIAN COORDINATES (ANGSTROEM)
---------------------------------
  C     -1.757502    1.452725    0.085639
  C     -2.181561    1.012727    1.420599
  C     -2.694499    1.780763   -0.895616
  C     -2.271217    2.178154   -2.151280
  H     -3.749510    1.739638   -0.665499
  C     -0.905326    2.252824   -2.421491
  C      0.039529    1.936413   -1.454531
  H     -0.556488    2.548757   -3.402241
  C     -0.396811    1.534899   -0.199079
  C      1.513913    2.086743   -1.722063
  H      0.327951    1.294894    0.570921
  C     -3.267399    2.464717   -3.243447
  O     -3.332366    0.875387    1.785794
  C     -5.639052    2.584093   -3.593348
  C     -4.931360    1.602461   -4.557994
  N     -4.518310    3.052691   -2.746114
  C     -6.655282    1.858089   -2.719180
  N     -3.665917    1.241309   -3.929179
  H     -4.719923    2.099029   -5.507344
  H     -7.504093    1.503232   -3.305647
  C      3.263793    3.543720   -1.939148
  C      3.042172    2.954941   -3.353580
  N      2.015230    3.356035   -1.209451
  H      3.549354    4.593000   -1.955331
  N      1.859849    2.084461   -3.149584
  C      2.688850    4.049251   -4.354385
  H      2.379905    3.613983   -5.303498
  H      1.353718    4.079564   -1.470677
  H      2.046373    1.291703   -1.179778
  H      2.028349    1.146635   -3.486661
  H     -4.467696    4.061486   -2.719284
  H     -3.826584    0.528954   -3.225210
  H     -2.786139    3.110878   -3.991323
  H     -1.342471    0.795487    2.116062
  H     -5.523495    0.715704   -4.772595
  H     -6.194655    1.002481   -2.226695
  H     -7.028371    2.518505   -1.938170
  H      4.053249    2.992396   -1.424640
  H      3.537280    4.709635   -4.539136
  H      1.858113    4.649989   -3.985188
  C      4.249006    2.164587   -3.835054
  H      5.124694    2.805459   -3.933342
  H      4.062335    1.717560   -4.811816
  H      4.497163    1.365914   -3.135998
  C     -6.303114    3.731794   -4.338257
  H     -6.754150    4.442444   -3.644938
  H     -7.095614    3.368717   -4.992404
  H     -5.580928    4.267231   -4.955179

 Multiplicity           Mult            ....    1
 Number of Electrons    NEL             ....  164
 Basis Dimension        Dim             ....  501

ORBITAL ENERGIES
----------------

  NO   OCC          E(Eh)            E(eV)
   0   2.0000     -18.730629      -509.6863
   1   2.0000     -13.984050      -380.5253
   2   2.0000     -13.979700      -380.4070
   3   2.0000     -13.975015      -380.2795
   4   2.0000     -13.969689      -380.1346
   5   2.0000      -9.967574      -271.2315
   6   2.0000      -9.951990      -270.8074
   7   2.0000      -9.947382      -270.6820
   8   2.0000      -9.930587      -270.2250
   9   2.0000      -9.925533      -270.0875
  10   2.0000      -9.916334      -269.8372
  11   2.0000      -9.912058      -269.7208
  12   2.0000      -9.906418      -269.5673
  13   2.0000      -9.905979      -269.5554
  14   2.0000      -9.904227      -269.5077
  15   2.0000      -9.903601      -269.4907
  16   2.0000      -9.900318      -269.4014
  17   2.0000      -9.897507      -269.3249
  18   2.0000      -9.888913      -269.0910
  19   2.0000      -9.884971      -268.9837
  20   2.0000      -9.879735      -268.8412
  21   2.0000      -9.873368      -268.6680
  22   2.0000      -0.953810       -25.9545
  23   2.0000      -0.893386       -24.3103
  24   2.0000      -0.888728       -24.1835
  25   2.0000      -0.800467       -21.7818
  26   2.0000      -0.790151       -21.5011
  27   2.0000      -0.785400       -21.3718
  28   2.0000      -0.735806       -20.0223
  29   2.0000      -0.726965       -19.7817
  30   2.0000      -0.699157       -19.0250
  31   2.0000      -0.690167       -18.7804
  32   2.0000      -0.634260       -17.2591
  33   2.0000      -0.629319       -17.1246
  34   2.0000      -0.623952       -16.9786
  35   2.0000      -0.620513       -16.8850
  36   2.0000      -0.595857       -16.2141
  37   2.0000      -0.579994       -15.7824
  38   2.0000      -0.574709       -15.6386
  39   2.0000      -0.530582       -14.4379
  40   2.0000      -0.517981       -14.0950
  41   2.0000      -0.513883       -13.9835
  42   2.0000      -0.509553       -13.8656
  43   2.0000      -0.472174       -12.8485
  44   2.0000      -0.466775       -12.7016
  45   2.0000      -0.455758       -12.4018
  46   2.0000      -0.446333       -12.1453
  47   2.0000      -0.442116       -12.0306
  48   2.0000      -0.422659       -11.5011
  49   2.0000      -0.407998       -11.1022
  50   2.0000      -0.407061       -11.0767
  51   2.0000      -0.402993       -10.9660
  52   2.0000      -0.399726       -10.8771
  53   2.0000      -0.394994       -10.7483
  54   2.0000      -0.389421       -10.5967
  55   2.0000      -0.379561       -10.3284
  56   2.0000      -0.374506       -10.1908
  57   2.0000      -0.369740       -10.0611
  58   2.0000      -0.366378        -9.9697
  59   2.0000      -0.360608        -9.8126
  60   2.0000      -0.356550        -9.7022
  61   2.0000      -0.355420        -9.6715
  62   2.0000      -0.352014        -9.5788
  63   2.0000      -0.349964        -9.5230
  64   2.0000      -0.330278        -8.9873
  65   2.0000      -0.326799        -8.8927
  66   2.0000      -0.325674        -8.8620
  67   2.0000      -0.322260        -8.7691
  68   2.0000      -0.318624        -8.6702
  69   2.0000      -0.317861        -8.6495
  70   2.0000      -0.311852        -8.4859
  71   2.0000      -0.309223        -8.4144
  72   2.0000      -0.302557        -8.2330
  73   2.0000      -0.298091        -8.1115
  74   2.0000      -0.297145        -8.0857
  75   2.0000      -0.236589        -6.4379
  76   2.0000      -0.233231        -6.3465
  77   2.0000      -0.207620        -5.6496
  78   2.0000      -0.207384        -5.6432
  79   2.0000      -0.203254        -5.5308
  80   2.0000      -0.192105        -5.2274
  81   2.0000      -0.186484        -5.0745
  82   0.0000      -0.088997        -2.4217
  83   0.0000      -0.047063        -1.2806
  84   0.0000       0.000585         0.0159
  85   0.0000       0.011835         0.3221
  86   0.0000       0.017522         0.4768

MULLIKEN ATOMIC CHARGES
-----------------------
   0 C :    0.266360
   1 C :   -0.169512
   2 C :   -0.111053
   3 C :    0.476376
   4 H :    0.225548
   5 C :   -0.244185
   6 C :    0.208991
   7 H :    0.205810
   8 C :   -0.207325
   9 C :   -0.582220
  10 H :    0.202401
  11 C :   -0.681426
  12 O :   -0.310527
  13 C :    0.012019
  14 C :   -0.306153
  15 N :   -0.259242
  16 C :   -0.437596
  17 N :   -0.264311
  18 H :    0.160926
  19 H :    0.154858
  20 C :   -0.302353
  21 C :   -0.001062
  22 N :   -0.264358
  23 H :    0.196274
  24 N :   -0.284427
  25 C :   -0.434660
  26 H :    0.162585
  27 H :    0.300291
  28 H :    0.158374
  29 H :    0.307480
  30 H :    0.302816
  31 H :    0.304077
  32 H :    0.164864
  33 H :    0.101578
  34 H :    0.196124
  35 H :    0.159802
  36 H :    0.164144
  37 H :    0.163783
  38 H :    0.156530
  39 H :    0.152463
  40 C :   -0.547344
  41 H :    0.172509
  42 H :    0.178505
  43 H :    0.175035
  44 C :   -0.544600
  45 H :    0.178589
  46 H :    0.171224
  47 H :    0.172020
Sum of atomic charges:   -0.0000000

LOEWDIN ATOMIC CHARGES
----------------------
   0 C :   -0.071521
   1 C :    0.207513
   2 C :   -0.097611
   3 C :   -0.072183
   4 H :    0.197820
   5 C :   -0.120749
   6 C :   -0.077821
   7 H :    0.184841
   8 C :   -0.120180
   9 C :   -0.029011
  10 H :    0.175134
  11 C :   -0.029895
  12 O :   -0.471055
  13 C :   -0.107180
  14 C :   -0.198583
  15 N :   -0.351881
  16 C :   -0.416011
  17 N :   -0.347667
  18 H :    0.154153
  19 H :    0.150925
  20 C :   -0.198794
  21 C :   -0.106798
  22 N :   -0.347783
  23 H :    0.161339
  24 N :   -0.354156
  25 C :   -0.416754
  26 H :    0.157482
  27 H :    0.267973
  28 H :    0.144852
  29 H :    0.269131
  30 H :    0.267737
  31 H :    0.268497
  32 H :    0.142998
  33 H :    0.148547
  34 H :    0.161124
  35 H :    0.153149
  36 H :    0.158945
  37 H :    0.155253
  38 H :    0.151791
  39 H :    0.151149
  40 C :   -0.420558
  41 H :    0.161891
  42 H :    0.157805
  43 H :    0.154462
  44 C :   -0.420769
  45 H :    0.157710
  46 H :    0.161427
  47 H :    0.153310

  Mayer bond orders larger than 0.100000
B(  0-C ,  1-C ) :   0.8974 B(  0-C ,  2-C ) :   1.1805 B(  0-C ,  3-C ) :   0.1043
B(  0-C ,  8-C ) :   1.2554 B(  0-C , 12-O ) :  -0.1642 B(  0-C , 33-H ) :  -0.1047
B(  1-C , 12-O ) :   2.0723 B(  1-C , 33-H ) :   0.9562 B(  2-C ,  3-C ) :   1.2644
B(  2-C ,  4-H ) :   0.9106 B(  3-C ,  5-C ) :   1.2115 B(  3-C , 11-C ) :   0.6029
B(  3-C , 17-N ) :  -0.1256 B(  5-C ,  6-C ) :   1.4134 B(  5-C ,  7-H ) :   0.9003
B(  5-C , 11-C ) :   0.1009 B(  6-C ,  8-C ) :   1.4164 B(  6-C ,  9-C ) :   0.7042
B(  6-C , 22-N ) :  -0.1134 B(  8-C , 10-H ) :   0.8625 B(  9-C , 22-N ) :   1.2248
B(  9-C , 24-N ) :   0.9682 B(  9-C , 28-H ) :   0.9617 B( 11-C , 15-N ) :   1.0031
B( 11-C , 17-N ) :   1.2340 B( 11-C , 32-H ) :   0.9659 B( 13-C , 14-C ) :   0.8868
B( 13-C , 15-N ) :   1.0767 B( 13-C , 16-C ) :   0.9717 B( 13-C , 44-C ) :   1.0065
B( 14-C , 17-N ) :   1.0173 B( 14-C , 18-H ) :   0.9346 B( 14-C , 34-H ) :   0.9513
B( 15-N , 16-C ) :  -0.1421 B( 15-N , 30-H ) :   0.8633 B( 16-C , 19-H ) :   0.9527
B( 16-C , 35-H ) :   0.9512 B( 16-C , 36-H ) :   0.9524 B( 17-N , 31-H ) :   0.8442
B( 20-C , 21-C ) :   0.8921 B( 20-C , 22-N ) :   1.0254 B( 20-C , 23-H ) :   0.9520
B( 20-C , 37-H ) :   0.9331 B( 21-C , 24-N ) :   1.0744 B( 21-C , 25-C ) :   0.9650
B( 21-C , 40-C ) :   1.0115 B( 22-N , 27-H ) :   0.8406 B( 24-N , 25-C ) :  -0.1396
B( 24-N , 29-H ) :   0.8589 B( 25-C , 26-H ) :   0.9537 B( 25-C , 38-H ) :   0.9530
B( 25-C , 39-H ) :   0.9524 B( 40-C , 41-H ) :   0.9559 B( 40-C , 42-H ) :   0.9578
B( 40-C , 43-H ) :   0.9519 B( 44-C , 45-H ) :   0.9584 B( 44-C , 46-H ) :   0.9558
B( 44-C , 47-H ) :   0.9521

Dispersion correction           -0.127249665
FINAL SINGLE POINT ENERGY      -957.228218584013

DIPOLE MOMENT
-------------
                                X             Y             Z
Electronic contribution:     -1.99084      -6.73093      17.01771
Nuclear contribution   :      2.97135       7.26914     -18.48238
                        -----------------------------------------
Total Dipole Moment    :      0.98051       0.53821      -1.46468
                        -----------------------------------------
Magnitude (a.u.)       :      1.84292
Magnitude (Debye)      :      4.68432

Rotational constants in cm-1:     0.013646     0.004792     0.003799
Rotational constants in MHz :   409.108670   143.647262   113.876848

                             ****ORCA TERMINATED NORMALLY****
TOTAL RUN TIME: 0 days 0 hours 19 minutes 7 seconds 82 msec
