                         Program Version 4.2.1 -  RELEASE  -
|  1> ! DFT COPT B97-3c TightSCF printbasis  Grid6 NOFINALGRID SlowConv
|  2>
|  3> %base "_o_1_alde1_2_ami3_2_opt_B97-3c"
|  4> %maxcore 3000
|  5> %scf
|  6>    MaxIter 2000
|  7> end
|  8> %pal
|  9>    nprocs 32
| 10> end
| 11>
| 12> * xyzfile 0 1 o_1_alde1_2_ami3_2_opt.xyz
| 13> # * xyzfile 0 1 _o_1_alde1_2_ami3_2_opt_B97-3c.xyz
| 14>
| 15>                          ****END OF INPUT****
 Total Charge           Charge          ....    0
 Multiplicity           Mult            ....    1
 Number of Electrons    NEL             ....  192
Dispersion correction           -0.150700635
FINAL SINGLE POINT ENERGY     -1111.985672619785
Dispersion correction            ... done
Dispersion correction           -0.150696378
FINAL SINGLE POINT ENERGY     -1111.986490807726
Dispersion correction            ... done
Dispersion correction           -0.150698327
FINAL SINGLE POINT ENERGY     -1111.986778097446
Dispersion correction            ... done
FINAL SINGLE POINT ENERGY     -1111.987026311390
FINAL SINGLE POINT ENERGY     -1111.987212510793
FINAL SINGLE POINT ENERGY     -1111.987290717206
FINAL SINGLE POINT ENERGY     -1111.987348010449
FINAL SINGLE POINT ENERGY     -1111.987400138205
FINAL SINGLE POINT ENERGY     -1111.987460136290
FINAL SINGLE POINT ENERGY     -1111.987516521539
FINAL SINGLE POINT ENERGY     -1111.989208416712
FINAL SINGLE POINT ENERGY     -1111.989214455588
FINAL SINGLE POINT ENERGY     -1111.989219324969
FINAL SINGLE POINT ENERGY     -1111.989223787847
FINAL SINGLE POINT ENERGY     -1111.989227492863
FINAL SINGLE POINT ENERGY     -1111.989231481472
FINAL SINGLE POINT ENERGY     -1111.989235140492
Dispersion correction            ... done
Dispersion correction           -0.149346821
FINAL SINGLE POINT ENERGY     -1111.989238109726
Dispersion correction            ... done
Dispersion correction           -0.149344951
FINAL SINGLE POINT ENERGY     -1111.989240491003
Dispersion correction            ... done
                    ***********************HURRAY********************

CARTESIAN COORDINATES (ANGSTROEM)
---------------------------------
  C     -1.338661    0.852651   -1.988581
  C     -1.623445   -0.352477   -1.188600
  C     -2.365048    1.535988   -2.637289
  C     -2.081369    2.670182   -3.390203
  H     -3.382799    1.182916   -2.555763
  C     -0.757135    3.105985   -3.481628
  C      0.279253    2.433664   -2.838015
  H     -0.529183    3.989445   -4.068207
  C     -0.026061    1.299101   -2.088162
  C      1.652625    2.923594   -2.956835
  H      0.776027    0.773806   -1.585966
  C     -3.135893    3.410746   -4.087393
  O     -2.721676   -0.843513   -1.030007
  C     -5.324279    3.879864   -4.750226
  C     -6.331196    4.490090   -3.755102
  N     -4.359710    3.088156   -4.019042
  H     -4.844072    4.714670   -5.277508
  C     -6.038542    2.987382   -5.768127
  N     -7.082517    5.545774   -4.438063
  H     -5.745873    4.988097   -2.979427
  C     -7.182144    3.399587   -3.101317
  C     -6.891286    1.915030   -5.105923
  C     -7.886067    2.522731   -4.127255
  C      4.849400    1.886292   -3.331076
  C      3.957902    2.904400   -2.593445
  N      6.053370    2.573377   -3.802540
  H      4.304147    1.580542   -4.226229
  C      5.099107    0.650478   -2.464156
  N      2.638988    2.335811   -2.418481
  H      3.927657    3.812337   -3.209926
  C      4.542993    3.248322   -1.221887
  C      5.681896    1.008537   -1.104138
  C      4.800565    2.011737   -0.373242
  H     -0.727297   -0.807560   -0.716071
  H      6.541320    1.973779   -4.456167
  H      6.694421    2.725396   -3.034069
  H     -7.782462    5.139889   -5.046402
  H     -7.593398    6.084105   -3.749494
  H     -8.627974    3.109754   -4.678458
  H     -8.448042    1.736850   -3.621374
  H     -6.240215    1.222714   -4.571463
  H     -7.413489    1.333465   -5.867579
  H     -6.659318    3.625914   -6.401581
  H     -5.295997    2.536290   -6.427516
  H     -6.532982    2.776718   -2.484080
  H     -7.907664    3.866275   -2.430995
  H     -2.798808    4.273320   -4.682099
  H      1.780333    3.842990   -3.547180
  H      3.846017    1.542238   -0.133059
  H      5.257837    2.300302    0.574687
  H      5.472746    3.801367   -1.377097
  H      3.865990    3.932626   -0.709111
  H      5.762123   -0.033543   -2.999041
  H      4.150997    0.129161   -2.321961
  H      6.686389    1.426628   -1.225421
  H      5.808415    0.106823   -0.503554

 Multiplicity           Mult            ....    1
 Number of Electrons    NEL             ....  192
 Basis Dimension        Dim             ....  589

ORBITAL ENERGIES
----------------

  NO   OCC          E(Eh)            E(eV)
   0   2.0000     -18.740976      -509.9679
   1   2.0000     -13.986244      -380.5850
   2   2.0000     -13.983642      -380.5142
   3   2.0000     -13.970338      -380.1522
   4   2.0000     -13.967480      -380.0745
   5   2.0000      -9.977644      -271.5055
   6   2.0000      -9.941381      -270.5187
   7   2.0000      -9.938919      -270.4517
   8   2.0000      -9.922602      -270.0077
   9   2.0000      -9.921374      -269.9743
  10   2.0000      -9.920601      -269.9533
  11   2.0000      -9.918511      -269.8964
  12   2.0000      -9.918259      -269.8895
  13   2.0000      -9.917786      -269.8767
  14   2.0000      -9.916362      -269.8379
  15   2.0000      -9.915659      -269.8188
  16   2.0000      -9.915070      -269.8028
  17   2.0000      -9.913090      -269.7489
  18   2.0000      -9.888215      -269.0720
  19   2.0000      -9.885299      -268.9927
  20   2.0000      -9.885110      -268.9875
  21   2.0000      -9.881979      -268.9023
  22   2.0000      -9.881145      -268.8796
  23   2.0000      -9.880962      -268.8746
  24   2.0000      -9.877676      -268.7852
  25   2.0000      -9.876713      -268.7590
  26   2.0000      -0.964458       -26.2442
  27   2.0000      -0.865426       -23.5494
  28   2.0000      -0.862246       -23.4629
  29   2.0000      -0.822691       -22.3866
  30   2.0000      -0.818620       -22.2758
  31   2.0000      -0.808167       -21.9913
  32   2.0000      -0.747317       -20.3355
  33   2.0000      -0.742649       -20.2085
  34   2.0000      -0.723780       -19.6951
  35   2.0000      -0.718664       -19.5558
  36   2.0000      -0.679353       -18.4861
  37   2.0000      -0.673782       -18.3345
  38   2.0000      -0.662892       -18.0382
  39   2.0000      -0.658638       -17.9224
  40   2.0000      -0.611309       -16.6346
  41   2.0000      -0.601878       -16.3779
  42   2.0000      -0.585466       -15.9313
  43   2.0000      -0.556680       -15.1480
  44   2.0000      -0.553837       -15.0707
  45   2.0000      -0.551127       -14.9969
  46   2.0000      -0.541569       -14.7368
  47   2.0000      -0.519072       -14.1247
  48   2.0000      -0.510150       -13.8819
  49   2.0000      -0.488031       -13.2800
  50   2.0000      -0.486868       -13.2483
  51   2.0000      -0.469736       -12.7822
  52   2.0000      -0.463345       -12.6083
  53   2.0000      -0.460158       -12.5215
  54   2.0000      -0.445122       -12.1124
  55   2.0000      -0.438056       -11.9201
  56   2.0000      -0.428571       -11.6620
  57   2.0000      -0.425703       -11.5840
  58   2.0000      -0.416479       -11.3330
  59   2.0000      -0.407936       -11.1005
  60   2.0000      -0.406665       -11.0659
  61   2.0000      -0.402966       -10.9653
  62   2.0000      -0.398848       -10.8532
  63   2.0000      -0.397309       -10.8113
  64   2.0000      -0.390974       -10.6390
  65   2.0000      -0.387316       -10.5394
  66   2.0000      -0.379549       -10.3281
  67   2.0000      -0.378469       -10.2987
  68   2.0000      -0.361575        -9.8390
  69   2.0000      -0.358615        -9.7584
  70   2.0000      -0.354074        -9.6348
  71   2.0000      -0.350868        -9.5476
  72   2.0000      -0.344430        -9.3724
  73   2.0000      -0.342545        -9.3211
  74   2.0000      -0.340536        -9.2665
  75   2.0000      -0.334530        -9.1030
  76   2.0000      -0.331173        -9.0117
  77   2.0000      -0.329981        -8.9792
  78   2.0000      -0.324062        -8.8182
  79   2.0000      -0.321117        -8.7380
  80   2.0000      -0.313131        -8.5207
  81   2.0000      -0.308576        -8.3968
  82   2.0000      -0.289508        -7.8779
  83   2.0000      -0.288081        -7.8391
  84   2.0000      -0.285269        -7.7626
  85   2.0000      -0.271637        -7.3916
  86   2.0000      -0.268011        -7.2929
  87   2.0000      -0.267659        -7.2834
  88   2.0000      -0.263104        -7.1594
  89   2.0000      -0.240712        -6.5501
  90   2.0000      -0.226238        -6.1562
  91   2.0000      -0.222447        -6.0531
  92   2.0000      -0.218152        -5.9362
  93   2.0000      -0.215607        -5.8670
  94   2.0000      -0.201808        -5.4915
  95   2.0000      -0.199003        -5.4152
  96   0.0000      -0.101642        -2.7658
  97   0.0000      -0.095632        -2.6023
  98   0.0000      -0.061580        -1.6757
  99   0.0000       0.007948         0.2163
 100   0.0000       0.012167         0.3311

MULLIKEN ATOMIC CHARGES
-----------------------
   0 C :    0.228452
   1 C :   -0.166008
   2 C :   -0.084311
   3 C :    0.268366
   4 H :    0.243555
   5 C :   -0.236922
   6 C :    0.184209
   7 H :    0.216757
   8 C :   -0.133271
   9 C :   -0.373098
  10 H :    0.234935
  11 C :   -0.390588
  12 O :   -0.303790
  13 C :   -0.016577
  14 C :   -0.212763
  15 N :   -0.063198
  16 H :    0.125316
  17 C :   -0.421429
  18 N :   -0.616023
  19 H :    0.166241
  20 C :   -0.261557
  21 C :   -0.263904
  22 C :   -0.358288
  23 C :   -0.211053
  24 C :   -0.016374
  25 N :   -0.615458
  26 H :    0.167063
  27 C :   -0.259065
  28 N :   -0.072322
  29 H :    0.127807
  30 C :   -0.422650
  31 C :   -0.359992
  32 C :   -0.261076
  33 H :    0.108261
  34 H :    0.310239
  35 H :    0.300453
  36 H :    0.300211
  37 H :    0.309774
  38 H :    0.137028
  39 H :    0.174139
  40 H :    0.161717
  41 H :    0.163438
  42 H :    0.175574
  43 H :    0.167460
  44 H :    0.168988
  45 H :    0.157918
  46 H :    0.112076
  47 H :    0.112738
  48 H :    0.153694
  49 H :    0.165080
  50 H :    0.177089
  51 H :    0.168319
  52 H :    0.159427
  53 H :    0.161239
  54 H :    0.139098
  55 H :    0.173056
Sum of atomic charges:   -0.0000000

LOEWDIN ATOMIC CHARGES
----------------------
   0 C :   -0.067873
   1 C :    0.212570
   2 C :   -0.065740
   3 C :   -0.077654
   4 H :    0.201345
   5 C :   -0.114966
   6 C :   -0.080779
   7 H :    0.173149
   8 C :   -0.098117
   9 C :   -0.035122
  10 H :    0.185384
  11 C :   -0.036327
  12 O :   -0.460430
  13 C :   -0.131414
  14 C :   -0.134530
  15 N :   -0.162878
  16 H :    0.147189
  17 C :   -0.289586
  18 N :   -0.515572
  19 H :    0.155552
  20 C :   -0.308538
  21 C :   -0.298809
  22 C :   -0.299853
  23 C :   -0.134528
  24 C :   -0.131584
  25 N :   -0.514973
  26 H :    0.155778
  27 C :   -0.308460
  28 N :   -0.168604
  29 H :    0.147979
  30 C :   -0.289939
  31 C :   -0.300154
  32 C :   -0.298670
  33 H :    0.151980
  34 H :    0.258441
  35 H :    0.253464
  36 H :    0.253288
  37 H :    0.258108
  38 H :    0.142118
  39 H :    0.156523
  40 H :    0.162972
  41 H :    0.152268
  42 H :    0.157313
  43 H :    0.158910
  44 H :    0.166994
  45 H :    0.149407
  46 H :    0.140199
  47 H :    0.141300
  48 H :    0.160265
  49 H :    0.152611
  50 H :    0.157777
  51 H :    0.159311
  52 H :    0.149745
  53 H :    0.164348
  54 H :    0.142991
  55 H :    0.155820

  Mayer bond orders larger than 0.100000
B(  0-C ,  1-C ) :   0.8929 B(  0-C ,  2-C ) :   1.1352 B(  0-C ,  3-C ) :   0.1566
B(  0-C ,  6-C ) :   0.1293 B(  0-C ,  8-C ) :   1.1340 B(  0-C , 12-O ) :  -0.1591
B(  0-C , 33-H ) :  -0.1042 B(  1-C , 12-O ) :   2.0819 B(  1-C , 33-H ) :   0.9626
B(  2-C ,  3-C ) :   1.2629 B(  2-C ,  4-H ) :   0.9108 B(  3-C ,  5-C ) :   1.2178
B(  3-C ,  6-C ) :   0.1282 B(  3-C , 11-C ) :   0.9345 B(  3-C , 15-N ) :  -0.1805
B(  5-C ,  6-C ) :   1.2689 B(  5-C ,  7-H ) :   0.8875 B(  6-C ,  8-C ) :   1.4112
B(  6-C ,  9-C ) :   0.9506 B(  6-C , 28-N ) :  -0.1816 B(  8-C , 10-H ) :   0.8748
B(  9-C , 28-N ) :   1.9726 B(  9-C , 47-H ) :   0.9105 B( 11-C , 15-N ) :   1.9829
B( 11-C , 46-H ) :   0.9164 B( 13-C , 14-C ) :   0.8040 B( 13-C , 15-N ) :   0.9451
B( 13-C , 16-H ) :   0.9184 B( 13-C , 17-C ) :   0.8968 B( 13-C , 18-N ) :  -0.1426
B( 14-C , 18-N ) :   1.1735 B( 14-C , 19-H ) :   0.9375 B( 14-C , 20-C ) :   0.9584
B( 17-C , 21-C ) :   1.0092 B( 17-C , 42-H ) :   0.9773 B( 17-C , 43-H ) :   0.9325
B( 18-N , 36-H ) :   0.8644 B( 18-N , 37-H ) :   0.8798 B( 20-C , 22-C ) :   0.9684
B( 20-C , 44-H ) :   0.9349 B( 20-C , 45-H ) :   0.9456 B( 21-C , 22-C ) :   1.0189
B( 21-C , 40-H ) :   0.9401 B( 21-C , 41-H ) :   0.9307 B( 22-C , 38-H ) :   0.9542
B( 22-C , 39-H ) :   0.9298 B( 23-C , 24-C ) :   0.8046 B( 23-C , 25-N ) :   1.1763
B( 23-C , 26-H ) :   0.9369 B( 23-C , 27-C ) :   0.9570 B( 24-C , 25-N ) :  -0.1432
B( 24-C , 28-N ) :   0.9408 B( 24-C , 29-H ) :   0.9192 B( 24-C , 30-C ) :   0.8961
B( 25-N , 34-H ) :   0.8794 B( 25-N , 35-H ) :   0.8642 B( 27-C , 31-C ) :   0.9673
B( 27-C , 52-H ) :   0.9458 B( 27-C , 53-H ) :   0.9359 B( 30-C , 32-C ) :   1.0084
B( 30-C , 50-H ) :   0.9773 B( 30-C , 51-H ) :   0.9332 B( 31-C , 32-C ) :   1.0185
B( 31-C , 54-H ) :   0.9539 B( 31-C , 55-H ) :   0.9306 B( 32-C , 48-H ) :   0.9412
B( 32-C , 49-H ) :   0.9304

Dispersion correction           -0.149342565
FINAL SINGLE POINT ENERGY     -1111.989242908642

DIPOLE MOMENT
-------------
                                X             Y             Z
Electronic contribution:     -2.88167      -5.48012       3.48830
Nuclear contribution   :      3.66444       6.13147      -3.82720
                        -----------------------------------------
Total Dipole Moment    :      0.78277       0.65136      -0.33890
                        -----------------------------------------
Magnitude (a.u.)       :      1.07324
Magnitude (Debye)      :      2.72796

Rotational constants in cm-1:     0.015693     0.002070     0.001937
Rotational constants in MHz :   470.472620    62.069907    58.056329

                             ****ORCA TERMINATED NORMALLY****
TOTAL RUN TIME: 0 days 0 hours 54 minutes 56 seconds 332 msec
