                         Program Version 4.2.1 -  RELEASE  -
|  1> ! RI-MP2 cc-pVTZ cc-pVTZ/C TIGHTSCF printbasis Grid6 NOFINALGRID SlowConv
|  2>
|  3> %base "_o_1_alde1_3_ami3_2_opt_MP2"
|  4> %maxcore 3000
|  5> %pal
|  6>    nprocs 32
|  7> end
|  8>
|  9> * xyzfile 0 1 _o_1_alde1_3_ami3_2_opt_B97-3c.xyz
| 10>
| 11>                          ****END OF INPUT****

CARTESIAN COORDINATES (ANGSTROEM)
---------------------------------
  C     -0.857867    0.056373    0.158607
  C     -0.449146   -1.019563    1.089465
  C     -2.192965    0.406224   -0.070622
  C     -2.512851    1.452313   -0.931462
  H     -2.979757   -0.127168    0.448918
  C     -1.489527    2.151790   -1.573893
  C     -0.159919    1.825403   -1.346223
  H     -1.753971    2.962867   -2.239832
  C      0.146367    0.787886   -0.460666
  C      0.895250    2.580438   -2.020574
  H      1.188046    0.561377   -0.275471
  C     -3.917348    1.808456   -1.128035
  C     -3.142513   -3.104958    1.287382
  C     -1.937789   -2.752942    0.412253
  N     -3.652708   -1.889480    1.923280
  H     -2.792700   -3.842277    2.024515
  C     -4.226990   -3.751324    0.441040
  N     -0.885610   -2.204452    1.243294
  H     -2.283058   -2.057978   -0.359266
  C     -1.407967   -4.005658   -0.280630
  C     -3.718873   -4.987737   -0.286360
  C     -2.487652   -4.668703   -1.121476
  C     -5.700157    3.001163   -2.054065
  C     -6.121146    2.766258   -3.506703
  N     -4.287416    2.726235   -1.925368
  H     -6.299351    2.321603   -1.428983
  C     -5.978929    4.443514   -1.639719
  N     -5.914407    1.360721   -3.842527
  H     -5.509363    3.444240   -4.120660
  C     -7.582208    3.136845   -3.701919
  C     -7.436848    4.819378   -1.851746
  C     -7.865227    4.573043   -3.290497
  C      3.097052    3.096951   -2.607454
  C      3.891534    2.182924   -3.543462
  N      2.127707    2.302105   -1.889878
  H      2.606259    3.855898   -3.235515
  C      4.024216    3.789399   -1.612508
  N      2.982829    1.604612   -4.529209
  H      4.366740    1.422411   -2.905605
  C      4.987823    2.967777   -4.245221
  C      5.128482    4.561696   -2.316045
  C      5.913458    3.661585   -3.258171
  H      2.313777    1.009775   -4.056007
  H      3.502578    1.005579   -5.159174
  H     -2.971261   -1.566025    2.599917
  H     -4.490223   -2.108576    2.449010
  H     -4.924503    1.151974   -3.802066
  H     -6.203044    1.195205   -4.799109
  H      0.398915   -0.750647    1.723601
  H      0.555608    3.406018   -2.661210
  H     -8.925245    4.799138   -3.417599
  H     -7.321976    5.255122   -3.950774
  H     -7.593870    5.864246   -1.578547
  H     -8.067272    4.227029   -1.182777
  H     -5.692582    4.572770   -0.595206
  H     -5.332047    5.100669   -2.224534
  H     -7.855432    2.980842   -4.748829
  H     -8.195354    2.448658   -3.115125
  H     -4.640162    1.226700   -0.540348
  H      5.792181    5.014764   -1.577817
  H      4.691358    5.386135   -2.886063
  H      3.431309    4.449212   -0.977799
  H      4.454970    3.029778   -0.956985
  H      6.671391    4.235939   -3.793444
  H      6.450427    2.909481   -2.673238
  H      5.557253    2.291419   -4.888062
  H      4.519362    3.702304   -4.904655
  H     -2.095384   -5.576733   -1.582064
  H     -2.770342   -4.003323   -1.941881
  H     -4.509302   -5.404461   -0.913000
  H     -3.466653   -5.760622    0.445020
  H     -4.591893   -3.013835   -0.278146
  H     -5.076037   -4.012640    1.077978
  H     -1.040118   -4.696184    0.480816
  H     -0.550217   -3.731828   -0.895653

 Total Charge           Charge          ....    0
 Multiplicity           Mult            ....    1
 Number of Electrons    NEL             ....  246
 Basis Dimension        Dim             .... 1578

ORBITAL ENERGIES
----------------

  NO   OCC          E(Eh)            E(eV)
   0   2.0000     -15.552164      -423.1959
   1   2.0000     -15.551871      -423.1879
   2   2.0000     -15.550795      -423.1587
   3   2.0000     -15.538592      -422.8266
   4   2.0000     -15.528339      -422.5476
   5   2.0000     -15.528231      -422.5446
   6   2.0000     -11.278937      -306.9155
   7   2.0000     -11.278156      -306.8942
   8   2.0000     -11.277689      -306.8815
   9   2.0000     -11.247876      -306.0703
  10   2.0000     -11.247420      -306.0579
  11   2.0000     -11.245612      -306.0087
  12   2.0000     -11.245019      -305.9925
  13   2.0000     -11.244612      -305.9814
  14   2.0000     -11.244154      -305.9690
  15   2.0000     -11.244101      -305.9676
  16   2.0000     -11.243792      -305.9591
  17   2.0000     -11.243203      -305.9431
  18   2.0000     -11.242864      -305.9339
  19   2.0000     -11.242364      -305.9203
  20   2.0000     -11.242095      -305.9130
  21   2.0000     -11.215210      -305.1814
  22   2.0000     -11.214461      -305.1610
  23   2.0000     -11.213501      -305.1349
  24   2.0000     -11.213443      -305.1333
  25   2.0000     -11.213297      -305.1293
  26   2.0000     -11.212877      -305.1179
  27   2.0000     -11.212810      -305.1161
  28   2.0000     -11.211096      -305.0694
  29   2.0000     -11.210774      -305.0607
  30   2.0000     -11.210566      -305.0550
  31   2.0000     -11.210515      -305.0536
  32   2.0000     -11.210099      -305.0423
  33   2.0000      -1.245147       -33.8822
  34   2.0000      -1.242077       -33.7986
  35   2.0000      -1.238944       -33.7134
  36   2.0000      -1.186109       -32.2757
  37   2.0000      -1.180460       -32.1220
  38   2.0000      -1.177344       -32.0372
  39   2.0000      -1.159372       -31.5481
  40   2.0000      -1.100257       -29.9395
  41   2.0000      -1.098790       -29.8996
  42   2.0000      -1.096215       -29.8295
  43   2.0000      -1.053347       -28.6630
  44   2.0000      -1.050942       -28.5976
  45   2.0000      -1.004558       -27.3354
  46   2.0000      -0.998555       -27.1721
  47   2.0000      -0.995648       -27.0930
  48   2.0000      -0.979443       -26.6520
  49   2.0000      -0.975216       -26.5370
  50   2.0000      -0.972850       -26.4726
  51   2.0000      -0.887437       -24.1484
  52   2.0000      -0.884944       -24.0806
  53   2.0000      -0.869268       -23.6540
  54   2.0000      -0.836504       -22.7624
  55   2.0000      -0.828871       -22.5547
  56   2.0000      -0.822940       -22.3933
  57   2.0000      -0.817722       -22.2513
  58   2.0000      -0.812854       -22.1189
  59   2.0000      -0.798975       -21.7412
  60   2.0000      -0.764432       -20.8013
  61   2.0000      -0.758952       -20.6521
  62   2.0000      -0.757220       -20.6050
  63   2.0000      -0.746857       -20.3230
  64   2.0000      -0.737488       -20.0681
  65   2.0000      -0.695331       -18.9209
  66   2.0000      -0.685570       -18.6553
  67   2.0000      -0.665813       -18.1177
  68   2.0000      -0.659835       -17.9550
  69   2.0000      -0.657829       -17.9004
  70   2.0000      -0.649115       -17.6633
  71   2.0000      -0.646964       -17.6048
  72   2.0000      -0.645080       -17.5535
  73   2.0000      -0.640376       -17.4255
  74   2.0000      -0.640305       -17.4236
  75   2.0000      -0.639219       -17.3940
  76   2.0000      -0.620219       -16.8770
  77   2.0000      -0.615375       -16.7452
  78   2.0000      -0.614370       -16.7179
  79   2.0000      -0.613196       -16.6859
  80   2.0000      -0.611112       -16.6292
  81   2.0000      -0.605962       -16.4891
  82   2.0000      -0.594558       -16.1787
  83   2.0000      -0.590309       -16.0631
  84   2.0000      -0.589183       -16.0325
  85   2.0000      -0.556586       -15.1455
  86   2.0000      -0.554600       -15.0914
  87   2.0000      -0.552904       -15.0453
  88   2.0000      -0.542012       -14.7489
  89   2.0000      -0.532968       -14.5028
  90   2.0000      -0.530449       -14.4342
  91   2.0000      -0.530003       -14.4221
  92   2.0000      -0.527513       -14.3543
  93   2.0000      -0.526559       -14.3284
  94   2.0000      -0.524917       -14.2837
  95   2.0000      -0.518868       -14.1191
  96   2.0000      -0.514140       -13.9905
  97   2.0000      -0.503592       -13.7034
  98   2.0000      -0.499138       -13.5822
  99   2.0000      -0.496209       -13.5025
 100   2.0000      -0.489746       -13.3267
 101   2.0000      -0.487389       -13.2625
 102   2.0000      -0.485746       -13.2178
 103   2.0000      -0.471237       -12.8230
 104   2.0000      -0.465329       -12.6622
 105   2.0000      -0.461914       -12.5693
 106   2.0000      -0.459831       -12.5126
 107   2.0000      -0.459278       -12.4976
 108   2.0000      -0.454823       -12.3764
 109   2.0000      -0.440446       -11.9852
 110   2.0000      -0.438389       -11.9292
 111   2.0000      -0.437086       -11.8937
 112   2.0000      -0.427138       -11.6230
 113   2.0000      -0.422131       -11.4868
 114   2.0000      -0.409452       -11.1418
 115   2.0000      -0.404265       -11.0006
 116   2.0000      -0.402231       -10.9453
 117   2.0000      -0.392007       -10.6671
 118   2.0000      -0.387863       -10.5543
 119   2.0000      -0.385668       -10.4946
 120   2.0000      -0.381987       -10.3944
 121   2.0000      -0.327285        -8.9059
 122   2.0000      -0.319766        -8.7013
 123   0.0000       0.074695         2.0325
 124   0.0000       0.084856         2.3091
 125   0.0000       0.138620         3.7720
 126   0.0000       0.142021         3.8646
 127   0.0000       0.143176         3.8960

MULLIKEN ATOMIC CHARGES
-----------------------
   0 C :    0.154690
   1 C :   -0.143441
   2 C :   -0.234337
   3 C :    0.144972
   4 H :    0.179602
   5 C :   -0.202173
   6 C :    0.161510
   7 H :    0.158901
   8 C :   -0.207702
   9 C :   -0.094956
  10 H :    0.164914
  11 C :   -0.101813
  12 C :    0.051337
  13 C :    0.051413
  14 N :   -0.388461
  15 H :    0.103607
  16 C :   -0.209115
  17 N :   -0.283928
  18 H :    0.107471
  19 C :   -0.196067
  20 C :   -0.201976
  21 C :   -0.207518
  22 C :    0.097854
  23 C :    0.039172
  24 N :   -0.300256
  25 H :    0.078307
  26 C :   -0.201200
  27 N :   -0.391209
  28 H :    0.088172
  29 C :   -0.206552
  30 C :   -0.207924
  31 C :   -0.200081
  32 C :    0.097705
  33 C :    0.038695
  34 N :   -0.296585
  35 H :    0.078136
  36 C :   -0.201486
  37 N :   -0.391019
  38 H :    0.088768
  39 C :   -0.206609
  40 C :   -0.208046
  41 C :   -0.200062
  42 H :    0.147218
  43 H :    0.133240
  44 H :    0.152313
  45 H :    0.128146
  46 H :    0.147108
  47 H :    0.133163
  48 H :    0.154410
  49 H :    0.095699
  50 H :    0.111414
  51 H :    0.086236
  52 H :    0.111340
  53 H :    0.089350
  54 H :    0.106250
  55 H :    0.095877
  56 H :    0.100924
  57 H :    0.095717
  58 H :    0.099298
  59 H :    0.111580
  60 H :    0.089667
  61 H :    0.106427
  62 H :    0.096493
  63 H :    0.111638
  64 H :    0.086311
  65 H :    0.101035
  66 H :    0.096065
  67 H :    0.111866
  68 H :    0.091195
  69 H :    0.112380
  70 H :    0.087526
  71 H :    0.099430
  72 H :    0.101406
  73 H :    0.097945
  74 H :    0.108623
Sum of atomic charges:   -0.0000000

LOEWDIN ATOMIC CHARGES
----------------------
   0 C :   -0.073427
   1 C :   -0.079771
   2 C :    0.078285
   3 C :   -0.078644
   4 H :   -0.031139
   5 C :    0.089185
   6 C :   -0.078071
   7 H :   -0.019350
   8 C :    0.089025
   9 C :   -0.067768
  10 H :   -0.017626
  11 C :   -0.067349
  12 C :   -0.088358
  13 C :   -0.107110
  14 N :    0.348594
  15 H :   -0.032816
  16 C :    0.059203
  17 N :    0.227366
  18 H :   -0.032611
  19 C :    0.063637
  20 C :    0.059604
  21 C :    0.058516
  22 C :   -0.111263
  23 C :   -0.091506
  24 N :    0.229458
  25 H :   -0.030881
  26 C :    0.061266
  27 N :    0.335408
  28 H :   -0.036166
  29 C :    0.058233
  30 C :    0.058129
  31 C :    0.058360
  32 C :   -0.111380
  33 C :   -0.091201
  34 N :    0.231651
  35 H :   -0.030965
  36 C :    0.061256
  37 N :    0.335329
  38 H :   -0.036008
  39 C :    0.058311
  40 C :    0.058205
  41 C :    0.058483
  42 H :   -0.110686
  43 H :   -0.109177
  44 H :   -0.107302
  45 H :   -0.108714
  46 H :   -0.110917
  47 H :   -0.109291
  48 H :   -0.025213
  49 H :   -0.033009
  50 H :   -0.026368
  51 H :   -0.026408
  52 H :   -0.026157
  53 H :   -0.026341
  54 H :   -0.026644
  55 H :   -0.024439
  56 H :   -0.027679
  57 H :   -0.023570
  58 H :   -0.031282
  59 H :   -0.026065
  60 H :   -0.026306
  61 H :   -0.026570
  62 H :   -0.024206
  63 H :   -0.026300
  64 H :   -0.026319
  65 H :   -0.027579
  66 H :   -0.023558
  67 H :   -0.025868
  68 H :   -0.025998
  69 H :   -0.025724
  70 H :   -0.026000
  71 H :   -0.023431
  72 H :   -0.027658
  73 H :   -0.024032
  74 H :   -0.025280

  Mayer bond orders larger than 0.100000
B(  0-C ,  1-C ) :   0.8999 B(  0-C ,  2-C ) :   1.3162 B(  0-C ,  8-C ) :   1.3763
B(  1-C , 17-N ) :   2.0296 B(  1-C , 48-H ) :   0.9957 B(  2-C ,  3-C ) :   1.3870
B(  2-C ,  4-H ) :   0.9241 B(  3-C ,  5-C ) :   1.3128 B(  3-C , 11-C ) :   1.0018
B(  4-H , 14-N ) :   0.1035 B(  5-C ,  6-C ) :   1.3793 B(  5-C ,  7-H ) :   0.9603
B(  6-C ,  8-C ) :   1.2926 B(  6-C ,  9-C ) :   1.0024 B(  8-C , 10-H ) :   0.9654
B(  9-C , 34-N ) :   1.9657 B(  9-C , 49-H ) :   0.9883 B( 11-C , 24-N ) :   1.9576
B( 11-C , 58-H ) :   0.9912 B( 12-C , 13-C ) :   0.9214 B( 12-C , 14-N ) :   0.9543
B( 12-C , 15-H ) :   0.9941 B( 12-C , 16-C ) :   0.9448 B( 13-C , 17-N ) :   0.9246
B( 13-C , 18-H ) :   0.9675 B( 13-C , 19-C ) :   0.9608 B( 14-N , 44-H ) :   0.9721
B( 14-N , 45-H ) :   0.9834 B( 16-C , 20-C ) :   0.9541 B( 16-C , 71-H ) :   0.9794
B( 16-C , 72-H ) :   0.9942 B( 19-C , 21-C ) :   0.9400 B( 19-C , 73-H ) :   0.9859
B( 19-C , 74-H ) :   0.9919 B( 20-C , 21-C ) :   0.9421 B( 20-C , 69-H ) :   0.9957
B( 20-C , 70-H ) :   0.9840 B( 21-C , 67-H ) :   0.9946 B( 21-C , 68-H ) :   0.9853
B( 22-C , 23-C ) :   0.9271 B( 22-C , 24-N ) :   0.9329 B( 22-C , 25-H ) :   0.9704
B( 22-C , 26-C ) :   0.9570 B( 23-C , 27-N ) :   0.9929 B( 23-C , 28-H ) :   0.9937
B( 23-C , 29-C ) :   0.9441 B( 26-C , 30-C ) :   0.9432 B( 26-C , 54-H ) :   0.9915
B( 26-C , 55-H ) :   0.9830 B( 27-N , 46-H ) :   0.9800 B( 27-N , 47-H ) :   0.9883
B( 29-C , 31-C ) :   0.9506 B( 29-C , 56-H ) :   0.9944 B( 29-C , 57-H ) :   0.9797
B( 30-C , 31-C ) :   0.9424 B( 30-C , 52-H ) :   0.9953 B( 30-C , 53-H ) :   0.9855
B( 31-C , 50-H ) :   0.9961 B( 31-C , 51-H ) :   0.9838 B( 32-C , 33-C ) :   0.9274
B( 32-C , 34-N ) :   0.9311 B( 32-C , 35-H ) :   0.9708 B( 32-C , 36-C ) :   0.9567
B( 33-C , 37-N ) :   0.9927 B( 33-C , 38-H ) :   0.9935 B( 33-C , 39-C ) :   0.9441
B( 36-C , 40-C ) :   0.9432 B( 36-C , 61-H ) :   0.9914 B( 36-C , 62-H ) :   0.9830
B( 37-N , 42-H ) :   0.9799 B( 37-N , 43-H ) :   0.9883 B( 39-C , 41-C ) :   0.9507
B( 39-C , 65-H ) :   0.9944 B( 39-C , 66-H ) :   0.9795 B( 40-C , 41-C ) :   0.9424
B( 40-C , 59-H ) :   0.9953 B( 40-C , 60-H ) :   0.9855 B( 41-C , 63-H ) :   0.9960
B( 41-C , 64-H ) :   0.9838

MP2 TOTAL ENERGY:    -1379.768636448 Eh
FINAL SINGLE POINT ENERGY     -1379.768636447832

DIPOLE MOMENT
-------------
                                X             Y             Z
Electronic contribution:      5.50332      -0.66320       9.89330
Nuclear contribution   :     -5.76538       0.64438      -9.92254
                        -----------------------------------------
Total Dipole Moment    :     -0.26206      -0.01882      -0.02924
                        -----------------------------------------
Magnitude (a.u.)       :      0.26436
Magnitude (Debye)      :      0.67194

Rotational constants in cm-1:     0.003393     0.002151     0.001464
Rotational constants in MHz :   101.710324    64.471250    43.886785

                             ****ORCA TERMINATED NORMALLY****
TOTAL RUN TIME: 0 days 0 hours 37 minutes 28 seconds 579 msec
