                         Program Version 4.2.1 -  RELEASE  -
|  1> ! RI-MP2 cc-pVTZ cc-pVTZ/C TIGHTSCF printbasis Grid6 NOFINALGRID SlowConv
|  2>
|  3> %base "_o_1_alde1_2_ami3_1_opt_MP2"
|  4> %maxcore 3000
|  5> %pal
|  6>    nprocs 32
|  7> end
|  8>
|  9> * xyzfile 0 1 _o_1_alde1_2_ami3_1_opt_B97-3c.xyz
| 10>
| 11>                          ****END OF INPUT****

CARTESIAN COORDINATES (ANGSTROEM)
---------------------------------
  C     -1.367994    1.294257   -1.133106
  C     -1.690868    0.533981    0.081213
  C     -2.351651    2.101334   -1.701612
  C     -2.082889    2.828244   -2.851238
  H     -3.334117    2.176612   -1.254047
  C     -0.810866    2.750235   -3.411245
  C      0.184970    1.951329   -2.847877
  H     -0.588643    3.320971   -4.305111
  C     -0.101091    1.215799   -1.711958
  C      1.559241    1.956655   -3.465652
  H      0.652005    0.574822   -1.278027
  C     -3.137639    3.664693   -3.529234
  O     -0.934257   -0.213012    0.670364
  C     -5.326455    2.882057   -3.677423
  C     -4.808875    3.174268   -5.079202
  N     -4.438493    3.659435   -2.818821
  H     -5.131956    1.820865   -3.477495
  C     -6.811458    3.113497   -3.573173
  N     -3.359936    3.157913   -4.915302
  H     -5.105794    4.200295   -5.331772
  C     -5.422592    2.243306   -6.093958
  H     -7.034470    4.166473   -3.773023
  C     -7.502794    2.225035   -4.611008
  H     -5.141408    1.211296   -5.860726
  C     -6.943718    2.402332   -6.023069
  H     -8.575539    2.420860   -4.613870
  H     -7.384582    1.181020   -4.309150
  H     -7.205836    3.399069   -6.387763
  H     -7.425602    1.695527   -6.699489
  C      3.446651    1.776508   -2.113049
  C      3.538964    3.062771   -2.922621
  N      2.483699    0.973965   -2.858734
  H      2.987573    2.033580   -1.150396
  C      4.808756    1.193850   -1.841441
  N      2.157234    3.317404   -3.314979
  H      4.108348    2.837497   -3.833529
  C      4.274021    4.135804   -2.160091
  H      5.292090    0.934000   -2.788730
  C      5.636424    2.248610   -1.102128
  H      3.724661    4.374105   -1.243511
  C      5.666895    3.601374   -1.814782
  H      5.216350    2.381451   -0.101827
  H      6.655663    1.888467   -0.958310
  H      6.239888    3.504183   -2.740768
  H      6.202789    4.326534   -1.201172
  H      2.966523    0.478602   -3.597209
  H      1.468945    1.728753   -4.530830
  H      1.686525    3.777153   -2.541845
  H     -4.782710    4.609808   -2.765251
  H     -3.047282    2.192654   -4.944571
  H     -2.787120    4.698543   -3.585108
  H     -2.726546    0.690820    0.452054
  H     -7.180648    2.892807   -2.571103
  H     -5.059682    2.453438   -7.100470
  H      4.740652    0.278058   -1.253987
  H      4.347666    5.058269   -2.737315

 Total Charge           Charge          ....    0
 Multiplicity           Mult            ....    1
 Number of Electrons    NEL             ....  192
 Basis Dimension        Dim             .... 1200

ORBITAL ENERGIES
----------------

  NO   OCC          E(Eh)            E(eV)
   0   2.0000     -20.540942      -558.9475
   1   2.0000     -15.547914      -423.0803
   2   2.0000     -15.545317      -423.0096
   3   2.0000     -15.541973      -422.9186
   4   2.0000     -15.541901      -422.9166
   5   2.0000     -11.321115      -308.0632
   6   2.0000     -11.290770      -307.2375
   7   2.0000     -11.286822      -307.1300
   8   2.0000     -11.248175      -306.0784
   9   2.0000     -11.246719      -306.0388
  10   2.0000     -11.242904      -305.9350
  11   2.0000     -11.242251      -305.9172
  12   2.0000     -11.239945      -305.8544
  13   2.0000     -11.238752      -305.8220
  14   2.0000     -11.237655      -305.7921
  15   2.0000     -11.237261      -305.7814
  16   2.0000     -11.236046      -305.7484
  17   2.0000     -11.231442      -305.6231
  18   2.0000     -11.226365      -305.4849
  19   2.0000     -11.225775      -305.4689
  20   2.0000     -11.225447      -305.4599
  21   2.0000     -11.224214      -305.4264
  22   2.0000     -11.222078      -305.3683
  23   2.0000     -11.221382      -305.3493
  24   2.0000     -11.220577      -305.3274
  25   2.0000     -11.220322      -305.3205
  26   2.0000      -1.374747       -37.4088
  27   2.0000      -1.279102       -34.8061
  28   2.0000      -1.274567       -34.6827
  29   2.0000      -1.167136       -31.7594
  30   2.0000      -1.149394       -31.2766
  31   2.0000      -1.144806       -31.1517
  32   2.0000      -1.118613       -30.4390
  33   2.0000      -1.112012       -30.2594
  34   2.0000      -1.049229       -28.5510
  35   2.0000      -1.047059       -28.4919
  36   2.0000      -1.006858       -27.3980
  37   2.0000      -1.002403       -27.2768
  38   2.0000      -0.986756       -26.8510
  39   2.0000      -0.978336       -26.6219
  40   2.0000      -0.890146       -24.2221
  41   2.0000      -0.879368       -23.9288
  42   2.0000      -0.867788       -23.6137
  43   2.0000      -0.833833       -22.6898
  44   2.0000      -0.829139       -22.5620
  45   2.0000      -0.825233       -22.4557
  46   2.0000      -0.821019       -22.3411
  47   2.0000      -0.786387       -21.3987
  48   2.0000      -0.785945       -21.3866
  49   2.0000      -0.770807       -20.9747
  50   2.0000      -0.758678       -20.6447
  51   2.0000      -0.699690       -19.0395
  52   2.0000      -0.688142       -18.7253
  53   2.0000      -0.673892       -18.3375
  54   2.0000      -0.664944       -18.0941
  55   2.0000      -0.661349       -17.9962
  56   2.0000      -0.650688       -17.7061
  57   2.0000      -0.635810       -17.3013
  58   2.0000      -0.634575       -17.2677
  59   2.0000      -0.629367       -17.1260
  60   2.0000      -0.625515       -17.0211
  61   2.0000      -0.622941       -16.9511
  62   2.0000      -0.609285       -16.5795
  63   2.0000      -0.603962       -16.4346
  64   2.0000      -0.597260       -16.2523
  65   2.0000      -0.592116       -16.1123
  66   2.0000      -0.589135       -16.0312
  67   2.0000      -0.562979       -15.3194
  68   2.0000      -0.556310       -15.1380
  69   2.0000      -0.554057       -15.0766
  70   2.0000      -0.550022       -14.9669
  71   2.0000      -0.543585       -14.7917
  72   2.0000      -0.539224       -14.6730
  73   2.0000      -0.538774       -14.6608
  74   2.0000      -0.516185       -14.0461
  75   2.0000      -0.515364       -14.0238
  76   2.0000      -0.507275       -13.8037
  77   2.0000      -0.502790       -13.6816
  78   2.0000      -0.497555       -13.5392
  79   2.0000      -0.494712       -13.4618
  80   2.0000      -0.490410       -13.3447
  81   2.0000      -0.482515       -13.1299
  82   2.0000      -0.472705       -12.8630
  83   2.0000      -0.468967       -12.7612
  84   2.0000      -0.464768       -12.6470
  85   2.0000      -0.459871       -12.5137
  86   2.0000      -0.459326       -12.4989
  87   2.0000      -0.455219       -12.3871
  88   2.0000      -0.454277       -12.3615
  89   2.0000      -0.416731       -11.3398
  90   2.0000      -0.388751       -10.5784
  91   2.0000      -0.382880       -10.4187
  92   2.0000      -0.380243       -10.3469
  93   2.0000      -0.375799       -10.2260
  94   2.0000      -0.337630        -9.1874
  95   2.0000      -0.330014        -8.9801
  96   0.0000       0.074749         2.0340
  97   0.0000       0.125118         3.4046
  98   0.0000       0.133233         3.6255
  99   0.0000       0.136374         3.7109
 100   0.0000       0.139700         3.8014

MULLIKEN ATOMIC CHARGES
-----------------------
   0 C :    0.095866
   1 C :    0.171706
   2 C :   -0.253013
   3 C :    0.050974
   4 H :    0.174904
   5 C :   -0.245940
   6 C :    0.063090
   7 H :    0.175659
   8 C :   -0.231798
   9 C :    0.050120
  10 H :    0.201323
  11 C :    0.058704
  12 O :   -0.369234
  13 C :    0.050897
  14 C :    0.040105
  15 N :   -0.287640
  16 H :    0.083671
  17 C :   -0.225549
  18 N :   -0.290073
  19 H :    0.091281
  20 C :   -0.220474
  21 H :    0.088339
  22 C :   -0.203742
  23 H :    0.090268
  24 C :   -0.203169
  25 H :    0.114953
  26 H :    0.094347
  27 H :    0.092620
  28 H :    0.115183
  29 C :    0.049565
  30 C :    0.042813
  31 N :   -0.278735
  32 H :    0.088247
  33 C :   -0.226616
  34 N :   -0.291318
  35 H :    0.089838
  36 C :   -0.220527
  37 H :    0.086535
  38 C :   -0.204379
  39 H :    0.089903
  40 C :   -0.202729
  41 H :    0.095962
  42 H :    0.113685
  43 H :    0.091688
  44 H :    0.113759
  45 H :    0.091836
  46 H :    0.109735
  47 H :    0.103795
  48 H :    0.093312
  49 H :    0.105438
  50 H :    0.112474
  51 H :    0.083084
  52 H :    0.121116
  53 H :    0.122571
  54 H :    0.124649
  55 H :    0.120921
Sum of atomic charges:   -0.0000000

LOEWDIN ATOMIC CHARGES
----------------------
   0 C :   -0.095115
   1 C :   -0.152400
   2 C :    0.059987
   3 C :   -0.055419
   4 H :   -0.026458
   5 C :    0.069358
   6 C :   -0.052722
   7 H :   -0.012194
   8 C :    0.081139
   9 C :   -0.112266
  10 H :   -0.018307
  11 C :   -0.110636
  12 O :    0.132428
  13 C :   -0.105265
  14 C :   -0.106573
  15 N :    0.318612
  16 H :   -0.024219
  17 C :    0.064377
  18 N :    0.303029
  19 H :   -0.023374
  20 C :    0.065086
  21 H :   -0.027112
  22 C :    0.066599
  23 H :   -0.026379
  24 C :    0.066245
  25 H :   -0.025311
  26 H :   -0.025190
  27 H :   -0.025621
  28 H :   -0.025206
  29 C :   -0.104526
  30 C :   -0.106654
  31 N :    0.320921
  32 H :   -0.023014
  33 C :    0.064964
  34 N :    0.301937
  35 H :   -0.023844
  36 C :    0.064618
  37 H :   -0.027727
  38 C :    0.066737
  39 H :   -0.026466
  40 C :    0.065984
  41 H :   -0.024744
  42 H :   -0.025582
  43 H :   -0.026029
  44 H :   -0.025619
  45 H :   -0.115885
  46 H :   -0.028983
  47 H :   -0.115108
  48 H :   -0.115841
  49 H :   -0.114556
  50 H :   -0.028464
  51 H :   -0.036940
  52 H :   -0.023522
  53 H :   -0.022974
  54 H :   -0.022202
  55 H :   -0.023578

  Mayer bond orders larger than 0.100000
B(  0-C ,  1-C ) :   0.9428 B(  0-C ,  2-C ) :   1.3291 B(  0-C ,  8-C ) :   1.2967
B(  1-C , 12-O ) :   2.0841 B(  1-C , 51-H ) :   1.0211 B(  2-C ,  3-C ) :   1.3325
B(  2-C ,  4-H ) :   0.9481 B(  3-C ,  5-C ) :   1.3744 B(  3-C , 11-C ) :   1.0447
B(  5-C ,  6-C ) :   1.3393 B(  5-C ,  7-H ) :   0.9628 B(  6-C ,  8-C ) :   1.3432
B(  6-C ,  9-C ) :   1.0353 B(  8-C , 10-H ) :   0.9404 B(  9-C , 31-N ) :   1.0285
B(  9-C , 34-N ) :   1.0242 B(  9-C , 46-H ) :   0.9925 B( 11-C , 15-N ) :   1.0156
B( 11-C , 18-N ) :   1.0284 B( 11-C , 50-H ) :   0.9887 B( 13-C , 14-C ) :   0.9354
B( 13-C , 15-N ) :   0.9850 B( 13-C , 16-H ) :   0.9679 B( 13-C , 17-C ) :   0.9591
B( 14-C , 18-N ) :   1.0162 B( 14-C , 19-H ) :   0.9755 B( 14-C , 20-C ) :   0.9596
B( 15-N , 48-H ) :   0.9938 B( 17-C , 21-H ) :   0.9821 B( 17-C , 22-C ) :   0.9498
B( 17-C , 52-H ) :   0.9893 B( 18-N , 49-H ) :   0.9909 B( 20-C , 23-H ) :   0.9819
B( 20-C , 24-C ) :   0.9488 B( 20-C , 53-H ) :   0.9904 B( 22-C , 24-C ) :   0.9434
B( 22-C , 25-H ) :   0.9941 B( 22-C , 26-H ) :   0.9848 B( 24-C , 27-H ) :   0.9851
B( 24-C , 28-H ) :   0.9941 B( 29-C , 30-C ) :   0.9357 B( 29-C , 31-N ) :   0.9876
B( 29-C , 32-H ) :   0.9667 B( 29-C , 33-C ) :   0.9595 B( 30-C , 34-N ) :   1.0145
B( 30-C , 35-H ) :   0.9752 B( 30-C , 36-C ) :   0.9600 B( 31-N , 45-H ) :   0.9933
B( 33-C , 37-H ) :   0.9829 B( 33-C , 38-C ) :   0.9500 B( 33-C , 54-H ) :   0.9884
B( 34-N , 47-H ) :   0.9934 B( 36-C , 39-H ) :   0.9818 B( 36-C , 40-C ) :   0.9488
B( 36-C , 55-H ) :   0.9908 B( 38-C , 40-C ) :   0.9434 B( 38-C , 41-H ) :   0.9847
B( 38-C , 42-H ) :   0.9944 B( 40-C , 43-H ) :   0.9852 B( 40-C , 44-H ) :   0.9944

MP2 TOTAL ENERGY:    -1110.239540841 Eh
FINAL SINGLE POINT ENERGY     -1110.239540840691

DIPOLE MOMENT
-------------
                                X             Y             Z
Electronic contribution:     -1.02156      -5.25860       8.32002
Nuclear contribution   :      0.54758       6.20844      -9.41732
                        -----------------------------------------
Total Dipole Moment    :     -0.47398       0.94984      -1.09730
                        -----------------------------------------
Magnitude (a.u.)       :      1.52674
Magnitude (Debye)      :      3.88065

Rotational constants in cm-1:     0.015325     0.002655     0.002426
Rotational constants in MHz :   459.425487    79.580487    72.726072

                             ****ORCA TERMINATED NORMALLY****
TOTAL RUN TIME: 0 days 0 hours 23 minutes 5 seconds 524 msec
