                         Program Version 4.2.1 -  RELEASE  -
|  1> ! RI-MP2 cc-pVTZ cc-pVTZ/C TIGHTSCF printbasis Grid6 NOFINALGRID SlowConv
|  2>
|  3> %base "_o_1_alde1_2_ami1_2_opt_MP2"
|  4> %maxcore 3000
|  5> %pal
|  6>    nprocs 32
|  7> end
|  8>
|  9> * xyzfile 0 1 _o_1_alde1_2_ami1_2_opt_B97-3c.xyz
| 10>
| 11>                          ****END OF INPUT****

CARTESIAN COORDINATES (ANGSTROEM)
---------------------------------
  C     -1.490412    2.048162   -0.706622
  C     -1.858365    1.771180    0.694309
  C     -2.492699    2.124898   -1.666395
  C     -2.175748    2.384892   -2.998701
  H     -3.530974    1.983048   -1.395383
  C     -0.839054    2.566457   -3.343955
  C      0.178279    2.491967   -2.390694
  H     -0.582916    2.769585   -4.378098
  C     -0.157489    2.230660   -1.067116
  C      1.567918    2.691293   -2.802588
  H      0.616330    2.170149   -0.315898
  C     -3.210023    2.467466   -4.028283
  O     -1.074987    1.685456    1.616536
  C     -5.413182    2.462818   -4.835175
  C     -6.412910    3.585409   -4.456085
  N     -4.446302    2.363435   -3.767088
  H     -4.932372    2.723390   -5.789313
  C     -6.083037    1.090512   -5.039506
  N     -7.175943    3.291725   -3.246895
  H     -7.123287    3.672224   -5.280232
  C     -5.738554    4.960033   -4.314075
  H     -6.502397    0.788586   -4.077067
  C     -5.055494    0.043827   -5.447921
  C     -7.207239    1.154496   -6.064980
  H     -5.081196    4.906980   -3.440713
  C     -6.779992    6.041645   -4.056852
  C     -4.894418    5.332438   -5.525879
  H     -8.045750    1.765128   -5.736508
  H     -7.594012    0.156005   -6.263293
  H     -6.853210    1.562267   -7.013040
  H     -5.528581   -0.927387   -5.586189
  H     -4.275816   -0.072515   -4.699615
  H     -4.577197    0.313335   -6.391611
  H     -4.539647    6.358425   -5.438520
  H     -5.479664    5.269182   -6.445133
  H     -4.018450    4.699715   -5.647826
  H     -6.300969    7.001702   -3.865373
  H     -7.407157    5.788245   -3.208149
  H     -7.428706    6.166357   -4.926622
  C      4.698225    1.489996   -2.141480
  C      3.889671    2.771052   -2.472934
  N      4.802981    1.228444   -0.710098
  H      5.709363    1.643482   -2.523333
  C      4.149105    0.241236   -2.851209
  N      2.541546    2.567493   -2.001512
  H      3.915409    2.935647   -3.559750
  C      4.464689    4.043015   -1.820794
  H      3.165413    0.032310   -2.419564
  C      5.046838   -0.960634   -2.586330
  C      3.981076    0.440106   -4.352125
  H      4.372840    3.922088   -0.739147
  C      3.654807    5.268152   -2.222153
  C      5.933728    4.244509   -2.169135
  H      3.205456    1.159306   -4.604653
  H      3.714145   -0.501074   -4.830985
  H      4.911753    0.783073   -4.808044
  H      5.197376   -1.109807   -1.521953
  H      6.027267   -0.817258   -3.045983
  H      4.615260   -1.866994   -3.010976
  H      6.286530    5.198815   -1.780246
  H      6.084360    4.256164   -3.249848
  H      6.576946    3.470333   -1.755460
  H      2.613240    5.180698   -1.924377
  H      3.683532    5.418535   -3.303114
  H      4.057587    6.166099   -1.755718
  H     -2.947952    1.639272    0.862431
  H      3.880790    1.319476   -0.300127
  H      5.381815    1.927308   -0.264925
  H     -7.821334    2.531829   -3.413572
  H     -6.531402    2.967462   -2.535418
  H      1.715842    2.959096   -3.858499
  H     -2.844512    2.624346   -5.053229

 Total Charge           Charge          ....    0
 Multiplicity           Mult            ....    1
 Number of Electrons    NEL             ....  228
 Basis Dimension        Dim             .... 1488

ORBITAL ENERGIES
----------------

  NO   OCC          E(Eh)            E(eV)
   0   2.0000     -20.557656      -559.4023
   1   2.0000     -15.566219      -423.5784
   2   2.0000     -15.562909      -423.4883
   3   2.0000     -15.530809      -422.6148
   4   2.0000     -15.525479      -422.4698
   5   2.0000     -11.337538      -308.5101
   6   2.0000     -11.294835      -307.3481
   7   2.0000     -11.291030      -307.2445
   8   2.0000     -11.271800      -306.7213
   9   2.0000     -11.267528      -306.6050
  10   2.0000     -11.262769      -306.4755
  11   2.0000     -11.262319      -306.4633
  12   2.0000     -11.261005      -306.4275
  13   2.0000     -11.258043      -306.3469
  14   2.0000     -11.257035      -306.3195
  15   2.0000     -11.253253      -306.2166
  16   2.0000     -11.249922      -306.1260
  17   2.0000     -11.246005      -306.0194
  18   2.0000     -11.232182      -305.6432
  19   2.0000     -11.228340      -305.5387
  20   2.0000     -11.218995      -305.2844
  21   2.0000     -11.218901      -305.2818
  22   2.0000     -11.215660      -305.1936
  23   2.0000     -11.215450      -305.1879
  24   2.0000     -11.214749      -305.1688
  25   2.0000     -11.211701      -305.0859
  26   2.0000     -11.211275      -305.0743
  27   2.0000     -11.209044      -305.0136
  28   2.0000     -11.196761      -304.6793
  29   2.0000     -11.193476      -304.5900
  30   2.0000      -1.392328       -37.8872
  31   2.0000      -1.259328       -34.2680
  32   2.0000      -1.255297       -34.1584
  33   2.0000      -1.194539       -32.5050
  34   2.0000      -1.183158       -32.1954
  35   2.0000      -1.174853       -31.9694
  36   2.0000      -1.095116       -29.7996
  37   2.0000      -1.088888       -29.6301
  38   2.0000      -1.069402       -29.0999
  39   2.0000      -1.066133       -29.0109
  40   2.0000      -1.062617       -28.9153
  41   2.0000      -1.055997       -28.7351
  42   2.0000      -0.971199       -26.4277
  43   2.0000      -0.964362       -26.2416
  44   2.0000      -0.939881       -25.5755
  45   2.0000      -0.936491       -25.4832
  46   2.0000      -0.925422       -25.1820
  47   2.0000      -0.922412       -25.1001
  48   2.0000      -0.909625       -24.7521
  49   2.0000      -0.899013       -24.4634
  50   2.0000      -0.878271       -23.8990
  51   2.0000      -0.857956       -23.3462
  52   2.0000      -0.835176       -22.7263
  53   2.0000      -0.790301       -21.5052
  54   2.0000      -0.780537       -21.2395
  55   2.0000      -0.777006       -21.1434
  56   2.0000      -0.772118       -21.0104
  57   2.0000      -0.753897       -20.5146
  58   2.0000      -0.750278       -20.4161
  59   2.0000      -0.719246       -19.5717
  60   2.0000      -0.698734       -19.0135
  61   2.0000      -0.683442       -18.5974
  62   2.0000      -0.673706       -18.3325
  63   2.0000      -0.661751       -18.0072
  64   2.0000      -0.651722       -17.7343
  65   2.0000      -0.650893       -17.7117
  66   2.0000      -0.646337       -17.5877
  67   2.0000      -0.634765       -17.2728
  68   2.0000      -0.631156       -17.1746
  69   2.0000      -0.628062       -17.0904
  70   2.0000      -0.621604       -16.9147
  71   2.0000      -0.618308       -16.8250
  72   2.0000      -0.612892       -16.6776
  73   2.0000      -0.604012       -16.4360
  74   2.0000      -0.599642       -16.3171
  75   2.0000      -0.594269       -16.1709
  76   2.0000      -0.590797       -16.0764
  77   2.0000      -0.569383       -15.4937
  78   2.0000      -0.567937       -15.4544
  79   2.0000      -0.563741       -15.3402
  80   2.0000      -0.555955       -15.1283
  81   2.0000      -0.552901       -15.0452
  82   2.0000      -0.543730       -14.7957
  83   2.0000      -0.541907       -14.7460
  84   2.0000      -0.539176       -14.6717
  85   2.0000      -0.538304       -14.6480
  86   2.0000      -0.530857       -14.4454
  87   2.0000      -0.530222       -14.4281
  88   2.0000      -0.527767       -14.3613
  89   2.0000      -0.526891       -14.3374
  90   2.0000      -0.523616       -14.2483
  91   2.0000      -0.518164       -14.1000
  92   2.0000      -0.512860       -13.9556
  93   2.0000      -0.508107       -13.8263
  94   2.0000      -0.498793       -13.5729
  95   2.0000      -0.485305       -13.2058
  96   2.0000      -0.481623       -13.1056
  97   2.0000      -0.478754       -13.0276
  98   2.0000      -0.474680       -12.9167
  99   2.0000      -0.472063       -12.8455
 100   2.0000      -0.469185       -12.7672
 101   2.0000      -0.466385       -12.6910
 102   2.0000      -0.460334       -12.5263
 103   2.0000      -0.452750       -12.3200
 104   2.0000      -0.446882       -12.1603
 105   2.0000      -0.439759       -11.9665
 106   2.0000      -0.433793       -11.8041
 107   2.0000      -0.425214       -11.5707
 108   2.0000      -0.417450       -11.3594
 109   2.0000      -0.413345       -11.2477
 110   2.0000      -0.384211       -10.4549
 111   2.0000      -0.379700       -10.3322
 112   2.0000      -0.353601        -9.6220
 113   2.0000      -0.332048        -9.0355
 114   0.0000       0.052882         1.4390
 115   0.0000       0.061866         1.6835
 116   0.0000       0.121172         3.2972
 117   0.0000       0.122012         3.3201
 118   0.0000       0.133000         3.6191

MULLIKEN ATOMIC CHARGES
-----------------------
   0 C :    0.078854
   1 C :    0.173733
   2 C :   -0.200772
   3 C :    0.174681
   4 H :    0.169878
   5 C :   -0.203750
   6 C :    0.178978
   7 H :    0.142128
   8 C :   -0.178586
   9 C :   -0.144168
  10 H :    0.196738
  11 C :   -0.135952
  12 O :   -0.355813
  13 C :    0.021625
  14 C :    0.019941
  15 N :   -0.268718
  16 H :    0.103049
  17 C :   -0.055412
  18 N :   -0.384631
  19 H :    0.116532
  20 C :   -0.046319
  21 H :    0.101419
  22 C :   -0.330755
  23 C :   -0.331139
  24 H :    0.106193
  25 C :   -0.314330
  26 C :   -0.331212
  27 H :    0.105210
  28 H :    0.111858
  29 H :    0.096165
  30 H :    0.109045
  31 H :    0.111211
  32 H :    0.086143
  33 H :    0.110574
  34 H :    0.092126
  35 H :    0.092864
  36 H :    0.093927
  37 H :    0.122050
  38 H :    0.076960
  39 C :    0.019501
  40 C :    0.021213
  41 N :   -0.385176
  42 H :    0.115471
  43 C :   -0.046725
  44 N :   -0.255855
  45 H :    0.101827
  46 C :   -0.055716
  47 H :    0.108257
  48 C :   -0.313950
  49 C :   -0.331315
  50 H :    0.105467
  51 C :   -0.330605
  52 C :   -0.331236
  53 H :    0.092024
  54 H :    0.109622
  55 H :    0.091639
  56 H :    0.123374
  57 H :    0.075839
  58 H :    0.092694
  59 H :    0.111354
  60 H :    0.094889
  61 H :    0.105430
  62 H :    0.112005
  63 H :    0.084447
  64 H :    0.108586
  65 H :    0.091241
  66 H :    0.152295
  67 H :    0.136802
  68 H :    0.137498
  69 H :    0.147187
  70 H :    0.099791
  71 H :    0.101799
Sum of atomic charges:   -0.0000000

LOEWDIN ATOMIC CHARGES
----------------------
   0 C :   -0.090868
   1 C :   -0.147964
   2 C :    0.098863
   3 C :   -0.077060
   4 H :   -0.016753
   5 C :    0.082492
   6 C :   -0.074141
   7 H :   -0.018501
   8 C :    0.122014
   9 C :   -0.074276
  10 H :   -0.009939
  11 C :   -0.072872
  12 O :    0.145818
  13 C :   -0.103826
  14 C :   -0.076400
  15 N :    0.241737
  16 H :   -0.030801
  17 C :   -0.026175
  18 N :    0.357254
  19 H :   -0.024655
  20 C :   -0.026168
  21 H :   -0.028421
  22 C :    0.114306
  23 C :    0.116833
  24 H :   -0.026936
  25 C :    0.115626
  26 C :    0.112855
  27 H :   -0.033372
  28 H :   -0.025782
  29 H :   -0.027822
  30 H :   -0.027701
  31 H :   -0.032711
  32 H :   -0.030992
  33 H :   -0.026130
  34 H :   -0.029452
  35 H :   -0.040057
  36 H :   -0.033018
  37 H :   -0.032338
  38 H :   -0.032198
  39 C :   -0.076963
  40 C :   -0.104142
  41 N :    0.357884
  42 H :   -0.024879
  43 C :   -0.025820
  44 N :    0.248262
  45 H :   -0.031445
  46 C :   -0.025498
  47 H :   -0.026396
  48 C :    0.115561
  49 C :    0.112329
  50 H :   -0.027220
  51 C :    0.114193
  52 C :    0.116479
  53 H :   -0.040445
  54 H :   -0.026591
  55 H :   -0.029648
  56 H :   -0.031874
  57 H :   -0.032494
  58 H :   -0.033420
  59 H :   -0.025937
  60 H :   -0.028229
  61 H :   -0.033239
  62 H :   -0.032416
  63 H :   -0.031603
  64 H :   -0.027815
  65 H :   -0.034709
  66 H :   -0.108585
  67 H :   -0.116379
  68 H :   -0.116459
  69 H :   -0.111404
  70 H :   -0.036466
  71 H :   -0.035103

  Mayer bond orders larger than 0.100000
B(  0-C ,  1-C ) :   0.9266 B(  0-C ,  2-C ) :   1.3401 B(  0-C ,  8-C ) :   1.2988
B(  1-C , 12-O ) :   2.0935 B(  1-C , 65-H ) :   1.0216 B(  2-C ,  3-C ) :   1.3179
B(  2-C ,  4-H ) :   0.9610 B(  3-C ,  5-C ) :   1.3828 B(  3-C , 11-C ) :   1.0085
B(  5-C ,  6-C ) :   1.3509 B(  5-C ,  7-H ) :   0.9760 B(  6-C ,  8-C ) :   1.3315
B(  6-C ,  9-C ) :   1.0054 B(  8-C , 10-H ) :   0.9494 B(  9-C , 44-N ) :   1.9448
B(  9-C , 70-H ) :   0.9912 B( 11-C , 15-N ) :   1.9367 B( 11-C , 71-H ) :   0.9892
B( 13-C , 14-C ) :   0.9729 B( 13-C , 15-N ) :   0.9123 B( 13-C , 16-H ) :   0.9711
B( 13-C , 17-C ) :   0.9563 B( 14-C , 18-N ) :   0.9848 B( 14-C , 19-H ) :   0.9807
B( 14-C , 20-C ) :   0.9699 B( 17-C , 21-H ) :   0.9728 B( 17-C , 22-C ) :   0.9485
B( 17-C , 23-C ) :   0.9458 B( 18-N , 68-H ) :   1.0079 B( 18-N , 69-H ) :   0.9934
B( 20-C , 24-H ) :   0.9702 B( 20-C , 25-C ) :   0.9604 B( 20-C , 26-C ) :   0.9410
B( 22-C , 30-H ) :   0.9886 B( 22-C , 31-H ) :   0.9843 B( 22-C , 32-H ) :   0.9804
B( 23-C , 27-H ) :   0.9818 B( 23-C , 28-H ) :   0.9871 B( 23-C , 29-H ) :   0.9783
B( 25-C , 36-H ) :   0.9902 B( 25-C , 37-H ) :   0.9759 B( 25-C , 38-H ) :   0.9821
B( 26-C , 33-H ) :   0.9886 B( 26-C , 34-H ) :   0.9811 B( 26-C , 35-H ) :   0.9847
B( 39-C , 40-C ) :   0.9724 B( 39-C , 41-N ) :   0.9873 B( 39-C , 42-H ) :   0.9811
B( 39-C , 43-C ) :   0.9699 B( 40-C , 44-N ) :   0.9103 B( 40-C , 45-H ) :   0.9716
B( 40-C , 46-C ) :   0.9561 B( 41-N , 66-H ) :   0.9912 B( 41-N , 67-H ) :   1.0078
B( 43-C , 47-H ) :   0.9698 B( 43-C , 48-C ) :   0.9607 B( 43-C , 49-C ) :   0.9406
B( 46-C , 50-H ) :   0.9721 B( 46-C , 51-C ) :   0.9487 B( 46-C , 52-C ) :   0.9454
B( 48-C , 56-H ) :   0.9757 B( 48-C , 57-H ) :   0.9822 B( 48-C , 58-H ) :   0.9903
B( 49-C , 53-H ) :   0.9850 B( 49-C , 54-H ) :   0.9889 B( 49-C , 55-H ) :   0.9812
B( 51-C , 62-H ) :   0.9843 B( 51-C , 63-H ) :   0.9805 B( 51-C , 64-H ) :   0.9887
B( 52-C , 59-H ) :   0.9873 B( 52-C , 60-H ) :   0.9784 B( 52-C , 61-H ) :   0.9820

MP2 TOTAL ENERGY:    -1269.505623034 Eh
FINAL SINGLE POINT ENERGY     -1269.505623034084

DIPOLE MOMENT
-------------
                                X             Y             Z
Electronic contribution:     -4.16878      -4.37724      23.36904
Nuclear contribution   :      3.88935       4.71520     -25.40725
                        -----------------------------------------
Total Dipole Moment    :     -0.27943       0.33796      -2.03821
                        -----------------------------------------
Magnitude (a.u.)       :      2.08485
Magnitude (Debye)      :      5.29926

Rotational constants in cm-1:     0.008045     0.001779     0.001757
Rotational constants in MHz :   241.188684    53.333170    52.662295

                             ****ORCA TERMINATED NORMALLY****
TOTAL RUN TIME: 0 days 0 hours 32 minutes 31 seconds 629 msec
