                         Program Version 4.2.1 -  RELEASE  -
|  1> ! RI-MP2 cc-pVTZ cc-pVTZ/C TIGHTSCF printbasis Grid6 NOFINALGRID SlowConv
|  2>
|  3> %base "_o_1_alde1_2_ami2_1_opt_MP2"
|  4> %maxcore 3000
|  5> %pal
|  6>    nprocs 32
|  7> end
|  8>
|  9> * xyzfile 0 1 _o_1_alde1_2_ami2_1_opt_B97-3c.xyz
| 10>
| 11>                          ****END OF INPUT****

CARTESIAN COORDINATES (ANGSTROEM)
---------------------------------
  C     -1.757502    1.452725    0.085639
  C     -2.181561    1.012727    1.420599
  C     -2.694499    1.780763   -0.895616
  C     -2.271217    2.178154   -2.151280
  H     -3.749510    1.739638   -0.665499
  C     -0.905326    2.252824   -2.421491
  C      0.039529    1.936413   -1.454531
  H     -0.556488    2.548757   -3.402241
  C     -0.396811    1.534899   -0.199079
  C      1.513913    2.086743   -1.722063
  H      0.327951    1.294894    0.570921
  C     -3.267399    2.464717   -3.243447
  O     -3.332366    0.875387    1.785794
  C     -5.639052    2.584093   -3.593348
  C     -4.931360    1.602461   -4.557994
  N     -4.518310    3.052691   -2.746114
  C     -6.655282    1.858089   -2.719180
  N     -3.665917    1.241309   -3.929179
  H     -4.719923    2.099029   -5.507344
  H     -7.504093    1.503232   -3.305647
  C      3.263793    3.543720   -1.939148
  C      3.042172    2.954941   -3.353580
  N      2.015230    3.356035   -1.209451
  H      3.549354    4.593000   -1.955331
  N      1.859849    2.084461   -3.149584
  C      2.688850    4.049251   -4.354385
  H      2.379905    3.613983   -5.303498
  H      1.353718    4.079564   -1.470677
  H      2.046373    1.291703   -1.179778
  H      2.028349    1.146635   -3.486661
  H     -4.467696    4.061486   -2.719284
  H     -3.826584    0.528954   -3.225210
  H     -2.786139    3.110878   -3.991323
  H     -1.342471    0.795487    2.116062
  H     -5.523495    0.715704   -4.772595
  H     -6.194655    1.002481   -2.226695
  H     -7.028371    2.518505   -1.938170
  H      4.053249    2.992396   -1.424640
  H      3.537280    4.709635   -4.539136
  H      1.858113    4.649989   -3.985188
  C      4.249006    2.164587   -3.835054
  H      5.124694    2.805459   -3.933342
  H      4.062335    1.717560   -4.811816
  H      4.497163    1.365914   -3.135998
  C     -6.303114    3.731794   -4.338257
  H     -6.754150    4.442444   -3.644938
  H     -7.095614    3.368717   -4.992404
  H     -5.580928    4.267231   -4.955179

 Total Charge           Charge          ....    0
 Multiplicity           Mult            ....    1
 Number of Electrons    NEL             ....  164
 Basis Dimension        Dim             .... 1024

ORBITAL ENERGIES
----------------

  NO   OCC          E(Eh)            E(eV)
   0   2.0000     -20.543379      -559.0138
   1   2.0000     -15.549238      -423.1163
   2   2.0000     -15.543961      -422.9727
   3   2.0000     -15.542131      -422.9229
   4   2.0000     -15.535779      -422.7500
   5   2.0000     -11.323909      -308.1392
   6   2.0000     -11.290332      -307.2255
   7   2.0000     -11.284927      -307.0785
   8   2.0000     -11.264929      -306.5343
   9   2.0000     -11.258911      -306.3705
  10   2.0000     -11.249888      -306.1250
  11   2.0000     -11.245639      -306.0094
  12   2.0000     -11.244739      -305.9849
  13   2.0000     -11.239808      -305.8507
  14   2.0000     -11.239221      -305.8348
  15   2.0000     -11.237944      -305.8000
  16   2.0000     -11.236765      -305.7679
  17   2.0000     -11.234986      -305.7195
  18   2.0000     -11.222044      -305.3673
  19   2.0000     -11.217340      -305.2393
  20   2.0000     -11.213374      -305.1314
  21   2.0000     -11.205968      -304.9299
  22   2.0000      -1.377493       -37.4835
  23   2.0000      -1.281030       -34.8586
  24   2.0000      -1.275437       -34.7064
  25   2.0000      -1.168253       -31.7898
  26   2.0000      -1.149939       -31.2914
  27   2.0000      -1.144246       -31.1365
  28   2.0000      -1.078945       -29.3596
  29   2.0000      -1.068744       -29.0820
  30   2.0000      -1.034061       -28.1382
  31   2.0000      -1.021117       -27.7860
  32   2.0000      -0.945192       -25.7200
  33   2.0000      -0.939216       -25.5574
  34   2.0000      -0.925922       -25.1956
  35   2.0000      -0.922084       -25.0912
  36   2.0000      -0.889682       -24.2095
  37   2.0000      -0.864655       -23.5285
  38   2.0000      -0.854136       -23.2422
  39   2.0000      -0.791691       -21.5430
  40   2.0000      -0.771017       -20.9804
  41   2.0000      -0.767827       -20.8936
  42   2.0000      -0.763553       -20.7773
  43   2.0000      -0.708397       -19.2765
  44   2.0000      -0.697558       -18.9815
  45   2.0000      -0.679661       -18.4945
  46   2.0000      -0.674122       -18.3438
  47   2.0000      -0.664333       -18.0774
  48   2.0000      -0.650366       -17.6973
  49   2.0000      -0.632664       -17.2157
  50   2.0000      -0.614942       -16.7334
  51   2.0000      -0.611618       -16.6430
  52   2.0000      -0.608800       -16.5663
  53   2.0000      -0.605272       -16.4703
  54   2.0000      -0.599974       -16.3261
  55   2.0000      -0.593316       -16.1449
  56   2.0000      -0.578167       -15.7327
  57   2.0000      -0.567571       -15.4444
  58   2.0000      -0.560817       -15.2606
  59   2.0000      -0.556858       -15.1529
  60   2.0000      -0.550856       -14.9896
  61   2.0000      -0.545381       -14.8406
  62   2.0000      -0.544891       -14.8272
  63   2.0000      -0.538892       -14.6640
  64   2.0000      -0.517922       -14.0934
  65   2.0000      -0.513432       -13.9712
  66   2.0000      -0.512190       -13.9374
  67   2.0000      -0.508372       -13.8335
  68   2.0000      -0.506658       -13.7869
  69   2.0000      -0.503203       -13.6929
  70   2.0000      -0.490624       -13.3506
  71   2.0000      -0.481156       -13.0929
  72   2.0000      -0.478377       -13.0173
  73   2.0000      -0.472646       -12.8614
  74   2.0000      -0.472462       -12.8563
  75   2.0000      -0.418493       -11.3878
  76   2.0000      -0.392904       -10.6915
  77   2.0000      -0.387689       -10.5496
  78   2.0000      -0.378202       -10.2914
  79   2.0000      -0.371136       -10.0991
  80   2.0000      -0.339975        -9.2512
  81   2.0000      -0.332541        -9.0489
  82   0.0000       0.076873         2.0918
  83   0.0000       0.117601         3.2001
  84   0.0000       0.126295         3.4367
  85   0.0000       0.133008         3.6193
  86   0.0000       0.144258         3.9255

MULLIKEN ATOMIC CHARGES
-----------------------
   0 C :    0.083529
   1 C :    0.173898
   2 C :   -0.215198
   3 C :    0.078356
   4 H :    0.201472
   5 C :   -0.214653
   6 C :    0.070060
   7 H :    0.174882
   8 C :   -0.247835
   9 C :    0.074975
  10 H :    0.146024
  11 C :    0.060980
  12 O :   -0.368353
  13 C :    0.099404
  14 C :   -0.099660
  15 N :   -0.288620
  16 C :   -0.290118
  17 N :   -0.259365
  18 H :    0.092723
  19 H :    0.094913
  20 C :   -0.102123
  21 C :    0.101089
  22 N :   -0.255573
  23 H :    0.112364
  24 N :   -0.300411
  25 C :   -0.288354
  26 H :    0.100513
  27 H :    0.103667
  28 H :    0.094042
  29 H :    0.111804
  30 H :    0.106111
  31 H :    0.106486
  32 H :    0.089971
  33 H :    0.082820
  34 H :    0.111321
  35 H :    0.096132
  36 H :    0.102953
  37 H :    0.095262
  38 H :    0.095491
  39 H :    0.090650
  40 C :   -0.316887
  41 H :    0.102381
  42 H :    0.105769
  43 H :    0.099711
  44 C :   -0.316639
  45 H :    0.105614
  46 H :    0.101039
  47 H :    0.097379
Sum of atomic charges:   -0.0000000

LOEWDIN ATOMIC CHARGES
----------------------
   0 C :   -0.094782
   1 C :   -0.152530
   2 C :    0.083776
   3 C :   -0.047979
   4 H :   -0.017343
   5 C :    0.073786
   6 C :   -0.051516
   7 H :   -0.023528
   8 C :    0.066922
   9 C :   -0.155707
  10 H :   -0.018475
  11 C :   -0.154649
  12 O :    0.133827
  13 C :   -0.178198
  14 C :    0.003581
  15 N :    0.330825
  16 C :    0.107968
  17 N :    0.309484
  18 H :   -0.029594
  19 H :   -0.031236
  20 C :    0.004158
  21 C :   -0.176897
  22 N :    0.309098
  23 H :   -0.028162
  24 N :    0.332045
  25 C :    0.106766
  26 H :   -0.028414
  27 H :   -0.110515
  28 H :   -0.030180
  29 H :   -0.117278
  30 H :   -0.118789
  31 H :   -0.110986
  32 H :   -0.030545
  33 H :   -0.036934
  34 H :   -0.028282
  35 H :   -0.030032
  36 H :   -0.027245
  37 H :   -0.028872
  38 H :   -0.030518
  39 H :   -0.031573
  40 C :    0.110448
  41 H :   -0.023622
  42 H :   -0.026870
  43 H :   -0.029765
  44 C :    0.109779
  45 H :   -0.026944
  46 H :   -0.023913
  47 H :   -0.030589

  Mayer bond orders larger than 0.100000
B(  0-C ,  1-C ) :   0.9370 B(  0-C ,  2-C ) :   1.3085 B(  0-C ,  8-C ) :   1.3418
B(  1-C , 12-O ) :   2.0826 B(  1-C , 33-H ) :   1.0203 B(  2-C ,  3-C ) :   1.3564
B(  2-C ,  4-H ) :   0.9385 B(  3-C ,  5-C ) :   1.3609 B(  3-C , 11-C ) :   1.0185
B(  5-C ,  6-C ) :   1.3586 B(  5-C ,  7-H ) :   0.9489 B(  6-C ,  8-C ) :   1.3730
B(  6-C ,  9-C ) :   1.0337 B(  8-C , 10-H ) :   0.9718 B(  9-C , 22-N ) :   1.0153
B(  9-C , 24-N ) :   1.0093 B(  9-C , 28-H ) :   0.9897 B( 11-C , 15-N ) :   1.0113
B( 11-C , 17-N ) :   1.0153 B( 11-C , 32-H ) :   0.9954 B( 13-C , 14-C ) :   0.9373
B( 13-C , 15-N ) :   0.9835 B( 13-C , 16-C ) :   0.9557 B( 13-C , 44-C ) :   0.9556
B( 14-C , 17-N ) :   0.9980 B( 14-C , 18-H ) :   0.9934 B( 14-C , 34-H ) :   0.9920
B( 15-N , 30-H ) :   0.9923 B( 16-C , 19-H ) :   0.9824 B( 16-C , 35-H ) :   0.9809
B( 16-C , 36-H ) :   0.9808 B( 17-N , 31-H ) :   0.9984 B( 20-C , 21-C ) :   0.9362
B( 20-C , 22-N ) :   0.9986 B( 20-C , 23-H ) :   0.9922 B( 20-C , 37-H ) :   0.9931
B( 21-C , 24-N ) :   0.9811 B( 21-C , 25-C ) :   0.9559 B( 21-C , 40-C ) :   0.9558
B( 22-N , 27-H ) :   0.9964 B( 24-N , 29-H ) :   0.9889 B( 25-C , 26-H ) :   0.9818
B( 25-C , 38-H ) :   0.9828 B( 25-C , 39-H ) :   0.9815 B( 40-C , 41-H ) :   0.9797
B( 40-C , 42-H ) :   0.9806 B( 40-C , 43-H ) :   0.9823 B( 44-C , 45-H ) :   0.9810
B( 44-C , 46-H ) :   0.9799 B( 44-C , 47-H ) :   0.9827

MP2 TOTAL ENERGY:     -955.733757154 Eh
FINAL SINGLE POINT ENERGY      -955.733757154097

DIPOLE MOMENT
-------------
                                X             Y             Z
Electronic contribution:     -1.82451      -6.73921      17.05063
Nuclear contribution   :      2.97135       7.26914     -18.48238
                        -----------------------------------------
Total Dipole Moment    :      1.14684       0.52993      -1.43175
                        -----------------------------------------
Magnitude (a.u.)       :      1.90944
Magnitude (Debye)      :      4.85342

Rotational constants in cm-1:     0.013646     0.004792     0.003799
Rotational constants in MHz :   409.108670   143.647262   113.876848

                             ****ORCA TERMINATED NORMALLY****
TOTAL RUN TIME: 0 days 0 hours 19 minutes 17 seconds 309 msec
