                         Program Version 4.2.1 -  RELEASE  -
|  1> ! RI-MP2 cc-pVTZ cc-pVTZ/C TIGHTSCF printbasis Grid6 NOFINALGRID SlowConv
|  2>
|  3> %base "_o_1_alde1_2_ami1_1_opt_MP2"
|  4> %maxcore 3000
|  5> %pal
|  6>    nprocs 32
|  7> end
|  8>
|  9> * xyzfile 0 1 _o_1_alde1_2_ami1_1_opt_B97-3c.xyz
| 10>
| 11>                          ****END OF INPUT****

CARTESIAN COORDINATES (ANGSTROEM)
---------------------------------
  C     -1.212727    0.419555   -1.577411
  C     -1.385201   -0.723038   -0.671536
  C     -2.302691    0.981609   -2.239973
  C     -2.118771    2.054995   -3.096038
  H     -3.294842    0.587113   -2.075592
  C     -0.834864    2.558690   -3.288184
  C      0.263140    2.011341   -2.631898
  H     -0.688175    3.396523   -3.960673
  C      0.064889    0.941551   -1.772296
  C      1.628553    2.619535   -2.811989
  H      0.922110    0.514651   -1.267359
  C     -3.285608    2.620339   -3.859516
  O     -2.440687   -1.268697   -0.415789
  C     -5.633919    2.622322   -4.071149
  C     -4.958966    2.140015   -5.388601
  N     -4.537819    2.550702   -3.104886
  H     -6.416820    1.918243   -3.768533
  C     -6.299120    3.999703   -4.209869
  N     -3.557948    1.848274   -5.061567
  H     -4.953526    2.983104   -6.084594
  C     -5.666343    0.974128   -6.081063
  H     -5.530840    4.705329   -4.545847
  C     -6.859099    4.496899   -2.882390
  C     -7.409267    3.964655   -5.252389
  H     -6.716349    1.267441   -6.156434
  C     -5.612061   -0.321646   -5.278893
  C     -5.141207    0.764756   -7.494812
  H     -8.177758    3.242805   -4.970812
  H     -7.042736    3.689265   -6.238932
  H     -7.890960    4.937258   -5.343895
  H     -7.595342    3.795928   -2.485772
  H     -7.352356    5.460919   -3.004932
  H     -6.089659    4.632353   -2.122553
  H     -4.083524    0.507105   -7.484915
  H     -5.254178    1.666290   -8.096438
  H     -5.678664   -0.039315   -7.996501
  H     -5.865032   -0.172716   -4.230424
  H     -4.624644   -0.783289   -5.317537
  H     -6.310126   -1.049915   -5.688874
  C      3.880274    2.517386   -2.086584
  C      3.275427    3.922083   -1.823322
  N      2.717572    1.703680   -2.462845
  H      4.276849    2.125024   -1.144589
  C      5.038952    2.507529   -3.096656
  N      1.819192    3.761493   -1.930866
  H      3.591939    4.599470   -2.621935
  C      3.676195    4.554765   -0.494778
  H      5.744228    3.270239   -2.754825
  C      4.620124    2.867605   -4.515809
  C      5.771524    1.171495   -3.074033
  H      3.335475    3.873497    0.294909
  C      2.997268    5.904744   -0.297790
  C      5.185759    4.700971   -0.364858
  H      5.132954    0.356337   -3.418503
  H      6.107014    0.921294   -2.067934
  H      6.646382    1.190448   -3.723414
  H      3.939779    2.124586   -4.933631
  H      5.488310    2.907840   -5.172440
  H      4.125458    3.835327   -4.572023
  H      5.444640    5.157867    0.589314
  H      5.584999    5.342185   -1.152048
  H      5.700991    3.744371   -0.419081
  H      3.254858    6.330343    0.671617
  H      1.914733    5.833201   -0.362456
  H      3.322639    6.610295   -1.063744
  H      2.923632    1.056903   -3.212652
  H      1.713506    2.984738   -3.844714
  H      1.457952    3.494518   -1.019375
  H     -4.594461    3.261267   -2.388562
  H     -3.479311    0.872116   -4.801362
  H     -3.042462    3.647185   -4.170649
  H     -0.441313   -1.082512   -0.209050

 Total Charge           Charge          ....    0
 Multiplicity           Mult            ....    1
 Number of Electrons    NEL             ....  228
 Basis Dimension        Dim             .... 1488

ORBITAL ENERGIES
----------------

  NO   OCC          E(Eh)            E(eV)
   0   2.0000     -20.542352      -558.9858
   1   2.0000     -15.543977      -422.9731
   2   2.0000     -15.542124      -422.9227
   3   2.0000     -15.536818      -422.7783
   4   2.0000     -15.535973      -422.7553
   5   2.0000     -11.322664      -308.1054
   6   2.0000     -11.286874      -307.1314
   7   2.0000     -11.282705      -307.0180
   8   2.0000     -11.251572      -306.1708
   9   2.0000     -11.250870      -306.1517
  10   2.0000     -11.246035      -306.0202
  11   2.0000     -11.245443      -306.0041
  12   2.0000     -11.242529      -305.9248
  13   2.0000     -11.240677      -305.8744
  14   2.0000     -11.238754      -305.8221
  15   2.0000     -11.237693      -305.7932
  16   2.0000     -11.237446      -305.7865
  17   2.0000     -11.234628      -305.7098
  18   2.0000     -11.231489      -305.6244
  19   2.0000     -11.231319      -305.6197
  20   2.0000     -11.227114      -305.5053
  21   2.0000     -11.224850      -305.4437
  22   2.0000     -11.218078      -305.2594
  23   2.0000     -11.217773      -305.2511
  24   2.0000     -11.216456      -305.2153
  25   2.0000     -11.214717      -305.1680
  26   2.0000     -11.213608      -305.1378
  27   2.0000     -11.209472      -305.0252
  28   2.0000     -11.209034      -305.0133
  29   2.0000     -11.205821      -304.9259
  30   2.0000      -1.376331       -37.4519
  31   2.0000      -1.279732       -34.8233
  32   2.0000      -1.275206       -34.7001
  33   2.0000      -1.167775       -31.7768
  34   2.0000      -1.152102       -31.3503
  35   2.0000      -1.146387       -31.1948
  36   2.0000      -1.104296       -30.0494
  37   2.0000      -1.095831       -29.8191
  38   2.0000      -1.066286       -29.0151
  39   2.0000      -1.061735       -28.8913
  40   2.0000      -1.047009       -28.4906
  41   2.0000      -1.040066       -28.3016
  42   2.0000      -0.970156       -26.3993
  43   2.0000      -0.960954       -26.1489
  44   2.0000      -0.940991       -25.6057
  45   2.0000      -0.935386       -25.4531
  46   2.0000      -0.934876       -25.4393
  47   2.0000      -0.931050       -25.3352
  48   2.0000      -0.890143       -24.2220
  49   2.0000      -0.877625       -23.8814
  50   2.0000      -0.857240       -23.3267
  51   2.0000      -0.853442       -23.2233
  52   2.0000      -0.850114       -23.1328
  53   2.0000      -0.792436       -21.5633
  54   2.0000      -0.788800       -21.4643
  55   2.0000      -0.775478       -21.1018
  56   2.0000      -0.770469       -20.9655
  57   2.0000      -0.761538       -20.7225
  58   2.0000      -0.758006       -20.6264
  59   2.0000      -0.707487       -19.2517
  60   2.0000      -0.698554       -19.0086
  61   2.0000      -0.683014       -18.5858
  62   2.0000      -0.666566       -18.1382
  63   2.0000      -0.665479       -18.1086
  64   2.0000      -0.656094       -17.8532
  65   2.0000      -0.641239       -17.4490
  66   2.0000      -0.635370       -17.2893
  67   2.0000      -0.625035       -17.0081
  68   2.0000      -0.622733       -16.9454
  69   2.0000      -0.616537       -16.7768
  70   2.0000      -0.614990       -16.7347
  71   2.0000      -0.608022       -16.5451
  72   2.0000      -0.597225       -16.2513
  73   2.0000      -0.591017       -16.0824
  74   2.0000      -0.586475       -15.9588
  75   2.0000      -0.582997       -15.8642
  76   2.0000      -0.580540       -15.7973
  77   2.0000      -0.572591       -15.5810
  78   2.0000      -0.570446       -15.5226
  79   2.0000      -0.563051       -15.3214
  80   2.0000      -0.556513       -15.1435
  81   2.0000      -0.549299       -14.9472
  82   2.0000      -0.544600       -14.8193
  83   2.0000      -0.541177       -14.7262
  84   2.0000      -0.540415       -14.7054
  85   2.0000      -0.536623       -14.6023
  86   2.0000      -0.536265       -14.5925
  87   2.0000      -0.533431       -14.5154
  88   2.0000      -0.529990       -14.4218
  89   2.0000      -0.527108       -14.3433
  90   2.0000      -0.521635       -14.1944
  91   2.0000      -0.517180       -14.0732
  92   2.0000      -0.510435       -13.8896
  93   2.0000      -0.499921       -13.6035
  94   2.0000      -0.496097       -13.4995
  95   2.0000      -0.490658       -13.3515
  96   2.0000      -0.485705       -13.2167
  97   2.0000      -0.482832       -13.1385
  98   2.0000      -0.481672       -13.1070
  99   2.0000      -0.476769       -12.9735
 100   2.0000      -0.470820       -12.8117
 101   2.0000      -0.470236       -12.7958
 102   2.0000      -0.466536       -12.6951
 103   2.0000      -0.465411       -12.6645
 104   2.0000      -0.456593       -12.4245
 105   2.0000      -0.445959       -12.1352
 106   2.0000      -0.439914       -11.9707
 107   2.0000      -0.417412       -11.3584
 108   2.0000      -0.388792       -10.5796
 109   2.0000      -0.383138       -10.4257
 110   2.0000      -0.373208       -10.1555
 111   2.0000      -0.366876        -9.9832
 112   2.0000      -0.339756        -9.2452
 113   2.0000      -0.332633        -9.0514
 114   0.0000       0.075994         2.0679
 115   0.0000       0.122241         3.3263
 116   0.0000       0.128929         3.5083
 117   0.0000       0.135162         3.6779
 118   0.0000       0.141961         3.8630

MULLIKEN ATOMIC CHARGES
-----------------------
   0 C :    0.079399
   1 C :    0.175504
   2 C :   -0.223807
   3 C :    0.089604
   4 H :    0.198150
   5 C :   -0.234258
   6 C :    0.083571
   7 H :    0.146020
   8 C :   -0.242039
   9 C :    0.068304
  10 H :    0.168343
  11 C :    0.070176
  12 O :   -0.369296
  13 C :   -0.020535
  14 C :   -0.019182
  15 N :   -0.287137
  16 H :    0.111973
  17 C :   -0.061801
  18 N :   -0.290334
  19 H :    0.115626
  20 C :   -0.060581
  21 H :    0.105027
  22 C :   -0.310380
  23 C :   -0.340185
  24 H :    0.111157
  25 C :   -0.336970
  26 C :   -0.302376
  27 H :    0.095316
  28 H :    0.106137
  29 H :    0.114612
  30 H :    0.096867
  31 H :    0.103512
  32 H :    0.089698
  33 H :    0.103713
  34 H :    0.094305
  35 H :    0.098170
  36 H :    0.117102
  37 H :    0.088907
  38 H :    0.113886
  39 C :   -0.029568
  40 C :    0.008278
  41 N :   -0.300513
  42 H :    0.114369
  43 C :   -0.072568
  44 N :   -0.287417
  45 H :    0.111131
  46 C :   -0.058964
  47 H :    0.113839
  48 C :   -0.342526
  49 C :   -0.305984
  50 H :    0.099278
  51 C :   -0.298717
  52 C :   -0.339476
  53 H :    0.088092
  54 H :    0.101476
  55 H :    0.104853
  56 H :    0.088324
  57 H :    0.120399
  58 H :    0.110573
  59 H :    0.116542
  60 H :    0.094356
  61 H :    0.104066
  62 H :    0.098118
  63 H :    0.112958
  64 H :    0.087254
  65 H :    0.111240
  66 H :    0.099044
  67 H :    0.105532
  68 H :    0.111811
  69 H :    0.114498
  70 H :    0.090332
  71 H :    0.083173
Sum of atomic charges:   -0.0000000

LOEWDIN ATOMIC CHARGES
----------------------
   0 C :   -0.096496
   1 C :   -0.152561
   2 C :    0.084568
   3 C :   -0.046370
   4 H :   -0.018156
   5 C :    0.078929
   6 C :   -0.049645
   7 H :   -0.015385
   8 C :    0.061607
   9 C :   -0.161068
  10 H :   -0.026844
  11 C :   -0.161156
  12 O :    0.132816
  13 C :   -0.070887
  14 C :   -0.063204
  15 N :    0.329077
  16 H :   -0.031141
  17 C :   -0.030872
  18 N :    0.317632
  19 H :   -0.026079
  20 C :   -0.029147
  21 H :   -0.025920
  22 C :    0.115501
  23 C :    0.117122
  24 H :   -0.020139
  25 C :    0.116321
  26 C :    0.119255
  27 H :   -0.028088
  28 H :   -0.031749
  29 H :   -0.027160
  30 H :   -0.026488
  31 H :   -0.026991
  32 H :   -0.035703
  33 H :   -0.027715
  34 H :   -0.029773
  35 H :   -0.029399
  36 H :   -0.027435
  37 H :   -0.031669
  38 H :   -0.026400
  39 C :   -0.066601
  40 C :   -0.066493
  41 N :    0.326959
  42 H :   -0.030491
  43 C :   -0.030089
  44 N :    0.315286
  45 H :   -0.025971
  46 C :   -0.030235
  47 H :   -0.019479
  48 C :    0.114029
  49 C :    0.116524
  50 H :   -0.023774
  51 C :    0.119563
  52 C :    0.117583
  53 H :   -0.031847
  54 H :   -0.028157
  55 H :   -0.027579
  56 H :   -0.033604
  57 H :   -0.025596
  58 H :   -0.033051
  59 H :   -0.025630
  60 H :   -0.028917
  61 H :   -0.032452
  62 H :   -0.029759
  63 H :   -0.029485
  64 H :   -0.027719
  65 H :   -0.120823
  66 H :   -0.031662
  67 H :   -0.106089
  68 H :   -0.120193
  69 H :   -0.113509
  70 H :   -0.032888
  71 H :   -0.037038

  Mayer bond orders larger than 0.100000
B(  0-C ,  1-C ) :   0.9393 B(  0-C ,  2-C ) :   1.3142 B(  0-C ,  8-C ) :   1.3301
B(  1-C , 12-O ) :   2.0833 B(  1-C , 71-H ) :   1.0212 B(  2-C ,  3-C ) :   1.3388
B(  2-C ,  4-H ) :   0.9404 B(  3-C ,  5-C ) :   1.3755 B(  3-C , 11-C ) :   1.0281
B(  5-C ,  6-C ) :   1.4030 B(  5-C ,  7-H ) :   0.9700 B(  6-C ,  8-C ) :   1.3283
B(  6-C ,  9-C ) :   1.0476 B(  8-C , 10-H ) :   0.9503 B(  9-C , 41-N ) :   0.9911
B(  9-C , 44-N ) :   1.0260 B(  9-C , 66-H ) :   0.9814 B( 11-C , 15-N ) :   0.9946
B( 11-C , 18-N ) :   1.0175 B( 11-C , 70-H ) :   0.9901 B( 13-C , 14-C ) :   0.9531
B( 13-C , 15-N ) :   1.0244 B( 13-C , 16-H ) :   0.9731 B( 13-C , 17-C ) :   0.9625
B( 14-C , 18-N ) :   0.9988 B( 14-C , 19-H ) :   0.9897 B( 14-C , 20-C ) :   0.9526
B( 15-N , 68-H ) :   0.9936 B( 17-C , 21-H ) :   0.9738 B( 17-C , 22-C ) :   0.9589
B( 17-C , 23-C ) :   0.9420 B( 18-N , 69-H ) :   1.0017 B( 20-C , 24-H ) :   0.9805
B( 20-C , 25-C ) :   0.9412 B( 20-C , 26-C ) :   0.9620 B( 22-C , 30-H ) :   0.9784
B( 22-C , 31-H ) :   0.9865 B( 22-C , 32-H ) :   0.9855 B( 23-C , 27-H ) :   0.9781
B( 23-C , 28-H ) :   0.9838 B( 23-C , 29-H ) :   0.9859 B( 25-C , 36-H ) :   0.9834
B( 25-C , 37-H ) :   0.9791 B( 25-C , 38-H ) :   0.9815 B( 26-C , 33-H ) :   0.9753
B( 26-C , 34-H ) :   0.9868 B( 26-C , 35-H ) :   0.9876 B( 39-C , 40-C ) :   0.9629
B( 39-C , 41-N ) :   1.0284 B( 39-C , 42-H ) :   0.9865 B( 39-C , 43-C ) :   0.9402
B( 40-C , 44-N ) :   1.0012 B( 40-C , 45-H ) :   0.9662 B( 40-C , 46-C ) :   0.9724
B( 41-N , 65-H ) :   0.9922 B( 43-C , 47-H ) :   0.9756 B( 43-C , 48-C ) :   0.9412
B( 43-C , 49-C ) :   0.9599 B( 44-N , 67-H ) :   0.9863 B( 46-C , 50-H ) :   0.9750
B( 46-C , 51-C ) :   0.9669 B( 46-C , 52-C ) :   0.9458 B( 48-C , 56-H ) :   0.9771
B( 48-C , 57-H ) :   0.9838 B( 48-C , 58-H ) :   0.9837 B( 49-C , 53-H ) :   0.9786
B( 49-C , 54-H ) :   0.9858 B( 49-C , 55-H ) :   0.9862 B( 51-C , 62-H ) :   0.9876
B( 51-C , 63-H ) :   0.9788 B( 51-C , 64-H ) :   0.9796 B( 52-C , 59-H ) :   0.9863
B( 52-C , 60-H ) :   0.9788 B( 52-C , 61-H ) :   0.9837

MP2 TOTAL ENERGY:    -1269.519904828 Eh
FINAL SINGLE POINT ENERGY     -1269.519904828260

DIPOLE MOMENT
-------------
                                X             Y             Z
Electronic contribution:     -3.81467     -14.56917      12.44453
Nuclear contribution   :      4.84333      15.74640     -13.07163
                        -----------------------------------------
Total Dipole Moment    :      1.02867       1.17722      -0.62710
                        -----------------------------------------
Magnitude (a.u.)       :      1.68442
Magnitude (Debye)      :      4.28145

Rotational constants in cm-1:     0.008182     0.001969     0.001912
Rotational constants in MHz :   245.293688    59.024894    57.312743

                             ****ORCA TERMINATED NORMALLY****
TOTAL RUN TIME: 0 days 0 hours 31 minutes 48 seconds 826 msec
