                         Program Version 4.2.1 -  RELEASE  -
|  1> ! DFT COPT B97-3c TightSCF printbasis  Grid6 NOFINALGRID SlowConv
|  2>
|  3> %base "_o_1_alde1_3_ami2_1_opt_B97-3c"
|  4> %maxcore 3000
|  5> %scf
|  6>    MaxIter 2000
|  7> end
|  8> %pal
|  9>    nprocs 32
| 10> end
| 11>
| 12> * xyzfile 0 1 o_1_alde1_3_ami2_1_opt.xyz
| 13> # * xyzfile 0 1 _o_1_alde1_3_ami2_1_opt_B97-3c.xyz
| 14>
| 15>                          ****END OF INPUT****
 Total Charge           Charge          ....    0
 Multiplicity           Mult            ....    1
 Number of Electrons    NEL             ....  204
Dispersion correction           -0.169756222
FINAL SINGLE POINT ENERGY     -1149.854921017613
Dispersion correction            ... done
Dispersion correction           -0.169776667
FINAL SINGLE POINT ENERGY     -1149.855652806894
Dispersion correction            ... done
Dispersion correction           -0.169795819
FINAL SINGLE POINT ENERGY     -1149.855925151164
Dispersion correction            ... done
FINAL SINGLE POINT ENERGY     -1149.856086303759
FINAL SINGLE POINT ENERGY     -1149.856308687739
FINAL SINGLE POINT ENERGY     -1149.856421010948
FINAL SINGLE POINT ENERGY     -1149.856508660063
FINAL SINGLE POINT ENERGY     -1149.856592890394
FINAL SINGLE POINT ENERGY     -1149.856690430268
FINAL SINGLE POINT ENERGY     -1149.856776938349
FINAL SINGLE POINT ENERGY     -1149.857854912303
FINAL SINGLE POINT ENERGY     -1149.857860284511
FINAL SINGLE POINT ENERGY     -1149.857864836619
FINAL SINGLE POINT ENERGY     -1149.857868940750
FINAL SINGLE POINT ENERGY     -1149.857872185366
FINAL SINGLE POINT ENERGY     -1149.857876013530
FINAL SINGLE POINT ENERGY     -1149.857879608365
Dispersion correction            ... done
Dispersion correction           -0.169001373
FINAL SINGLE POINT ENERGY     -1149.857883064966
Dispersion correction            ... done
Dispersion correction           -0.169001276
FINAL SINGLE POINT ENERGY     -1149.857885739338
Dispersion correction            ... done
                    ***********************HURRAY********************

CARTESIAN COORDINATES (ANGSTROEM)
---------------------------------
  C     -1.784823    1.115982   -0.963435
  C     -2.173691    0.350540    0.269122
  C     -2.750869    1.581853   -1.844457
  C     -2.385669    2.243620   -3.010577
  H     -3.802473    1.454211   -1.623602
  C     -1.037474    2.439390   -3.284604
  C     -0.059774    1.978544   -2.412074
  H     -0.746077    2.961249   -4.189234
  C     -0.443428    1.317915   -1.254642
  C      1.397183    2.245642   -2.669432
  H      0.312185    0.962301   -0.569406
  C     -3.429367    2.683768   -3.999545
  C     -1.853119   -1.592986    1.445100
  C     -1.106931   -0.505741    2.250963
  N     -1.978613   -1.083075    0.087074
  N     -1.362701    0.712512    1.450299
  C     -5.810666    2.794303   -4.283876
  C     -5.095487    2.031722   -5.426275
  N     -4.690203    3.108442   -3.368089
  N     -3.806296    1.600891   -4.900717
  C      3.519305    1.597270   -1.730856
  C      3.321724    3.129127   -1.780644
  N      2.260000    1.096448   -2.325695
  N      1.885307    3.355816   -1.858770
  H      2.438480    0.526458   -3.140545
  H      1.522934    2.525812   -3.723613
  H      1.472080    3.278279   -0.936426
  H     -3.241382    0.515749    0.463180
  H     -1.110351   -1.222796   -0.417287
  H     -4.667665    4.091199   -3.132284
  H     -3.923976    0.760653   -4.344528
  H     -3.004741    3.485068   -4.621124
  H     -4.919907    2.704770   -6.268198
  H     -5.668494    1.183953   -5.794867
  H      3.789929    3.533519   -2.681089
  H      3.750929    3.644897   -0.924112
  C      0.393669   -0.780116    2.277579
  H      0.776333   -0.921821    1.267451
  H      0.627171   -1.671486    2.862114
  H      0.927451    0.064960    2.709729
  H     -1.828347    1.421427    1.999248
  C     -1.646930   -0.371946    3.665496
  C     -6.500654    4.051538   -4.791797
  H     -7.290021    3.806515   -5.502336
  H     -5.791092    4.709190   -5.294642
  H     -6.960112    4.607802   -3.974082
  C     -6.805661    1.893782   -3.560133
  H     -6.321835    0.970321   -3.243813
  H     -7.652357    1.638500   -4.198767
  H     -7.186238    2.385262   -2.665848
  C      4.734241    1.154492   -2.529910
  H      4.668326    1.501322   -3.561673
  H      4.826107    0.068007   -2.539793
  H      5.652015    1.555907   -2.100526
  C      3.621242    1.105374   -0.289964
  H      3.603661    0.017082   -0.257873
  H      2.776085    1.459830    0.299008
  H      4.540327    1.449508    0.186885
  H     -1.481293   -1.285515    4.236328
  H     -2.719214   -0.173979    3.655045
  H     -1.154803    0.441111    4.200189
  H     -1.348309   -2.556705    1.455288
  H     -2.854298   -1.737500    1.857482

 Multiplicity           Mult            ....    1
 Number of Electrons    NEL             ....  204
 Basis Dimension        Dim             ....  621

ORBITAL ENERGIES
----------------

  NO   OCC          E(Eh)            E(eV)
   0   2.0000     -13.971737      -380.1903
   1   2.0000     -13.971494      -380.1837
   2   2.0000     -13.971285      -380.1780
   3   2.0000     -13.963670      -379.9708
   4   2.0000     -13.962820      -379.9476
   5   2.0000     -13.962672      -379.9436
   6   2.0000      -9.938497      -270.4403
   7   2.0000      -9.938117      -270.4299
   8   2.0000      -9.937238      -270.4060
   9   2.0000      -9.920874      -269.9607
  10   2.0000      -9.920392      -269.9476
  11   2.0000      -9.920222      -269.9430
  12   2.0000      -9.906520      -269.5701
  13   2.0000      -9.906124      -269.5593
  14   2.0000      -9.905965      -269.5550
  15   2.0000      -9.887983      -269.0657
  16   2.0000      -9.887156      -269.0432
  17   2.0000      -9.886472      -269.0246
  18   2.0000      -9.883156      -268.9344
  19   2.0000      -9.881507      -268.8895
  20   2.0000      -9.881426      -268.8873
  21   2.0000      -9.881264      -268.8829
  22   2.0000      -9.879547      -268.8361
  23   2.0000      -9.877256      -268.7738
  24   2.0000      -9.871288      -268.6114
  25   2.0000      -9.870895      -268.6007
  26   2.0000      -9.870872      -268.6001
  27   2.0000      -0.881408       -23.9843
  28   2.0000      -0.880370       -23.9561
  29   2.0000      -0.879742       -23.9390
  30   2.0000      -0.784219       -21.3397
  31   2.0000      -0.778880       -21.1944
  32   2.0000      -0.778668       -21.1886
  33   2.0000      -0.777044       -21.1445
  34   2.0000      -0.725060       -19.7299
  35   2.0000      -0.724326       -19.7099
  36   2.0000      -0.708632       -19.2829
  37   2.0000      -0.678111       -18.4523
  38   2.0000      -0.674857       -18.3638
  39   2.0000      -0.626231       -17.0406
  40   2.0000      -0.626038       -17.0354
  41   2.0000      -0.625505       -17.0209
  42   2.0000      -0.616030       -16.7630
  43   2.0000      -0.610937       -16.6244
  44   2.0000      -0.610237       -16.6054
  45   2.0000      -0.576438       -15.6857
  46   2.0000      -0.568238       -15.4626
  47   2.0000      -0.561662       -15.2836
  48   2.0000      -0.521672       -14.1954
  49   2.0000      -0.510776       -13.8989
  50   2.0000      -0.507946       -13.8219
  51   2.0000      -0.507606       -13.8127
  52   2.0000      -0.507361       -13.8060
  53   2.0000      -0.472490       -12.8571
  54   2.0000      -0.459356       -12.4997
  55   2.0000      -0.447798       -12.1852
  56   2.0000      -0.442429       -12.0391
  57   2.0000      -0.436236       -11.8706
  58   2.0000      -0.433096       -11.7851
  59   2.0000      -0.430113       -11.7040
  60   2.0000      -0.408299       -11.1104
  61   2.0000      -0.398855       -10.8534
  62   2.0000      -0.398023       -10.8307
  63   2.0000      -0.396282       -10.7834
  64   2.0000      -0.395411       -10.7597
  65   2.0000      -0.389587       -10.6012
  66   2.0000      -0.388919       -10.5830
  67   2.0000      -0.378028       -10.2867
  68   2.0000      -0.375642       -10.2217
  69   2.0000      -0.364879        -9.9289
  70   2.0000      -0.361029        -9.8241
  71   2.0000      -0.359574        -9.7845
  72   2.0000      -0.358926        -9.7669
  73   2.0000      -0.349748        -9.5171
  74   2.0000      -0.348094        -9.4721
  75   2.0000      -0.346788        -9.4366
  76   2.0000      -0.343720        -9.3531
  77   2.0000      -0.339926        -9.2499
  78   2.0000      -0.338291        -9.2054
  79   2.0000      -0.321765        -8.7557
  80   2.0000      -0.321440        -8.7468
  81   2.0000      -0.321164        -8.7393
  82   2.0000      -0.318414        -8.6645
  83   2.0000      -0.315696        -8.5905
  84   2.0000      -0.313717        -8.5367
  85   2.0000      -0.312283        -8.4976
  86   2.0000      -0.308716        -8.4006
  87   2.0000      -0.306391        -8.3373
  88   2.0000      -0.301001        -8.1906
  89   2.0000      -0.293900        -7.9974
  90   2.0000      -0.293592        -7.9891
  91   2.0000      -0.292352        -7.9553
  92   2.0000      -0.286791        -7.8040
  93   2.0000      -0.282851        -7.6968
  94   2.0000      -0.218265        -5.9393
  95   2.0000      -0.216327        -5.8866
  96   2.0000      -0.196560        -5.3487
  97   2.0000      -0.195495        -5.3197
  98   2.0000      -0.194015        -5.2794
  99   2.0000      -0.181183        -4.9303
 100   2.0000      -0.179391        -4.8815
 101   2.0000      -0.177460        -4.8289
 102   0.0000      -0.031174        -0.8483
 103   0.0000      -0.027938        -0.7602
 104   0.0000       0.016258         0.4424
 105   0.0000       0.020996         0.5713
 106   0.0000       0.024851         0.6762

MULLIKEN ATOMIC CHARGES
-----------------------
   0 C :    0.581126
   1 C :   -0.811077
   2 C :   -0.243724
   3 C :    0.350227
   4 H :    0.183679
   5 C :   -0.283152
   6 C :    0.464170
   7 H :    0.180757
   8 C :   -0.126690
   9 C :   -0.776715
  10 H :    0.195891
  11 C :   -0.707514
  12 C :   -0.289145
  13 C :    0.020394
  14 N :   -0.258416
  15 N :   -0.254455
  16 C :    0.031789
  17 C :   -0.309658
  18 N :   -0.260985
  19 N :   -0.255486
  20 C :    0.016786
  21 C :   -0.290977
  22 N :   -0.257353
  23 N :   -0.260249
  24 H :    0.302378
  25 H :    0.163054
  26 H :    0.306352
  27 H :    0.168641
  28 H :    0.306668
  29 H :    0.300631
  30 H :    0.304598
  31 H :    0.160234
  32 H :    0.158912
  33 H :    0.193305
  34 H :    0.156318
  35 H :    0.190462
  36 C :   -0.458063
  37 H :    0.162980
  38 H :    0.153973
  39 H :    0.158466
  40 H :    0.301135
  41 C :   -0.533736
  42 C :   -0.549033
  43 H :    0.169674
  44 H :    0.174240
  45 H :    0.175210
  46 C :   -0.443297
  47 H :    0.159528
  48 H :    0.153559
  49 H :    0.157877
  50 C :   -0.533199
  51 H :    0.171586
  52 H :    0.176956
  53 H :    0.168922
  54 C :   -0.456574
  55 H :    0.158534
  56 H :    0.163012
  57 H :    0.154083
  58 H :    0.168961
  59 H :    0.171413
  60 H :    0.176754
  61 H :    0.190653
  62 H :    0.155609
Sum of atomic charges:   -0.0000000

LOEWDIN ATOMIC CHARGES
----------------------
   0 C :   -0.073635
   1 C :   -0.029512
   2 C :   -0.144140
   3 C :   -0.074704
   4 H :    0.177769
   5 C :   -0.137637
   6 C :   -0.073367
   7 H :    0.168864
   8 C :   -0.143142
   9 C :   -0.028595
  10 H :    0.181479
  11 C :   -0.029589
  12 C :   -0.199128
  13 C :   -0.108322
  14 N :   -0.350633
  15 N :   -0.355421
  16 C :   -0.108118
  17 C :   -0.199189
  18 N :   -0.353731
  19 N :   -0.349237
  20 C :   -0.107989
  21 C :   -0.199008
  22 N :   -0.355293
  23 N :   -0.350805
  24 H :    0.266684
  25 H :    0.142553
  26 H :    0.269127
  27 H :    0.143162
  28 H :    0.269049
  29 H :    0.266720
  30 H :    0.268565
  31 H :    0.141996
  32 H :    0.153417
  33 H :    0.159782
  34 H :    0.152574
  35 H :    0.159227
  36 C :   -0.418608
  37 H :    0.152257
  38 H :    0.150073
  39 H :    0.156355
  40 H :    0.266214
  41 C :   -0.420144
  42 C :   -0.421461
  43 H :    0.160408
  44 H :    0.153922
  45 H :    0.156134
  46 C :   -0.417604
  47 H :    0.152350
  48 H :    0.150186
  49 H :    0.155927
  50 C :   -0.420102
  51 H :    0.153395
  52 H :    0.157124
  53 H :    0.160805
  54 C :   -0.418764
  55 H :    0.156477
  56 H :    0.152301
  57 H :    0.150070
  58 H :    0.160770
  59 H :    0.153279
  60 H :    0.157035
  61 H :    0.159218
  62 H :    0.152613

  Mayer bond orders larger than 0.100000
B(  0-C ,  1-C ) :   0.4902 B(  0-C ,  2-C ) :   1.2300 B(  0-C ,  3-C ) :   0.1057
B(  0-C ,  6-C ) :   0.1499 B(  0-C ,  8-C ) :   1.1911 B(  0-C , 14-N ) :  -0.1238
B(  1-C , 14-N ) :   1.2066 B(  1-C , 15-N ) :   1.0897 B(  1-C , 27-H ) :   0.9834
B(  2-C ,  3-C ) :   1.3546 B(  2-C ,  4-H ) :   0.9138 B(  3-C ,  5-C ) :   1.3690
B(  3-C , 11-C ) :   0.6097 B(  3-C , 19-N ) :  -0.1282 B(  5-C ,  6-C ) :   1.3611
B(  5-C ,  7-H ) :   0.8867 B(  6-C ,  8-C ) :   1.2122 B(  6-C ,  9-C ) :   0.5150
B(  6-C , 23-N ) :  -0.1218 B(  8-C , 10-H ) :   0.9607 B(  9-C , 22-N ) :   1.0739
B(  9-C , 23-N ) :   1.2181 B(  9-C , 25-H ) :   0.9795 B( 11-C , 18-N ) :   1.0006
B( 11-C , 19-N ) :   1.2177 B( 11-C , 31-H ) :   0.9616 B( 12-C , 13-C ) :   0.8864
B( 12-C , 14-N ) :   1.0085 B( 12-C , 61-H ) :   0.9503 B( 12-C , 62-H ) :   0.9329
B( 13-C , 15-N ) :   1.0759 B( 13-C , 36-C ) :   0.9704 B( 13-C , 41-C ) :   0.9992
B( 14-N , 28-H ) :   0.8492 B( 15-N , 36-C ) :  -0.1386 B( 15-N , 40-H ) :   0.8679
B( 16-C , 17-C ) :   0.8838 B( 16-C , 18-N ) :   1.0777 B( 16-C , 42-C ) :   1.0060
B( 16-C , 46-C ) :   0.9617 B( 17-C , 19-N ) :   1.0214 B( 17-C , 32-H ) :   0.9352
B( 17-C , 33-H ) :   0.9511 B( 18-N , 29-H ) :   0.8645 B( 18-N , 46-C ) :  -0.1406
B( 19-N , 30-H ) :   0.8433 B( 20-C , 21-C ) :   0.8876 B( 20-C , 22-N ) :   1.0786
B( 20-C , 50-C ) :   0.9997 B( 20-C , 54-C ) :   0.9699 B( 21-C , 23-N ) :   1.0105
B( 21-C , 34-H ) :   0.9335 B( 21-C , 35-H ) :   0.9509 B( 22-N , 24-H ) :   0.8672
B( 22-N , 54-C ) :  -0.1394 B( 23-N , 26-H ) :   0.8488 B( 36-C , 37-H ) :   0.9534
B( 36-C , 38-H ) :   0.9529 B( 36-C , 39-H ) :   0.9540 B( 41-C , 58-H ) :   0.9563
B( 41-C , 59-H ) :   0.9509 B( 41-C , 60-H ) :   0.9601 B( 42-C , 43-H ) :   0.9561
B( 42-C , 44-H ) :   0.9536 B( 42-C , 45-H ) :   0.9585 B( 46-C , 47-H ) :   0.9541
B( 46-C , 48-H ) :   0.9532 B( 46-C , 49-H ) :   0.9544 B( 50-C , 51-H ) :   0.9506
B( 50-C , 52-H ) :   0.9601 B( 50-C , 53-H ) :   0.9562 B( 54-C , 55-H ) :   0.9540
B( 54-C , 56-H ) :   0.9527 B( 54-C , 57-H ) :   0.9528

Dispersion correction           -0.169003960
FINAL SINGLE POINT ENERGY     -1149.857888079784

DIPOLE MOMENT
-------------
                                X             Y             Z
Electronic contribution:     -2.35736       3.63501      -7.64257
Nuclear contribution   :      2.40854      -3.55543       8.01841
                        -----------------------------------------
Total Dipole Moment    :      0.05118       0.07958       0.37584
                        -----------------------------------------
Magnitude (a.u.)       :      0.38756
Magnitude (Debye)      :      0.98510

Rotational constants in cm-1:     0.007212     0.003660     0.002614
Rotational constants in MHz :   216.196044   109.722261    78.351402

                             ****ORCA TERMINATED NORMALLY****
TOTAL RUN TIME: 0 days 0 hours 37 minutes 2 seconds 66 msec
