                         Program Version 4.2.1 -  RELEASE  -
|  1> ! DFT COPT B97-3c TightSCF printbasis  Grid6 NOFINALGRID SlowConv
|  2>
|  3> %base "_o_1_alde1_2_ami2_2_opt_B97-3c"
|  4> %maxcore 3000
|  5> %scf
|  6>    MaxIter 2000
|  7> end
|  8> %pal
|  9>    nprocs 32
| 10> end
| 11>
| 12> * xyzfile 0 1 o_1_alde1_2_ami2_2_opt.xyz
| 13> # * xyzfile 0 1 _o_1_alde1_2_ami2_2_opt_B97-3c.xyz
| 14>
| 15>                          ****END OF INPUT****
 Total Charge           Charge          ....    0
 Multiplicity           Mult            ....    1
 Number of Electrons    NEL             ....  164
Dispersion correction           -0.120500082
FINAL SINGLE POINT ENERGY      -957.224658360222
Dispersion correction            ... done
Dispersion correction           -0.120499294
FINAL SINGLE POINT ENERGY      -957.225402335390
Dispersion correction            ... done
Dispersion correction           -0.120501555
FINAL SINGLE POINT ENERGY      -957.225707110502
Dispersion correction            ... done
FINAL SINGLE POINT ENERGY      -957.225901842930
FINAL SINGLE POINT ENERGY      -957.226065825117
FINAL SINGLE POINT ENERGY      -957.226165004215
FINAL SINGLE POINT ENERGY      -957.226217800572
FINAL SINGLE POINT ENERGY      -957.226259890509
FINAL SINGLE POINT ENERGY      -957.226316146863
FINAL SINGLE POINT ENERGY      -957.226384888521
FINAL SINGLE POINT ENERGY      -957.227704312819
FINAL SINGLE POINT ENERGY      -957.227709534091
FINAL SINGLE POINT ENERGY      -957.227715353640
FINAL SINGLE POINT ENERGY      -957.227720567792
FINAL SINGLE POINT ENERGY      -957.227724902471
FINAL SINGLE POINT ENERGY      -957.227729182127
FINAL SINGLE POINT ENERGY      -957.227733625234
Dispersion correction            ... done
Dispersion correction           -0.119584777
FINAL SINGLE POINT ENERGY      -957.227737164482
Dispersion correction            ... done
Dispersion correction           -0.119581239
FINAL SINGLE POINT ENERGY      -957.227739798064
Dispersion correction            ... done
                    ***********************HURRAY********************

CARTESIAN COORDINATES (ANGSTROEM)
---------------------------------
  C     -2.089695    1.400626    0.375504
  C     -2.753191    0.648832    1.453875
  C     -2.861301    2.007598   -0.602693
  C     -2.254743    2.731383   -1.634251
  H     -3.940896    1.932101   -0.581269
  C     -0.870589    2.826328   -1.664488
  C     -0.077781    2.211058   -0.688278
  H     -0.376951    3.378902   -2.452851
  C     -0.696321    1.505134    0.332598
  C      1.381971    2.293735   -0.734122
  H     -0.115230    1.019203    1.106089
  C     -3.046588    3.383326   -2.676749
  O     -2.178657    0.076798    2.357385
  C     -5.004905    3.920753   -3.829158
  C     -5.839648    2.912322   -4.657758
  N     -4.307301    3.266388   -2.754862
  N     -6.792178    2.164340   -3.835268
  C      4.032133    2.187734   -2.948689
  C      3.446368    2.849891   -1.675413
  N      3.538910    2.807547   -4.180088
  N      2.007473    2.840594   -1.693230
  H     -3.861259    0.635361    1.387510
  H      3.840306    3.775490   -4.211008
  H      2.526621    2.837473   -4.137513
  H     -7.465781    2.807588   -3.433685
  H     -6.290887    1.766698   -3.049101
  H     -2.474841    3.984300   -3.398041
  H      1.908430    1.841104    0.118062
  C     -4.910319    1.911971   -5.332680
  C      5.545394    2.338123   -2.913552
  H      3.771503    3.893987   -1.667556
  H      3.861013    2.364377   -0.780075
  H      5.981972    1.887761   -3.802036
  H      5.972094    1.855327   -2.036042
  H      5.835742    3.389515   -2.890818
  H     -5.700564    4.637552   -3.384289
  H     -4.329524    4.479127   -4.493482
  H     -4.179316    2.418795   -5.962634
  H     -5.487428    1.228259   -5.950592
  H     -4.365776    1.322422   -4.596676
  C     -6.620926    3.689701   -5.705780
  H     -7.289948    4.414849   -5.239898
  H     -7.224910    3.007176   -6.299268
  H     -5.954168    4.232237   -6.373990
  C      3.652793    0.713085   -2.977865
  H      2.572829    0.586308   -3.037783
  H      4.000701    0.200429   -2.081081
  H      4.096761    0.233873   -3.847111

 Multiplicity           Mult            ....    1
 Number of Electrons    NEL             ....  164
 Basis Dimension        Dim             ....  501

ORBITAL ENERGIES
----------------

  NO   OCC          E(Eh)            E(eV)
   0   2.0000     -18.747117      -510.1350
   1   2.0000     -13.995335      -380.8324
   2   2.0000     -13.995155      -380.8275
   3   2.0000     -13.962623      -379.9423
   4   2.0000     -13.962265      -379.9325
   5   2.0000      -9.983771      -271.6722
   6   2.0000      -9.947790      -270.6931
   7   2.0000      -9.947581      -270.6875
   8   2.0000      -9.929587      -270.1978
   9   2.0000      -9.929429      -270.1935
  10   2.0000      -9.927384      -270.1379
  11   2.0000      -9.927299      -270.1355
  12   2.0000      -9.925198      -270.0784
  13   2.0000      -9.924327      -270.0547
  14   2.0000      -9.924097      -270.0484
  15   2.0000      -9.923241      -270.0251
  16   2.0000      -9.920645      -269.9545
  17   2.0000      -9.920596      -269.9531
  18   2.0000      -9.881768      -268.8966
  19   2.0000      -9.881755      -268.8962
  20   2.0000      -9.876303      -268.7479
  21   2.0000      -9.876242      -268.7462
  22   2.0000      -0.970603       -26.4114
  23   2.0000      -0.871598       -23.7174
  24   2.0000      -0.869543       -23.6615
  25   2.0000      -0.825208       -22.4551
  26   2.0000      -0.819886       -22.3102
  27   2.0000      -0.811969       -22.0948
  28   2.0000      -0.733592       -19.9621
  29   2.0000      -0.730910       -19.8891
  30   2.0000      -0.700671       -19.0662
  31   2.0000      -0.698474       -19.0064
  32   2.0000      -0.649111       -17.6632
  33   2.0000      -0.646103       -17.5814
  34   2.0000      -0.630398       -17.1540
  35   2.0000      -0.630352       -17.1527
  36   2.0000      -0.611318       -16.6348
  37   2.0000      -0.592543       -16.1239
  38   2.0000      -0.572316       -15.5735
  39   2.0000      -0.513061       -13.9611
  40   2.0000      -0.510891       -13.9021
  41   2.0000      -0.503049       -13.6887
  42   2.0000      -0.499192       -13.5837
  43   2.0000      -0.483444       -13.1552
  44   2.0000      -0.467662       -12.7257
  45   2.0000      -0.448500       -12.2043
  46   2.0000      -0.444887       -12.1060
  47   2.0000      -0.440940       -11.9986
  48   2.0000      -0.440600       -11.9893
  49   2.0000      -0.427473       -11.6321
  50   2.0000      -0.423218       -11.5164
  51   2.0000      -0.417155       -11.3514
  52   2.0000      -0.412206       -11.2167
  53   2.0000      -0.405160       -11.0250
  54   2.0000      -0.396522       -10.7899
  55   2.0000      -0.395215       -10.7544
  56   2.0000      -0.386752       -10.5241
  57   2.0000      -0.385508       -10.4902
  58   2.0000      -0.373615       -10.1666
  59   2.0000      -0.372385       -10.1331
  60   2.0000      -0.355341        -9.6693
  61   2.0000      -0.345612        -9.4046
  62   2.0000      -0.343202        -9.3390
  63   2.0000      -0.339774        -9.2457
  64   2.0000      -0.339719        -9.2442
  65   2.0000      -0.336835        -9.1658
  66   2.0000      -0.333521        -9.0756
  67   2.0000      -0.326007        -8.8711
  68   2.0000      -0.324581        -8.8323
  69   2.0000      -0.322470        -8.7748
  70   2.0000      -0.315965        -8.5978
  71   2.0000      -0.302948        -8.2436
  72   2.0000      -0.299439        -8.1481
  73   2.0000      -0.296865        -8.0781
  74   2.0000      -0.283518        -7.7149
  75   2.0000      -0.246637        -6.7113
  76   2.0000      -0.237401        -6.4600
  77   2.0000      -0.233246        -6.3470
  78   2.0000      -0.230858        -6.2820
  79   2.0000      -0.222683        -6.0595
  80   2.0000      -0.199514        -5.4291
  81   2.0000      -0.198994        -5.4149
  82   0.0000      -0.108930        -2.9641
  83   0.0000      -0.100588        -2.7371
  84   0.0000      -0.071595        -1.9482
  85   0.0000       0.008425         0.2292
  86   0.0000       0.009672         0.2632

MULLIKEN ATOMIC CHARGES
-----------------------
   0 C :    0.205576
   1 C :   -0.146517
   2 C :   -0.149419
   3 C :    0.251716
   4 H :    0.222540
   5 C :   -0.199976
   6 C :    0.269277
   7 H :    0.216564
   8 C :   -0.167351
   9 C :   -0.364525
  10 H :    0.228537
  11 C :   -0.374645
  12 O :   -0.308583
  13 C :   -0.291750
  14 C :   -0.081146
  15 N :   -0.037979
  16 N :   -0.586914
  17 C :   -0.080690
  18 C :   -0.293923
  19 N :   -0.587520
  20 N :   -0.042399
  21 H :    0.112128
  22 H :    0.297288
  23 H :    0.308173
  24 H :    0.297817
  25 H :    0.308795
  26 H :    0.113840
  27 H :    0.117334
  28 C :   -0.468720
  29 C :   -0.468548
  30 H :    0.174226
  31 H :    0.129731
  32 H :    0.192068
  33 H :    0.160712
  34 H :    0.156967
  35 H :    0.174588
  36 H :    0.128092
  37 H :    0.151855
  38 H :    0.183034
  39 H :    0.171175
  40 C :   -0.468779
  41 H :    0.157112
  42 H :    0.192296
  43 H :    0.160221
  44 C :   -0.468660
  45 H :    0.170732
  46 H :    0.152927
  47 H :    0.182723
Sum of atomic charges:   -0.0000000

LOEWDIN ATOMIC CHARGES
----------------------
   0 C :   -0.067167
   1 C :    0.212811
   2 C :   -0.094675
   3 C :   -0.079682
   4 H :    0.185188
   5 C :   -0.095820
   6 C :   -0.078010
   7 H :    0.183793
   8 C :   -0.084126
   9 C :   -0.036647
  10 H :    0.192870
  11 C :   -0.037350
  12 O :   -0.462786
  13 C :   -0.213380
  14 C :   -0.116507
  15 N :   -0.192413
  16 N :   -0.503225
  17 C :   -0.116361
  18 C :   -0.213317
  19 N :   -0.503533
  20 N :   -0.193759
  21 H :    0.153933
  22 H :    0.255860
  23 H :    0.259283
  24 H :    0.256078
  25 H :    0.259718
  26 H :    0.142173
  27 H :    0.143566
  28 C :   -0.417816
  29 C :   -0.415695
  30 H :    0.158357
  31 H :    0.141475
  32 H :    0.166550
  33 H :    0.158272
  34 H :    0.152092
  35 H :    0.158610
  36 H :    0.140887
  37 H :    0.155027
  38 H :    0.164956
  39 H :    0.158596
  40 C :   -0.415642
  41 H :    0.152207
  42 H :    0.166598
  43 H :    0.158058
  44 C :   -0.417763
  45 H :    0.158481
  46 H :    0.155402
  47 H :    0.164833

  Mayer bond orders larger than 0.100000
B(  0-C ,  1-C ) :   0.8951 B(  0-C ,  2-C ) :   1.2001 B(  0-C ,  3-C ) :   0.1142
B(  0-C ,  6-C ) :   0.1075 B(  0-C ,  8-C ) :   1.2740 B(  0-C , 12-O ) :  -0.1605
B(  1-C , 12-O ) :   2.0725 B(  1-C , 21-H ) :   0.9571 B(  2-C ,  3-C ) :   1.3799
B(  2-C ,  4-H ) :   0.8727 B(  3-C ,  5-C ) :   1.1622 B(  3-C ,  6-C ) :   0.1340
B(  3-C , 11-C ) :   0.9522 B(  3-C , 15-N ) :  -0.2261 B(  5-C ,  6-C ) :   1.3495
B(  5-C ,  7-H ) :   0.8952 B(  5-C , 11-C ) :   0.1008 B(  6-C ,  8-C ) :   1.1538
B(  6-C ,  9-C ) :   0.9741 B(  6-C , 20-N ) :  -0.2253 B(  8-C , 10-H ) :   0.9004
B(  9-C , 20-N ) :   2.0106 B(  9-C , 27-H ) :   0.9006 B( 11-C , 15-N ) :   2.0130
B( 11-C , 26-H ) :   0.9073 B( 13-C , 14-C ) :   0.8905 B( 13-C , 15-N ) :   0.9734
B( 13-C , 35-H ) :   0.9344 B( 13-C , 36-H ) :   0.9221 B( 14-C , 16-N ) :   1.0142
B( 14-C , 28-C ) :   0.9720 B( 14-C , 40-C ) :   1.0145 B( 16-N , 24-H ) :   0.8680
B( 16-N , 25-H ) :   0.8597 B( 17-C , 18-C ) :   0.8899 B( 17-C , 19-N ) :   1.0132
B( 17-C , 29-C ) :   1.0143 B( 17-C , 44-C ) :   0.9727 B( 18-C , 20-N ) :   0.9729
B( 18-C , 30-H ) :   0.9348 B( 18-C , 31-H ) :   0.9229 B( 19-N , 22-H ) :   0.8684
B( 19-N , 23-H ) :   0.8599 B( 28-C , 37-H ) :   0.9610 B( 28-C , 38-H ) :   0.9512
B( 28-C , 39-H ) :   0.9505 B( 29-C , 32-H ) :   0.9571 B( 29-C , 33-H ) :   0.9576
B( 29-C , 34-H ) :   0.9422 B( 40-C , 41-H ) :   0.9421 B( 40-C , 42-H ) :   0.9571
B( 40-C , 43-H ) :   0.9576 B( 44-C , 45-H ) :   0.9505 B( 44-C , 46-H ) :   0.9611
B( 44-C , 47-H ) :   0.9512

Dispersion correction           -0.119578901
FINAL SINGLE POINT ENERGY      -957.227741732125

DIPOLE MOMENT
-------------
                                X             Y             Z
Electronic contribution:     -5.92984      -2.75363      23.35246
Nuclear contribution   :      6.28615       4.01597     -23.64501
                        -----------------------------------------
Total Dipole Moment    :      0.35631       1.26234      -0.29255
                        -----------------------------------------
Magnitude (a.u.)       :      1.34389
Magnitude (Debye)      :      3.41590

Rotational constants in cm-1:     0.010601     0.003761     0.002941
Rotational constants in MHz :   317.815584   112.757391    88.183584

                             ****ORCA TERMINATED NORMALLY****
TOTAL RUN TIME: 0 days 0 hours 35 minutes 43 seconds 297 msec
