                         Program Version 4.2.1 -  RELEASE  -
|  1> ! DFT COPT B97-3c TightSCF printbasis  Grid6 NOFINALGRID SlowConv
|  2>
|  3> %base "_o_1_alde1_2_ami4_1_opt_B97-3c"
|  4> %maxcore 3000
|  5> %scf
|  6>    MaxIter 2000
|  7> end
|  8> %pal
|  9>    nprocs 32
| 10> end
| 11>
| 12> * xyzfile 0 1 o_1_alde1_2_ami4_1_opt.xyz
| 13> # * xyzfile 0 1 _o_1_alde1_2_ami4_1_opt_B97-3c.xyz
| 14>
| 15>                          ****END OF INPUT****
 Total Charge           Charge          ....    0
 Multiplicity           Mult            ....    1
 Number of Electrons    NEL             ....  132
Dispersion correction           -0.094401739
FINAL SINGLE POINT ENERGY      -800.032406976601
Dispersion correction            ... done
Dispersion correction           -0.094398689
FINAL SINGLE POINT ENERGY      -800.032863406803
Dispersion correction            ... done
Dispersion correction           -0.094400452
FINAL SINGLE POINT ENERGY      -800.033057202283
Dispersion correction            ... done
FINAL SINGLE POINT ENERGY      -800.033238956607
FINAL SINGLE POINT ENERGY      -800.033350198590
FINAL SINGLE POINT ENERGY      -800.033477451149
FINAL SINGLE POINT ENERGY      -800.033565027891
FINAL SINGLE POINT ENERGY      -800.033641096146
FINAL SINGLE POINT ENERGY      -800.033708217790
FINAL SINGLE POINT ENERGY      -800.033770703924
FINAL SINGLE POINT ENERGY      -800.034251919271
FINAL SINGLE POINT ENERGY      -800.034255549467
FINAL SINGLE POINT ENERGY      -800.034259652787
FINAL SINGLE POINT ENERGY      -800.034264409637
FINAL SINGLE POINT ENERGY      -800.034268956229
FINAL SINGLE POINT ENERGY      -800.034273145778
FINAL SINGLE POINT ENERGY      -800.034276405801
Dispersion correction            ... done
Dispersion correction           -0.093970899
FINAL SINGLE POINT ENERGY      -800.034279197311
Dispersion correction            ... done
Dispersion correction           -0.093973445
FINAL SINGLE POINT ENERGY      -800.034281363228
Dispersion correction            ... done
                    ***********************HURRAY********************

CARTESIAN COORDINATES (ANGSTROEM)
---------------------------------
  C     -1.209802    1.223014   -0.118158
  C     -1.104539    0.621159    1.217500
  C     -2.471517    1.512349   -0.632302
  C     -2.606210    2.095507   -1.884949
  H     -3.356367    1.267719   -0.055020
  C     -1.461725    2.391099   -2.613302
  C     -0.192124    2.103012   -2.114622
  H     -1.577596    2.862733   -3.580109
  C     -0.069823    1.514428   -0.868659
  C      1.032184    2.479810   -2.906703
  H      0.904810    1.257754   -0.478037
  C     -3.982840    2.338387   -2.444677
  O     -0.067143    0.355581    1.792048
  C     -5.593199    1.526062   -3.872552
  C     -4.987627    2.752018   -4.564490
  N     -4.576666    1.092858   -2.916511
  H     -5.852732    0.718145   -4.552884
  N     -4.008342    3.265430   -3.594744
  H     -5.739314    3.501242   -4.817105
  C      3.379464    2.280817   -2.537851
  C      2.971587    3.730858   -2.805271
  N      2.145843    1.514689   -2.756270
  H      3.720017    2.163898   -1.505565
  N      1.548181    3.776982   -2.477607
  H      3.100627    3.977125   -3.861201
  H      2.217111    0.936127   -3.579623
  H      0.748329    2.564060   -3.962084
  H      1.436489    3.845767   -1.472185
  H     -3.857586    0.565160   -3.400032
  H     -4.245116    4.198319   -3.291308
  H     -4.620495    2.717363   -1.635009
  H     -2.083831    0.415830    1.702004
  H     -4.486233    2.465479   -5.492484
  H      4.182801    1.935771   -3.189603
  H     -6.494707    1.802675   -3.322903
  H      3.524918    4.462923   -2.220731

 Multiplicity           Mult            ....    1
 Number of Electrons    NEL             ....  132
 Basis Dimension        Dim             ....  401

ORBITAL ENERGIES
----------------

  NO   OCC          E(Eh)            E(eV)
   0   2.0000     -18.730869      -509.6928
   1   2.0000     -13.986167      -380.5830
   2   2.0000     -13.981361      -380.4522
   3   2.0000     -13.978781      -380.3820
   4   2.0000     -13.973279      -380.2323
   5   2.0000      -9.967837      -271.2386
   6   2.0000      -9.953038      -270.8359
   7   2.0000      -9.948217      -270.7048
   8   2.0000      -9.920390      -269.9475
   9   2.0000      -9.918752      -269.9030
  10   2.0000      -9.915369      -269.8109
  11   2.0000      -9.913258      -269.7535
  12   2.0000      -9.906225      -269.5621
  13   2.0000      -9.905668      -269.5469
  14   2.0000      -9.904139      -269.5053
  15   2.0000      -9.903738      -269.4944
  16   2.0000      -9.900115      -269.3958
  17   2.0000      -9.898185      -269.3433
  18   2.0000      -0.953944       -25.9581
  19   2.0000      -0.892414       -24.2838
  20   2.0000      -0.886882       -24.1333
  21   2.0000      -0.799701       -21.7610
  22   2.0000      -0.786823       -21.4105
  23   2.0000      -0.781598       -21.2684
  24   2.0000      -0.723159       -19.6781
  25   2.0000      -0.715134       -19.4598
  26   2.0000      -0.672439       -18.2980
  27   2.0000      -0.660646       -17.9771
  28   2.0000      -0.598586       -16.2884
  29   2.0000      -0.580971       -15.8090
  30   2.0000      -0.573523       -15.6063
  31   2.0000      -0.560079       -15.2405
  32   2.0000      -0.557590       -15.1728
  33   2.0000      -0.527077       -14.3425
  34   2.0000      -0.510736       -13.8978
  35   2.0000      -0.479353       -13.0439
  36   2.0000      -0.472540       -12.8585
  37   2.0000      -0.459784       -12.5114
  38   2.0000      -0.453440       -12.3387
  39   2.0000      -0.446865       -12.1598
  40   2.0000      -0.426718       -11.6116
  41   2.0000      -0.411822       -11.2062
  42   2.0000      -0.405829       -11.0432
  43   2.0000      -0.389420       -10.5967
  44   2.0000      -0.385148       -10.4804
  45   2.0000      -0.380135       -10.3440
  46   2.0000      -0.373083       -10.1521
  47   2.0000      -0.368146       -10.0178
  48   2.0000      -0.362079        -9.8527
  49   2.0000      -0.357039        -9.7155
  50   2.0000      -0.352668        -9.5966
  51   2.0000      -0.347630        -9.4595
  52   2.0000      -0.346282        -9.4228
  53   2.0000      -0.340270        -9.2592
  54   2.0000      -0.321705        -8.7540
  55   2.0000      -0.316595        -8.6150
  56   2.0000      -0.315267        -8.5789
  57   2.0000      -0.314044        -8.5456
  58   2.0000      -0.303196        -8.2504
  59   2.0000      -0.236854        -6.4451
  60   2.0000      -0.234114        -6.3706
  61   2.0000      -0.211686        -5.7603
  62   2.0000      -0.207722        -5.6524
  63   2.0000      -0.206579        -5.6213
  64   2.0000      -0.192166        -5.2291
  65   2.0000      -0.186424        -5.0729
  66   0.0000      -0.088825        -2.4171
  67   0.0000      -0.047224        -1.2850
  68   0.0000       0.001799         0.0489
  69   0.0000       0.012398         0.3374
  70   0.0000       0.018285         0.4976

MULLIKEN ATOMIC CHARGES
-----------------------
   0 C :    0.279010
   1 C :   -0.162521
   2 C :   -0.194276
   3 C :    0.166804
   4 H :    0.203395
   5 C :   -0.234378
   6 C :    0.496302
   7 H :    0.208244
   8 C :   -0.132378
   9 C :   -0.694285
  10 H :    0.219684
  11 C :   -0.554469
  12 O :   -0.310873
  13 C :   -0.265062
  14 C :   -0.267089
  15 N :   -0.312030
  16 H :    0.191187
  17 N :   -0.313710
  18 H :    0.160139
  19 C :   -0.263931
  20 C :   -0.259824
  21 N :   -0.288549
  22 H :    0.153567
  23 N :   -0.314067
  24 H :    0.158470
  25 H :    0.303286
  26 H :    0.175526
  27 H :    0.310604
  28 H :    0.305943
  29 H :    0.305038
  30 H :    0.164635
  31 H :    0.101258
  32 H :    0.151148
  33 H :    0.164372
  34 H :    0.161394
  35 H :    0.187437
Sum of atomic charges:   -0.0000000

LOEWDIN ATOMIC CHARGES
----------------------
   0 C :   -0.071387
   1 C :    0.207890
   2 C :   -0.121891
   3 C :   -0.080512
   4 H :    0.176045
   5 C :   -0.121683
   6 C :   -0.072751
   7 H :    0.185036
   8 C :   -0.095652
   9 C :   -0.037321
  10 H :    0.196983
  11 C :   -0.035675
  12 O :   -0.471038
  13 C :   -0.215182
  14 C :   -0.216533
  15 N :   -0.357500
  16 H :    0.156646
  17 N :   -0.390775
  18 H :    0.147060
  19 C :   -0.217772
  20 C :   -0.215885
  21 N :   -0.387107
  22 H :    0.140574
  23 N :   -0.358586
  24 H :    0.149220
  25 H :    0.264805
  26 H :    0.146121
  27 H :    0.270257
  28 H :    0.270011
  29 H :    0.266286
  30 H :    0.147404
  31 H :    0.148617
  32 H :    0.139130
  33 H :    0.148278
  34 H :    0.150939
  35 H :    0.155947

  Mayer bond orders larger than 0.100000
B(  0-C ,  1-C ) :   0.8947 B(  0-C ,  2-C ) :   1.2636 B(  0-C ,  8-C ) :   1.1832
B(  0-C , 12-O ) :  -0.1639 B(  0-C , 31-H ) :  -0.1040 B(  1-C , 12-O ) :   2.0725
B(  1-C , 31-H ) :   0.9565 B(  2-C ,  3-C ) :   1.4145 B(  2-C ,  4-H ) :   0.8622
B(  3-C ,  5-C ) :   1.4365 B(  3-C , 11-C ) :   0.7116 B(  3-C , 15-N ) :  -0.1132
B(  3-C , 17-N ) :  -0.1106 B(  5-C ,  6-C ) :   1.2399 B(  5-C ,  7-H ) :   0.8940
B(  6-C ,  8-C ) :   1.2684 B(  6-C ,  9-C ) :   0.5555 B(  6-C , 21-N ) :  -0.1296
B(  6-C , 23-N ) :  -0.1232 B(  8-C , 10-H ) :   0.9225 B(  9-C , 21-N ) :   1.1353
B(  9-C , 23-N ) :   1.2241 B(  9-C , 26-H ) :   0.9850 B( 11-C , 15-N ) :   1.2086
B( 11-C , 17-N ) :   1.0594 B( 11-C , 30-H ) :   0.9789 B( 13-C , 14-C ) :   0.9438
B( 13-C , 15-N ) :   1.0049 B( 13-C , 16-H ) :   0.9473 B( 13-C , 34-H ) :   0.9406
B( 14-C , 17-N ) :   1.0385 B( 14-C , 18-H ) :   0.9498 B( 14-C , 32-H ) :   0.9403
B( 15-N , 28-H ) :   0.8442 B( 17-N , 29-H ) :   0.8595 B( 19-C , 20-C ) :   0.9342
B( 19-C , 21-N ) :   1.0255 B( 19-C , 22-H ) :   0.9418 B( 19-C , 33-H ) :   0.9500
B( 20-C , 23-N ) :   0.9928 B( 20-C , 24-H ) :   0.9416 B( 20-C , 35-H ) :   0.9460
B( 21-N , 25-H ) :   0.8672 B( 23-N , 27-H ) :   0.8538

Dispersion correction           -0.093974368
FINAL SINGLE POINT ENERGY      -800.034283221292

DIPOLE MOMENT
-------------
                                X             Y             Z
Electronic contribution:      0.67539      -3.96078       9.87298
Nuclear contribution   :     -1.33065       4.65174     -11.45550
                        -----------------------------------------
Total Dipole Moment    :     -0.65527       0.69096      -1.58252
                        -----------------------------------------
Magnitude (a.u.)       :      1.84694
Magnitude (Debye)      :      4.69454

Rotational constants in cm-1:     0.018981     0.008261     0.006157
Rotational constants in MHz :   569.023081   247.670256   184.585031

                             ****ORCA TERMINATED NORMALLY****
TOTAL RUN TIME: 0 days 0 hours 14 minutes 37 seconds 452 msec
