                         Program Version 4.2.1 -  RELEASE  -
|  1> ! RI-MP2 cc-pVTZ cc-pVTZ/C TIGHTSCF printbasis Grid6 NOFINALGRID SlowConv
|  2>
|  3> %base "_o_1_alde1_2_ami4_1_opt_MP2"
|  4> %maxcore 3000
|  5> %pal
|  6>    nprocs 32
|  7> end
|  8>
|  9> * xyzfile 0 1 _o_1_alde1_2_ami4_1_opt_B97-3c.xyz
| 10>
| 11>                          ****END OF INPUT****

CARTESIAN COORDINATES (ANGSTROEM)
---------------------------------
  C     -1.209802    1.223014   -0.118158
  C     -1.104539    0.621159    1.217500
  C     -2.471517    1.512349   -0.632302
  C     -2.606210    2.095507   -1.884949
  H     -3.356367    1.267719   -0.055020
  C     -1.461725    2.391099   -2.613302
  C     -0.192124    2.103012   -2.114622
  H     -1.577596    2.862733   -3.580109
  C     -0.069823    1.514428   -0.868659
  C      1.032184    2.479810   -2.906703
  H      0.904810    1.257754   -0.478037
  C     -3.982840    2.338387   -2.444677
  O     -0.067143    0.355581    1.792048
  C     -5.593199    1.526062   -3.872552
  C     -4.987627    2.752018   -4.564490
  N     -4.576666    1.092858   -2.916511
  H     -5.852732    0.718145   -4.552884
  N     -4.008342    3.265430   -3.594744
  H     -5.739314    3.501242   -4.817105
  C      3.379464    2.280817   -2.537851
  C      2.971587    3.730858   -2.805271
  N      2.145843    1.514689   -2.756270
  H      3.720017    2.163898   -1.505565
  N      1.548181    3.776982   -2.477607
  H      3.100627    3.977125   -3.861201
  H      2.217111    0.936127   -3.579623
  H      0.748329    2.564060   -3.962084
  H      1.436489    3.845767   -1.472185
  H     -3.857586    0.565160   -3.400032
  H     -4.245116    4.198319   -3.291308
  H     -4.620495    2.717363   -1.635009
  H     -2.083831    0.415830    1.702004
  H     -4.486233    2.465479   -5.492484
  H      4.182801    1.935771   -3.189603
  H     -6.494707    1.802675   -3.322903
  H      3.524918    4.462923   -2.220731

 Total Charge           Charge          ....    0
 Multiplicity           Mult            ....    1
 Number of Electrons    NEL             ....  132
 Basis Dimension        Dim             ....  792

ORBITAL ENERGIES
----------------

  NO   OCC          E(Eh)            E(eV)
   0   2.0000     -20.543663      -559.0215
   1   2.0000     -15.551219      -423.1702
   2   2.0000     -15.546516      -423.0422
   3   2.0000     -15.545343      -423.0103
   4   2.0000     -15.539556      -422.8528
   5   2.0000     -11.324223      -308.1478
   6   2.0000     -11.291540      -307.2584
   7   2.0000     -11.285836      -307.1032
   8   2.0000     -11.254286      -306.2447
   9   2.0000     -11.253626      -306.2267
  10   2.0000     -11.248247      -306.0804
  11   2.0000     -11.247037      -306.0474
  12   2.0000     -11.245250      -305.9988
  13   2.0000     -11.239884      -305.8528
  14   2.0000     -11.239507      -305.8425
  15   2.0000     -11.237871      -305.7980
  16   2.0000     -11.236784      -305.7684
  17   2.0000     -11.235418      -305.7313
  18   2.0000      -1.377653       -37.4879
  19   2.0000      -1.278750       -34.7966
  20   2.0000      -1.271970       -34.6121
  21   2.0000      -1.167173       -31.7604
  22   2.0000      -1.144691       -31.1486
  23   2.0000      -1.138304       -30.9748
  24   2.0000      -1.061742       -28.8915
  25   2.0000      -1.054604       -28.6972
  26   2.0000      -0.992558       -27.0089
  27   2.0000      -0.978804       -26.6346
  28   2.0000      -0.892846       -24.2956
  29   2.0000      -0.866386       -23.5756
  30   2.0000      -0.852621       -23.2010
  31   2.0000      -0.831117       -22.6158
  32   2.0000      -0.827264       -22.5110
  33   2.0000      -0.786742       -21.4083
  34   2.0000      -0.767166       -20.8757
  35   2.0000      -0.712177       -19.3793
  36   2.0000      -0.704928       -19.1821
  37   2.0000      -0.689109       -18.7516
  38   2.0000      -0.676969       -18.4213
  39   2.0000      -0.674076       -18.3425
  40   2.0000      -0.656511       -17.8646
  41   2.0000      -0.635787       -17.3006
  42   2.0000      -0.613348       -16.6900
  43   2.0000      -0.610116       -16.6021
  44   2.0000      -0.594267       -16.1708
  45   2.0000      -0.589273       -16.0349
  46   2.0000      -0.583184       -15.8692
  47   2.0000      -0.559207       -15.2168
  48   2.0000      -0.549112       -14.9421
  49   2.0000      -0.543218       -14.7817
  50   2.0000      -0.540639       -14.7115
  51   2.0000      -0.537273       -14.6199
  52   2.0000      -0.533144       -14.5076
  53   2.0000      -0.528047       -14.3689
  54   2.0000      -0.508096       -13.8260
  55   2.0000      -0.502212       -13.6659
  56   2.0000      -0.497899       -13.5485
  57   2.0000      -0.483717       -13.1626
  58   2.0000      -0.480118       -13.0647
  59   2.0000      -0.418902       -11.3989
  60   2.0000      -0.400146       -10.8885
  61   2.0000      -0.394956       -10.7473
  62   2.0000      -0.380641       -10.3578
  63   2.0000      -0.372953       -10.1486
  64   2.0000      -0.340376        -9.2621
  65   2.0000      -0.331855        -9.0302
  66   0.0000       0.077580         2.1111
  67   0.0000       0.116980         3.1832
  68   0.0000       0.130050         3.5388
  69   0.0000       0.135270         3.6809
  70   0.0000       0.147837         4.0229

MULLIKEN ATOMIC CHARGES
-----------------------
   0 C :    0.082455
   1 C :    0.173853
   2 C :   -0.245245
   3 C :    0.068566
   4 H :    0.148340
   5 C :   -0.216230
   6 C :    0.100547
   7 H :    0.170100
   8 C :   -0.217074
   9 C :    0.043575
  10 H :    0.191621
  11 C :    0.067544
  12 O :   -0.368189
  13 C :   -0.104939
  14 C :   -0.093759
  15 N :   -0.253530
  16 H :    0.113480
  17 N :   -0.282306
  18 H :    0.093461
  19 C :   -0.095022
  20 C :   -0.098777
  21 N :   -0.273505
  22 H :    0.085517
  23 N :   -0.259274
  24 H :    0.081065
  25 H :    0.111429
  26 H :    0.092369
  27 H :    0.107974
  28 H :    0.106028
  29 H :    0.116173
  30 H :    0.097608
  31 H :    0.082355
  32 H :    0.082251
  33 H :    0.094798
  34 H :    0.085344
  35 H :    0.111397
Sum of atomic charges:   -0.0000000

LOEWDIN ATOMIC CHARGES
----------------------
   0 C :   -0.094635
   1 C :   -0.152006
   2 C :    0.065749
   3 C :   -0.053761
   4 H :   -0.018043
   5 C :    0.072332
   6 C :   -0.049465
   7 H :   -0.023877
   8 C :    0.083795
   9 C :   -0.143831
  10 H :   -0.015196
  11 C :   -0.150287
  12 O :    0.133698
  13 C :   -0.010169
  14 C :   -0.007250
  15 N :    0.304792
  16 H :   -0.031225
  17 N :    0.310398
  18 H :   -0.037290
  19 C :   -0.011178
  20 C :   -0.012624
  21 N :    0.306090
  22 H :   -0.038185
  23 N :    0.304901
  24 H :   -0.032829
  25 H :   -0.122179
  26 H :   -0.031045
  27 H :   -0.110628
  28 H :   -0.108580
  29 H :   -0.120322
  30 H :   -0.030687
  31 H :   -0.036727
  32 H :   -0.040049
  33 H :   -0.036542
  34 H :   -0.031790
  35 H :   -0.031356

  Mayer bond orders larger than 0.100000
B(  0-C ,  1-C ) :   0.9372 B(  0-C ,  2-C ) :   1.3389 B(  0-C ,  8-C ) :   1.3104
B(  1-C , 12-O ) :   2.0845 B(  1-C , 31-H ) :   1.0205 B(  2-C ,  3-C ) :   1.3709
B(  2-C ,  4-H ) :   0.9707 B(  3-C ,  5-C ) :   1.3560 B(  3-C , 11-C ) :   1.0267
B(  5-C ,  6-C ) :   1.3451 B(  5-C ,  7-H ) :   0.9505 B(  6-C ,  8-C ) :   1.3545
B(  6-C ,  9-C ) :   1.0014 B(  8-C , 10-H ) :   0.9477 B(  9-C , 21-N ) :   1.0098
B(  9-C , 23-N ) :   1.0246 B(  9-C , 26-H ) :   1.0020 B( 11-C , 15-N ) :   1.0275
B( 11-C , 17-N ) :   1.0043 B( 11-C , 30-H ) :   0.9932 B( 13-C , 14-C ) :   0.9495
B( 13-C , 15-N ) :   0.9919 B( 13-C , 16-H ) :   0.9919 B( 13-C , 34-H ) :   0.9836
B( 14-C , 17-N ) :   0.9973 B( 14-C , 18-H ) :   0.9843 B( 14-C , 32-H ) :   0.9803
B( 15-N , 28-H ) :   0.9907 B( 17-N , 29-H ) :   0.9884 B( 19-C , 20-C ) :   0.9498
B( 19-C , 21-N ) :   0.9983 B( 19-C , 22-H ) :   0.9789 B( 19-C , 33-H ) :   0.9854
B( 20-C , 23-N ) :   0.9902 B( 20-C , 24-H ) :   0.9833 B( 20-C , 35-H ) :   0.9910
B( 21-N , 25-H ) :   0.9922 B( 23-N , 27-H ) :   0.9958

MP2 TOTAL ENERGY:     -798.821023039 Eh
FINAL SINGLE POINT ENERGY      -798.821023039456

DIPOLE MOMENT
-------------
                                X             Y             Z
Electronic contribution:      0.51216      -3.95924       9.87067
Nuclear contribution   :     -1.33065       4.65174     -11.45550
                        -----------------------------------------
Total Dipole Moment    :     -0.81849       0.69250      -1.58483
                        -----------------------------------------
Magnitude (a.u.)       :      1.91342
Magnitude (Debye)      :      4.86353

Rotational constants in cm-1:     0.018981     0.008261     0.006157
Rotational constants in MHz :   569.023081   247.670256   184.585031

                             ****ORCA TERMINATED NORMALLY****
TOTAL RUN TIME: 0 days 0 hours 10 minutes 45 seconds 801 msec
