                         Program Version 4.2.1 -  RELEASE  -
|  1> ! RI-MP2 cc-pVTZ cc-pVTZ/C TIGHTSCF printbasis Grid6 NOFINALGRID SlowConv
|  2>
|  3> %base "_o_1_alde1_3_ami1_1_opt_MP2"
|  4> %maxcore 3000
|  5> %pal
|  6>    nprocs 32
|  7> end
|  8>
|  9> * xyzfile 0 1 _o_1_alde1_3_ami1_1_opt_B97-3c.xyz
| 10>
| 11>                          ****END OF INPUT****

CARTESIAN COORDINATES (ANGSTROEM)
---------------------------------
  C     -1.825965    2.035161   -0.639548
  C     -2.217776    1.995579    0.811174
  C     -2.754259    2.333281   -1.628104
  C     -2.389045    2.321377   -2.969873
  H     -3.771447    2.596176   -1.368477
  C     -1.079664    2.003477   -3.314133
  C     -0.142183    1.696025   -2.336091
  H     -0.787265    1.999555   -4.358071
  C     -0.524761    1.716965   -1.002178
  C      1.293901    1.409296   -2.680310
  H      0.201700    1.488018   -0.235923
  C     -3.414769    2.581641   -4.039480
  C     -2.181859    0.684276    2.728576
  C     -1.310060    1.936344    3.004622
  N     -2.383857    0.626525    1.278425
  H     -3.160072    0.846748    3.188385
  C     -1.624351   -0.611861    3.317835
  N     -1.171499    2.551886    1.685430
  H     -0.319593    1.614487    3.342809
  C     -1.869123    2.839640    4.114262
  H     -1.393384   -0.381114    4.362972
  C     -0.333540   -1.077776    2.652841
  C     -2.668843   -1.720381    3.305837
  H     -2.054510    2.177482    4.968286
  C     -3.181149    3.521950    3.753450
  C     -0.834825    3.869067    4.551803
  H     -2.965151   -1.963323    2.286433
  H     -3.567153   -1.424048    3.847227
  H     -2.282740   -2.627958    3.769559
  H      0.134130   -1.863017    3.244852
  H      0.391575   -0.274122    2.537561
  H     -0.517551   -1.501065    1.665074
  H      0.100630    3.393484    4.845098
  H     -1.192812    4.454718    5.397826
  H     -0.607380    4.571627    3.748339
  H     -3.557889    4.097709    4.597693
  H     -3.956557    2.814525    3.467655
  H     -3.050605    4.218396    2.924790
  C     -5.664258    3.248930   -4.395094
  C     -5.395629    1.841267   -4.983757
  N     -4.456939    3.528733   -3.615725
  H     -6.515160    3.191765   -3.708495
  C     -6.041184    4.294837   -5.455011
  N     -4.147453    1.369508   -4.378588
  H     -5.212255    1.953523   -6.055506
  C     -6.559762    0.862511   -4.832018
  H     -6.850890    3.843162   -6.040515
  C     -4.908934    4.644371   -6.410565
  C     -6.599275    5.553979   -4.803270
  H     -7.444566    1.403826   -5.183228
  C     -6.818473    0.445097   -3.388641
  C     -6.376173   -0.358025   -5.724353
  H     -6.951681    6.264807   -5.550270
  H     -5.840404    6.063342   -4.206958
  H     -7.433661    5.321965   -4.141834
  H     -5.252691    5.342645   -7.172546
  H     -4.509237    3.772097   -6.923107
  H     -4.081966    5.124864   -5.887137
  H     -5.479404   -0.909635   -5.446138
  H     -6.274405   -0.070683   -6.770843
  H     -7.226766   -1.034777   -5.644557
  H     -6.062916   -0.253962   -3.029593
  H     -7.777098   -0.064892   -3.307722
  H     -6.837881    1.293204   -2.706224
  C      3.299677    0.550442   -1.734030
  C      3.484682    2.017393   -2.195686
  N      1.858001    0.334824   -1.846718
  H      3.580282    0.472005   -0.678482
  C      4.191373   -0.446573   -2.488091
  N      2.140831    2.561375   -2.405053
  H      3.988664    2.005247   -3.165719
  C      4.344835    2.864904   -1.257495
  H      5.205949   -0.034511   -2.433807
  C      3.827897   -0.611037   -3.956936
  C      4.210352   -1.798302   -1.785832
  H      5.247969    2.273274   -1.074640
  C      3.689489    3.133346    0.093145
  C      4.769173    4.168568   -1.920766
  H      4.504989   -1.698294   -0.741554
  H      4.906322   -2.485188   -2.266321
  H      3.226757   -2.270491   -1.804667
  H      3.831950    0.333154   -4.497335
  H      2.837166   -1.051086   -4.073334
  H      4.532745   -1.276246   -4.453793
  H      3.902003    4.782291   -2.160426
  H      5.307201    3.982855   -2.850230
  H      5.421001    4.747545   -1.266761
  H      4.417633    3.543322    0.791292
  H      3.271409    2.234175    0.542211
  H      2.887126    3.867323    0.014509
  H      1.620151   -0.581408   -2.201182
  H      1.369179    1.179350   -3.751421
  H      1.809556    2.963713   -1.536378
  H     -1.204748    3.562056    1.715583
  H     -3.176448    2.515821    0.936171
  H     -1.635491    0.085426    0.861579
  H     -4.149327    4.488437   -3.696040
  H     -4.358431    0.904939   -3.502654
  H     -2.898635    2.922854   -4.947116

 Total Charge           Charge          ....    0
 Multiplicity           Mult            ....    1
 Number of Electrons    NEL             ....  300
 Basis Dimension        Dim             .... 2010

ORBITAL ENERGIES
----------------

  NO   OCC          E(Eh)            E(eV)
   0   2.0000     -15.530855      -422.6161
   1   2.0000     -15.530261      -422.5999
   2   2.0000     -15.530082      -422.5950
   3   2.0000     -15.529697      -422.5845
   4   2.0000     -15.529125      -422.5690
   5   2.0000     -15.528816      -422.5606
   6   2.0000     -11.273965      -306.7802
   7   2.0000     -11.273298      -306.7620
   8   2.0000     -11.272247      -306.7334
   9   2.0000     -11.240444      -305.8680
  10   2.0000     -11.239844      -305.8517
  11   2.0000     -11.239840      -305.8516
  12   2.0000     -11.239814      -305.8509
  13   2.0000     -11.239262      -305.8359
  14   2.0000     -11.239192      -305.8340
  15   2.0000     -11.224688      -305.4393
  16   2.0000     -11.224014      -305.4210
  17   2.0000     -11.223877      -305.4172
  18   2.0000     -11.223247      -305.4001
  19   2.0000     -11.223116      -305.3965
  20   2.0000     -11.222950      -305.3920
  21   2.0000     -11.221776      -305.3601
  22   2.0000     -11.220668      -305.3299
  23   2.0000     -11.219769      -305.3054
  24   2.0000     -11.217119      -305.2333
  25   2.0000     -11.212813      -305.1162
  26   2.0000     -11.211188      -305.0719
  27   2.0000     -11.210955      -305.0656
  28   2.0000     -11.210882      -305.0636
  29   2.0000     -11.210586      -305.0555
  30   2.0000     -11.210339      -305.0488
  31   2.0000     -11.210265      -305.0468
  32   2.0000     -11.208630      -305.0023
  33   2.0000     -11.208045      -304.9864
  34   2.0000     -11.207740      -304.9781
  35   2.0000     -11.207674      -304.9763
  36   2.0000     -11.203645      -304.8667
  37   2.0000     -11.203357      -304.8588
  38   2.0000     -11.203287      -304.8569
  39   2.0000      -1.267787       -34.4982
  40   2.0000      -1.266294       -34.4576
  41   2.0000      -1.265359       -34.4322
  42   2.0000      -1.148518       -31.2528
  43   2.0000      -1.140659       -31.0389
  44   2.0000      -1.140257       -31.0280
  45   2.0000      -1.139941       -31.0194
  46   2.0000      -1.095077       -29.7986
  47   2.0000      -1.094243       -29.7759
  48   2.0000      -1.083744       -29.4902
  49   2.0000      -1.057753       -28.7829
  50   2.0000      -1.057452       -28.7747
  51   2.0000      -1.057351       -28.7720
  52   2.0000      -1.025565       -27.9070
  53   2.0000      -1.023812       -27.8593
  54   2.0000      -0.966248       -26.2929
  55   2.0000      -0.954594       -25.9758
  56   2.0000      -0.951454       -25.8904
  57   2.0000      -0.934429       -25.4271
  58   2.0000      -0.934042       -25.4166
  59   2.0000      -0.933947       -25.4140
  60   2.0000      -0.929030       -25.2802
  61   2.0000      -0.928860       -25.2756
  62   2.0000      -0.928694       -25.2710
  63   2.0000      -0.870945       -23.6996
  64   2.0000      -0.859385       -23.3851
  65   2.0000      -0.848517       -23.0893
  66   2.0000      -0.847644       -23.0656
  67   2.0000      -0.847497       -23.0616
  68   2.0000      -0.847194       -23.0533
  69   2.0000      -0.784346       -21.3431
  70   2.0000      -0.774474       -21.0745
  71   2.0000      -0.772003       -21.0073
  72   2.0000      -0.768588       -20.9144
  73   2.0000      -0.766538       -20.8586
  74   2.0000      -0.751867       -20.4593
  75   2.0000      -0.747158       -20.3312
  76   2.0000      -0.746440       -20.3117
  77   2.0000      -0.693712       -18.8769
  78   2.0000      -0.692338       -18.8395
  79   2.0000      -0.675990       -18.3946
  80   2.0000      -0.673872       -18.3370
  81   2.0000      -0.652927       -17.7670
  82   2.0000      -0.651431       -17.7263
  83   2.0000      -0.650155       -17.6916
  84   2.0000      -0.636411       -17.3176
  85   2.0000      -0.628530       -17.1032
  86   2.0000      -0.628270       -17.0961
  87   2.0000      -0.623711       -16.9720
  88   2.0000      -0.613690       -16.6993
  89   2.0000      -0.609527       -16.5861
  90   2.0000      -0.605843       -16.4858
  91   2.0000      -0.605008       -16.4631
  92   2.0000      -0.604860       -16.4591
  93   2.0000      -0.595770       -16.2117
  94   2.0000      -0.588637       -16.0176
  95   2.0000      -0.586141       -15.9497
  96   2.0000      -0.583723       -15.8839
  97   2.0000      -0.577832       -15.7236
  98   2.0000      -0.574621       -15.6362
  99   2.0000      -0.573212       -15.5979
 100   2.0000      -0.571505       -15.5514
 101   2.0000      -0.568450       -15.4683
 102   2.0000      -0.562507       -15.3066
 103   2.0000      -0.549567       -14.9545
 104   2.0000      -0.549092       -14.9416
 105   2.0000      -0.546524       -14.8717
 106   2.0000      -0.541939       -14.7469
 107   2.0000      -0.540440       -14.7061
 108   2.0000      -0.539187       -14.6720
 109   2.0000      -0.535312       -14.5666
 110   2.0000      -0.534884       -14.5549
 111   2.0000      -0.534321       -14.5396
 112   2.0000      -0.529446       -14.4070
 113   2.0000      -0.528802       -14.3894
 114   2.0000      -0.527977       -14.3670
 115   2.0000      -0.517947       -14.0941
 116   2.0000      -0.517495       -14.0817
 117   2.0000      -0.515534       -14.0284
 118   2.0000      -0.509974       -13.8771
 119   2.0000      -0.508552       -13.8384
 120   2.0000      -0.506695       -13.7879
 121   2.0000      -0.494391       -13.4531
 122   2.0000      -0.491411       -13.3720
 123   2.0000      -0.489583       -13.3222
 124   2.0000      -0.484052       -13.1717
 125   2.0000      -0.481191       -13.0939
 126   2.0000      -0.480046       -13.0627
 127   2.0000      -0.476797       -12.9743
 128   2.0000      -0.476631       -12.9698
 129   2.0000      -0.475301       -12.9336
 130   2.0000      -0.468528       -12.7493
 131   2.0000      -0.466129       -12.6840
 132   2.0000      -0.464555       -12.6412
 133   2.0000      -0.464050       -12.6275
 134   2.0000      -0.463015       -12.5993
 135   2.0000      -0.460883       -12.5413
 136   2.0000      -0.456066       -12.4102
 137   2.0000      -0.449095       -12.2205
 138   2.0000      -0.448530       -12.2051
 139   2.0000      -0.439144       -11.9497
 140   2.0000      -0.437526       -11.9057
 141   2.0000      -0.436820       -11.8865
 142   2.0000      -0.376429       -10.2432
 143   2.0000      -0.375871       -10.2280
 144   2.0000      -0.374797       -10.1987
 145   2.0000      -0.361674        -9.8417
 146   2.0000      -0.359412        -9.7801
 147   2.0000      -0.357457        -9.7269
 148   2.0000      -0.317411        -8.6372
 149   2.0000      -0.311996        -8.4898
 150   0.0000       0.126270         3.4360
 151   0.0000       0.131390         3.5753
 152   0.0000       0.133518         3.6332
 153   0.0000       0.136326         3.7096
 154   0.0000       0.137519         3.7421

MULLIKEN ATOMIC CHARGES
-----------------------
   0 C :    0.075070
   1 C :    0.054177
   2 C :   -0.253396
   3 C :    0.113448
   4 H :    0.159517
   5 C :   -0.276126
   6 C :    0.101416
   7 H :    0.134126
   8 C :   -0.231213
   9 C :    0.052012
  10 H :    0.185683
  11 C :    0.063585
  12 C :   -0.015509
  13 C :   -0.028071
  14 N :   -0.288736
  15 H :    0.115163
  16 C :   -0.053237
  17 N :   -0.286780
  18 H :    0.111157
  19 C :   -0.054826
  20 H :    0.100998
  21 C :   -0.341393
  22 C :   -0.302758
  23 H :    0.100033
  24 C :   -0.343422
  25 C :   -0.305410
  26 H :    0.104054
  27 H :    0.093667
  28 H :    0.096031
  29 H :    0.113322
  30 H :    0.112384
  31 H :    0.090711
  32 H :    0.099590
  33 H :    0.102397
  34 H :    0.085836
  35 H :    0.117731
  36 H :    0.110788
  37 H :    0.087321
  38 C :   -0.025826
  39 C :   -0.016122
  40 N :   -0.288821
  41 H :    0.110597
  42 C :   -0.056686
  43 N :   -0.287220
  44 H :    0.115603
  45 C :   -0.052810
  46 H :    0.100882
  47 C :   -0.341851
  48 C :   -0.304763
  49 H :    0.101359
  50 C :   -0.339202
  51 C :   -0.303557
  52 H :    0.102402
  53 H :    0.086535
  54 H :    0.099613
  55 H :    0.117539
  56 H :    0.109840
  57 H :    0.087540
  58 H :    0.104742
  59 H :    0.093150
  60 H :    0.096455
  61 H :    0.093535
  62 H :    0.112467
  63 H :    0.110075
  64 C :   -0.027933
  65 C :   -0.014591
  66 N :   -0.287338
  67 H :    0.111524
  68 C :   -0.055968
  69 N :   -0.287717
  70 H :    0.115523
  71 C :   -0.053289
  72 H :    0.100040
  73 C :   -0.341597
  74 C :   -0.304872
  75 H :    0.101247
  76 C :   -0.341764
  77 C :   -0.303157
  78 H :    0.099192
  79 H :    0.102271
  80 H :    0.086909
  81 H :    0.109804
  82 H :    0.087482
  83 H :    0.117338
  84 H :    0.103914
  85 H :    0.093825
  86 H :    0.096060
  87 H :    0.113517
  88 H :    0.112746
  89 H :    0.090365
  90 H :    0.105675
  91 H :    0.093837
  92 H :    0.118094
  93 H :    0.104416
  94 H :    0.095262
  95 H :    0.118006
  96 H :    0.105574
  97 H :    0.116447
  98 H :    0.094341
Sum of atomic charges:   -0.0000000

LOEWDIN ATOMIC CHARGES
----------------------
   0 C :   -0.049855
   1 C :   -0.151237
   2 C :    0.047234
   3 C :   -0.047372
   4 H :   -0.029086
   5 C :    0.049569
   6 C :   -0.048651
   7 H :   -0.024074
   8 C :    0.046993
   9 C :   -0.150287
  10 H :   -0.031000
  11 C :   -0.154418
  12 C :   -0.067945
  13 C :   -0.075320
  14 N :    0.319349
  15 H :   -0.025613
  16 C :   -0.027379
  17 N :    0.325455
  18 H :   -0.031233
  19 C :   -0.029886
  20 H :   -0.020315
  21 C :    0.115068
  22 C :    0.118359
  23 H :   -0.019933
  24 C :    0.113597
  25 C :    0.114976
  26 H :   -0.027034
  27 H :   -0.029818
  28 H :   -0.030398
  29 H :   -0.027408
  30 H :   -0.029935
  31 H :   -0.030991
  32 H :   -0.028773
  33 H :   -0.029046
  34 H :   -0.031974
  35 H :   -0.027114
  36 H :   -0.032934
  37 H :   -0.033478
  38 C :   -0.073881
  39 C :   -0.069148
  40 N :    0.326696
  41 H :   -0.031234
  42 C :   -0.029607
  43 N :    0.318630
  44 H :   -0.024953
  45 C :   -0.027412
  46 H :   -0.019658
  47 C :    0.113662
  48 C :    0.115093
  49 H :   -0.020228
  50 C :    0.114931
  51 C :    0.118433
  52 H :   -0.028952
  53 H :   -0.031714
  54 H :   -0.028661
  55 H :   -0.026806
  56 H :   -0.033356
  57 H :   -0.033480
  58 H :   -0.026806
  59 H :   -0.030020
  60 H :   -0.030258
  61 H :   -0.030355
  62 H :   -0.027098
  63 H :   -0.030390
  64 C :   -0.075877
  65 C :   -0.068575
  66 N :    0.326731
  67 H :   -0.031091
  68 C :   -0.029891
  69 N :    0.319687
  70 H :   -0.025471
  71 C :   -0.027086
  72 H :   -0.019899
  73 C :    0.113772
  74 C :    0.115174
  75 H :   -0.020215
  76 C :    0.115088
  77 C :    0.118261
  78 H :   -0.028770
  79 H :   -0.029083
  80 H :   -0.031592
  81 H :   -0.033025
  82 H :   -0.033438
  83 H :   -0.026977
  84 H :   -0.027030
  85 H :   -0.029795
  86 H :   -0.030429
  87 H :   -0.027355
  88 H :   -0.030070
  89 H :   -0.031072
  90 H :   -0.123665
  91 H :   -0.034461
  92 H :   -0.114533
  93 H :   -0.123645
  94 H :   -0.033893
  95 H :   -0.114184
  96 H :   -0.123064
  97 H :   -0.112552
  98 H :   -0.033492

  Mayer bond orders larger than 0.100000
B(  0-C ,  1-C ) :   1.0317 B(  0-C ,  2-C ) :   1.3864 B(  0-C ,  8-C ) :   1.3499
B(  1-C , 14-N ) :   1.0142 B(  1-C , 17-N ) :   0.9906 B(  1-C , 94-H ) :   0.9873
B(  2-C ,  3-C ) :   1.3410 B(  2-C ,  4-H ) :   0.9509 B(  2-C ,  5-C ) :   0.1034
B(  3-C ,  5-C ) :   1.3943 B(  3-C , 11-C ) :   1.0340 B(  5-C ,  6-C ) :   1.3828
B(  5-C ,  7-H ) :   0.9697 B(  6-C ,  8-C ) :   1.3519 B(  6-C ,  9-C ) :   1.0239
B(  8-C , 10-H ) :   0.9355 B(  9-C , 66-N ) :   0.9923 B(  9-C , 69-N ) :   1.0164
B(  9-C , 91-H ) :   0.9894 B( 11-C , 40-N ) :   0.9910 B( 11-C , 43-N ) :   1.0138
B( 11-C , 98-H ) :   0.9850 B( 12-C , 13-C ) :   0.9551 B( 12-C , 14-N ) :   0.9936
B( 12-C , 15-H ) :   0.9889 B( 12-C , 16-C ) :   0.9568 B( 13-C , 17-N ) :   1.0302
B( 13-C , 18-H ) :   0.9858 B( 13-C , 19-C ) :   0.9447 B( 14-N , 95-H ) :   1.0021
B( 16-C , 20-H ) :   0.9831 B( 16-C , 21-C ) :   0.9405 B( 16-C , 22-C ) :   0.9603
B( 17-N , 93-H ) :   0.9982 B( 19-C , 23-H ) :   0.9775 B( 19-C , 24-C ) :   0.9416
B( 19-C , 25-C ) :   0.9584 B( 21-C , 29-H ) :   0.9822 B( 21-C , 30-H ) :   0.9836
B( 21-C , 31-H ) :   0.9790 B( 22-C , 26-H ) :   0.9758 B( 22-C , 27-H ) :   0.9875
B( 22-C , 28-H ) :   0.9881 B( 24-C , 35-H ) :   0.9846 B( 24-C , 36-H ) :   0.9835
B( 24-C , 37-H ) :   0.9768 B( 25-C , 32-H ) :   0.9870 B( 25-C , 33-H ) :   0.9870
B( 25-C , 34-H ) :   0.9789 B( 38-C , 39-C ) :   0.9567 B( 38-C , 40-N ) :   1.0298
B( 38-C , 41-H ) :   0.9862 B( 38-C , 42-C ) :   0.9440 B( 39-C , 43-N ) :   0.9912
B( 39-C , 44-H ) :   0.9879 B( 39-C , 45-C ) :   0.9573 B( 40-N , 96-H ) :   0.9970
B( 42-C , 46-H ) :   0.9774 B( 42-C , 47-C ) :   0.9420 B( 42-C , 48-C ) :   0.9582
B( 43-N , 97-H ) :   1.0003 B( 45-C , 49-H ) :   0.9829 B( 45-C , 50-C ) :   0.9405
B( 45-C , 51-C ) :   0.9590 B( 47-C , 55-H ) :   0.9845 B( 47-C , 56-H ) :   0.9834
B( 47-C , 57-H ) :   0.9768 B( 48-C , 52-H ) :   0.9870 B( 48-C , 53-H ) :   0.9787
B( 48-C , 54-H ) :   0.9870 B( 50-C , 61-H ) :   0.9787 B( 50-C , 62-H ) :   0.9822
B( 50-C , 63-H ) :   0.9843 B( 51-C , 58-H ) :   0.9759 B( 51-C , 59-H ) :   0.9875
B( 51-C , 60-H ) :   0.9881 B( 64-C , 65-C ) :   0.9557 B( 64-C , 66-N ) :   1.0299
B( 64-C , 67-H ) :   0.9858 B( 64-C , 68-C ) :   0.9445 B( 65-C , 69-N ) :   0.9915
B( 65-C , 70-H ) :   0.9886 B( 65-C , 71-C ) :   0.9572 B( 66-N , 90-H ) :   0.9983
B( 68-C , 72-H ) :   0.9776 B( 68-C , 73-C ) :   0.9419 B( 68-C , 74-C ) :   0.9586
B( 69-N , 92-H ) :   1.0027 B( 71-C , 75-H ) :   0.9829 B( 71-C , 76-C ) :   0.9405
B( 71-C , 77-C ) :   0.9600 B( 73-C , 81-H ) :   0.9835 B( 73-C , 82-H ) :   0.9768
B( 73-C , 83-H ) :   0.9845 B( 74-C , 78-H ) :   0.9871 B( 74-C , 79-H ) :   0.9870
B( 74-C , 80-H ) :   0.9787 B( 76-C , 87-H ) :   0.9821 B( 76-C , 88-H ) :   0.9835
B( 76-C , 89-H ) :   0.9790 B( 77-C , 84-H ) :   0.9758 B( 77-C , 85-H ) :   0.9876
B( 77-C , 86-H ) :   0.9882

MP2 TOTAL ENERGY:    -1618.696109183 Eh
FINAL SINGLE POINT ENERGY     -1618.696109182576

DIPOLE MOMENT
-------------
                                X             Y             Z
Electronic contribution:     -1.59422       2.85167      -7.07880
Nuclear contribution   :      1.68711      -2.64328       7.38756
                        -----------------------------------------
Total Dipole Moment    :      0.09290       0.20838       0.30876
                        -----------------------------------------
Magnitude (a.u.)       :      0.38391
Magnitude (Debye)      :      0.97582

Rotational constants in cm-1:     0.002832     0.001788     0.001389
Rotational constants in MHz :    84.905848    53.594478    41.630966

                             ****ORCA TERMINATED NORMALLY****
TOTAL RUN TIME: 0 days 1 hours 10 minutes 58 seconds 616 msec
