                         Program Version 4.2.1 -  RELEASE  -
|  1> ! DFT COPT B97-3c TightSCF printbasis  Grid6 NOFINALGRID SlowConv
|  2>
|  3> %base "_o_1_alde1_3_ami1_1_opt_B97-3c"
|  4> %maxcore 3000
|  5> %scf
|  6>    MaxIter 2000
|  7> end
|  8> %pal
|  9>    nprocs 32
| 10> end
| 11>
| 12> * xyzfile 0 1 o_1_alde1_3_ami1_1_opt.xyz
| 13> # * xyzfile 0 1 _o_1_alde1_3_ami1_1_opt_B97-3c.xyz
| 14>
| 15>                          ****END OF INPUT****
 Total Charge           Charge          ....    0
 Multiplicity           Mult            ....    1
 Number of Electrons    NEL             ....  300
Dispersion correction           -0.266763100
FINAL SINGLE POINT ENERGY     -1621.380845142581
Dispersion correction            ... done
Dispersion correction           -0.266816165
FINAL SINGLE POINT ENERGY     -1621.382028392699
Dispersion correction            ... done
Dispersion correction           -0.266889273
FINAL SINGLE POINT ENERGY     -1621.382640942400
Dispersion correction            ... done
FINAL SINGLE POINT ENERGY     -1621.382924645135
FINAL SINGLE POINT ENERGY     -1621.383225071928
FINAL SINGLE POINT ENERGY     -1621.383386872599
FINAL SINGLE POINT ENERGY     -1621.383529594705
FINAL SINGLE POINT ENERGY     -1621.383647876981
FINAL SINGLE POINT ENERGY     -1621.383752878218
FINAL SINGLE POINT ENERGY     -1621.383819760188
FINAL SINGLE POINT ENERGY     -1621.385007505539
FINAL SINGLE POINT ENERGY     -1621.385013860014
FINAL SINGLE POINT ENERGY     -1621.385020757707
FINAL SINGLE POINT ENERGY     -1621.385027924094
FINAL SINGLE POINT ENERGY     -1621.385034817041
FINAL SINGLE POINT ENERGY     -1621.385041399196
FINAL SINGLE POINT ENERGY     -1621.385047836652
Dispersion correction            ... done
Dispersion correction           -0.265776367
FINAL SINGLE POINT ENERGY     -1621.385053443256
Dispersion correction            ... done
Dispersion correction           -0.265785170
FINAL SINGLE POINT ENERGY     -1621.385057985494
Dispersion correction            ... done
                    ***********************HURRAY********************

CARTESIAN COORDINATES (ANGSTROEM)
---------------------------------
  C     -1.825965    2.035161   -0.639548
  C     -2.217776    1.995579    0.811174
  C     -2.754259    2.333281   -1.628104
  C     -2.389045    2.321377   -2.969873
  H     -3.771447    2.596176   -1.368477
  C     -1.079664    2.003477   -3.314133
  C     -0.142183    1.696025   -2.336091
  H     -0.787265    1.999555   -4.358071
  C     -0.524761    1.716965   -1.002178
  C      1.293901    1.409296   -2.680310
  H      0.201700    1.488018   -0.235923
  C     -3.414769    2.581641   -4.039480
  C     -2.181859    0.684276    2.728576
  C     -1.310060    1.936344    3.004622
  N     -2.383857    0.626525    1.278425
  H     -3.160072    0.846748    3.188385
  C     -1.624351   -0.611861    3.317835
  N     -1.171499    2.551886    1.685430
  H     -0.319593    1.614487    3.342809
  C     -1.869123    2.839640    4.114262
  H     -1.393384   -0.381114    4.362972
  C     -0.333540   -1.077776    2.652841
  C     -2.668843   -1.720381    3.305837
  H     -2.054510    2.177482    4.968286
  C     -3.181149    3.521950    3.753450
  C     -0.834825    3.869067    4.551803
  H     -2.965151   -1.963323    2.286433
  H     -3.567153   -1.424048    3.847227
  H     -2.282740   -2.627958    3.769559
  H      0.134130   -1.863017    3.244852
  H      0.391575   -0.274122    2.537561
  H     -0.517551   -1.501065    1.665074
  H      0.100630    3.393484    4.845098
  H     -1.192812    4.454718    5.397826
  H     -0.607380    4.571627    3.748339
  H     -3.557889    4.097709    4.597693
  H     -3.956557    2.814525    3.467655
  H     -3.050605    4.218396    2.924790
  C     -5.664258    3.248930   -4.395094
  C     -5.395629    1.841267   -4.983757
  N     -4.456939    3.528733   -3.615725
  H     -6.515160    3.191765   -3.708495
  C     -6.041184    4.294837   -5.455011
  N     -4.147453    1.369508   -4.378588
  H     -5.212255    1.953523   -6.055506
  C     -6.559762    0.862511   -4.832018
  H     -6.850890    3.843162   -6.040515
  C     -4.908934    4.644371   -6.410565
  C     -6.599275    5.553979   -4.803270
  H     -7.444566    1.403826   -5.183228
  C     -6.818473    0.445097   -3.388641
  C     -6.376173   -0.358025   -5.724353
  H     -6.951681    6.264807   -5.550270
  H     -5.840404    6.063342   -4.206958
  H     -7.433661    5.321965   -4.141834
  H     -5.252691    5.342645   -7.172546
  H     -4.509237    3.772097   -6.923107
  H     -4.081966    5.124864   -5.887137
  H     -5.479404   -0.909635   -5.446138
  H     -6.274405   -0.070683   -6.770843
  H     -7.226766   -1.034777   -5.644557
  H     -6.062916   -0.253962   -3.029593
  H     -7.777098   -0.064892   -3.307722
  H     -6.837881    1.293204   -2.706224
  C      3.299677    0.550442   -1.734030
  C      3.484682    2.017393   -2.195686
  N      1.858001    0.334824   -1.846718
  H      3.580282    0.472005   -0.678482
  C      4.191373   -0.446573   -2.488091
  N      2.140831    2.561375   -2.405053
  H      3.988664    2.005247   -3.165719
  C      4.344835    2.864904   -1.257495
  H      5.205949   -0.034511   -2.433807
  C      3.827897   -0.611037   -3.956936
  C      4.210352   -1.798302   -1.785832
  H      5.247969    2.273274   -1.074640
  C      3.689489    3.133346    0.093145
  C      4.769173    4.168568   -1.920766
  H      4.504989   -1.698294   -0.741554
  H      4.906322   -2.485188   -2.266321
  H      3.226757   -2.270491   -1.804667
  H      3.831950    0.333154   -4.497335
  H      2.837166   -1.051086   -4.073334
  H      4.532745   -1.276246   -4.453793
  H      3.902003    4.782291   -2.160426
  H      5.307201    3.982855   -2.850230
  H      5.421001    4.747545   -1.266761
  H      4.417633    3.543322    0.791292
  H      3.271409    2.234175    0.542211
  H      2.887126    3.867323    0.014509
  H      1.620151   -0.581408   -2.201182
  H      1.369179    1.179350   -3.751421
  H      1.809556    2.963713   -1.536378
  H     -1.204748    3.562056    1.715583
  H     -3.176448    2.515821    0.936171
  H     -1.635491    0.085426    0.861579
  H     -4.149327    4.488437   -3.696040
  H     -4.358431    0.904939   -3.502654
  H     -2.898635    2.922854   -4.947116

 Multiplicity           Mult            ....    1
 Number of Electrons    NEL             ....  300
 Basis Dimension        Dim             ....  921

ORBITAL ENERGIES
----------------

  NO   OCC          E(Eh)            E(eV)
   0   2.0000     -13.965578      -380.0227
   1   2.0000     -13.964855      -380.0030
   2   2.0000     -13.964488      -379.9930
   3   2.0000     -13.963342      -379.9618
   4   2.0000     -13.962334      -379.9344
   5   2.0000     -13.962155      -379.9295
   6   2.0000      -9.935486      -270.3583
   7   2.0000      -9.934807      -270.3398
   8   2.0000      -9.933761      -270.3114
   9   2.0000      -9.907666      -269.6013
  10   2.0000      -9.907343      -269.5925
  11   2.0000      -9.907233      -269.5895
  12   2.0000      -9.906446      -269.5681
  13   2.0000      -9.905858      -269.5521
  14   2.0000      -9.905726      -269.5485
  15   2.0000      -9.892862      -269.1984
  16   2.0000      -9.892766      -269.1958
  17   2.0000      -9.892722      -269.1947
  18   2.0000      -9.892593      -269.1911
  19   2.0000      -9.892113      -269.1781
  20   2.0000      -9.892028      -269.1758
  21   2.0000      -9.887027      -269.0397
  22   2.0000      -9.885977      -269.0111
  23   2.0000      -9.885193      -268.9898
  24   2.0000      -9.882489      -268.9162
  25   2.0000      -9.878509      -268.8079
  26   2.0000      -9.878114      -268.7971
  27   2.0000      -9.878017      -268.7945
  28   2.0000      -9.877922      -268.7919
  29   2.0000      -9.877660      -268.7848
  30   2.0000      -9.877414      -268.7781
  31   2.0000      -9.877370      -268.7769
  32   2.0000      -9.876183      -268.7446
  33   2.0000      -9.875967      -268.7387
  34   2.0000      -9.875835      -268.7351
  35   2.0000      -9.875009      -268.7127
  36   2.0000      -9.871486      -268.6168
  37   2.0000      -9.871264      -268.6108
  38   2.0000      -9.871137      -268.6073
  39   2.0000      -0.879234       -23.9252
  40   2.0000      -0.878167       -23.8961
  41   2.0000      -0.877415       -23.8757
  42   2.0000      -0.782285       -21.2871
  43   2.0000      -0.779659       -21.2156
  44   2.0000      -0.779257       -21.2047
  45   2.0000      -0.778934       -21.1959
  46   2.0000      -0.744502       -20.2589
  47   2.0000      -0.743821       -20.2404
  48   2.0000      -0.735697       -20.0193
  49   2.0000      -0.715428       -19.4678
  50   2.0000      -0.715139       -19.4599
  51   2.0000      -0.715079       -19.4583
  52   2.0000      -0.690860       -18.7993
  53   2.0000      -0.689677       -18.7671
  54   2.0000      -0.649984       -17.6870
  55   2.0000      -0.639570       -17.4036
  56   2.0000      -0.636700       -17.3255
  57   2.0000      -0.624671       -16.9982
  58   2.0000      -0.624352       -16.9895
  59   2.0000      -0.624273       -16.9873
  60   2.0000      -0.620193       -16.8763
  61   2.0000      -0.620078       -16.8732
  62   2.0000      -0.619915       -16.8687
  63   2.0000      -0.581779       -15.8310
  64   2.0000      -0.573896       -15.6165
  65   2.0000      -0.567192       -15.4341
  66   2.0000      -0.563662       -15.3380
  67   2.0000      -0.563472       -15.3328
  68   2.0000      -0.563372       -15.3301
  69   2.0000      -0.523651       -14.2493
  70   2.0000      -0.516307       -14.0494
  71   2.0000      -0.512541       -13.9470
  72   2.0000      -0.507487       -13.8094
  73   2.0000      -0.507283       -13.8039
  74   2.0000      -0.499240       -13.5850
  75   2.0000      -0.495489       -13.4829
  76   2.0000      -0.495139       -13.4734
  77   2.0000      -0.462918       -12.5967
  78   2.0000      -0.460552       -12.5323
  79   2.0000      -0.448400       -12.2016
  80   2.0000      -0.446207       -12.1419
  81   2.0000      -0.431252       -11.7350
  82   2.0000      -0.431154       -11.7323
  83   2.0000      -0.426331       -11.6011
  84   2.0000      -0.420631       -11.4459
  85   2.0000      -0.414588       -11.2815
  86   2.0000      -0.413827       -11.2608
  87   2.0000      -0.408828       -11.1248
  88   2.0000      -0.401489       -10.9251
  89   2.0000      -0.399580       -10.8731
  90   2.0000      -0.397223       -10.8090
  91   2.0000      -0.396469       -10.7885
  92   2.0000      -0.396413       -10.7869
  93   2.0000      -0.389052       -10.5866
  94   2.0000      -0.385321       -10.4851
  95   2.0000      -0.384404       -10.4602
  96   2.0000      -0.383033       -10.4229
  97   2.0000      -0.375461       -10.2168
  98   2.0000      -0.374002       -10.1771
  99   2.0000      -0.372959       -10.1487
 100   2.0000      -0.369850       -10.0641
 101   2.0000      -0.366904        -9.9840
 102   2.0000      -0.364548        -9.9198
 103   2.0000      -0.352921        -9.6035
 104   2.0000      -0.352810        -9.6005
 105   2.0000      -0.351842        -9.5741
 106   2.0000      -0.349754        -9.5173
 107   2.0000      -0.349167        -9.5013
 108   2.0000      -0.344612        -9.3774
 109   2.0000      -0.341937        -9.3046
 110   2.0000      -0.341311        -9.2875
 111   2.0000      -0.340758        -9.2725
 112   2.0000      -0.336668        -9.1612
 113   2.0000      -0.336453        -9.1553
 114   2.0000      -0.335843        -9.1388
 115   2.0000      -0.327046        -8.8994
 116   2.0000      -0.326646        -8.8885
 117   2.0000      -0.324319        -8.8252
 118   2.0000      -0.319557        -8.6956
 119   2.0000      -0.318906        -8.6779
 120   2.0000      -0.318237        -8.6597
 121   2.0000      -0.312469        -8.5027
 122   2.0000      -0.309166        -8.4128
 123   2.0000      -0.308224        -8.3872
 124   2.0000      -0.304780        -8.2935
 125   2.0000      -0.301196        -8.1960
 126   2.0000      -0.300012        -8.1637
 127   2.0000      -0.298602        -8.1254
 128   2.0000      -0.298403        -8.1200
 129   2.0000      -0.296750        -8.0750
 130   2.0000      -0.291461        -7.9311
 131   2.0000      -0.289536        -7.8787
 132   2.0000      -0.288060        -7.8385
 133   2.0000      -0.286828        -7.8050
 134   2.0000      -0.285339        -7.7645
 135   2.0000      -0.284468        -7.7408
 136   2.0000      -0.283508        -7.7146
 137   2.0000      -0.277004        -7.5377
 138   2.0000      -0.276512        -7.5243
 139   2.0000      -0.272172        -7.4062
 140   2.0000      -0.270742        -7.3673
 141   2.0000      -0.269494        -7.3333
 142   2.0000      -0.215119        -5.8537
 143   2.0000      -0.214308        -5.8316
 144   2.0000      -0.191210        -5.2031
 145   2.0000      -0.190753        -5.1907
 146   2.0000      -0.189571        -5.1585
 147   2.0000      -0.178121        -4.8469
 148   2.0000      -0.176198        -4.7946
 149   2.0000      -0.175289        -4.7699
 150   0.0000      -0.029966        -0.8154
 151   0.0000      -0.027267        -0.7420
 152   0.0000       0.014170         0.3856
 153   0.0000       0.018583         0.5057
 154   0.0000       0.020159         0.5486

MULLIKEN ATOMIC CHARGES
-----------------------
   0 C :    0.577990
   1 C :   -0.739649
   2 C :   -0.274386
   3 C :    0.351894
   4 H :    0.185717
   5 C :   -0.300937
   6 C :    0.467156
   7 H :    0.179012
   8 C :   -0.187829
   9 C :   -0.719458
  10 H :    0.226239
  11 C :   -0.651376
  12 C :   -0.110055
  13 C :    0.090377
  14 N :   -0.235280
  15 H :    0.146152
  16 C :   -0.180233
  17 N :   -0.280118
  18 H :    0.136354
  19 C :   -0.319014
  20 H :    0.159190
  21 C :   -0.586494
  22 C :   -0.474850
  23 H :    0.154396
  24 C :   -0.518271
  25 C :   -0.453275
  26 H :    0.172174
  27 H :    0.160606
  28 H :    0.166832
  29 H :    0.173797
  30 H :    0.191821
  31 H :    0.172216
  32 H :    0.167585
  33 H :    0.170260
  34 H :    0.145464
  35 H :    0.176723
  36 H :    0.182375
  37 H :    0.146986
  38 C :    0.093273
  39 C :   -0.135149
  40 N :   -0.289642
  41 H :    0.130999
  42 C :   -0.313304
  43 N :   -0.245537
  44 H :    0.143946
  45 C :   -0.157609
  46 H :    0.153800
  47 C :   -0.518344
  48 C :   -0.451426
  49 H :    0.157612
  50 C :   -0.596796
  51 C :   -0.477775
  52 H :    0.170188
  53 H :    0.146184
  54 H :    0.167811
  55 H :    0.177001
  56 H :    0.179781
  57 H :    0.147320
  58 H :    0.173164
  59 H :    0.160714
  60 H :    0.167317
  61 H :    0.175840
  62 H :    0.174570
  63 H :    0.191825
  64 C :    0.090068
  65 C :   -0.112372
  66 N :   -0.282704
  67 H :    0.133621
  68 C :   -0.314857
  69 N :   -0.237106
  70 H :    0.145192
  71 C :   -0.175855
  72 H :    0.153919
  73 C :   -0.518294
  74 C :   -0.452232
  75 H :    0.158913
  76 C :   -0.588502
  77 C :   -0.475051
  78 H :    0.167385
  79 H :    0.170159
  80 H :    0.146563
  81 H :    0.180809
  82 H :    0.147161
  83 H :    0.176561
  84 H :    0.172091
  85 H :    0.160897
  86 H :    0.166712
  87 H :    0.174003
  88 H :    0.192016
  89 H :    0.172115
  90 H :    0.290219
  91 H :    0.160151
  92 H :    0.296449
  93 H :    0.288579
  94 H :    0.167583
  95 H :    0.296672
  96 H :    0.290810
  97 H :    0.302271
  98 H :    0.160198
Sum of atomic charges:   -0.0000000

LOEWDIN ATOMIC CHARGES
----------------------
   0 C :   -0.074961
   1 C :   -0.028819
   2 C :   -0.144826
   3 C :   -0.075136
   4 H :    0.178154
   5 C :   -0.136406
   6 C :   -0.074222
   7 H :    0.169106
   8 C :   -0.148244
   9 C :   -0.027528
  10 H :    0.183916
  11 C :   -0.028901
  12 C :   -0.115473
  13 C :   -0.123806
  14 N :   -0.332155
  15 H :    0.155906
  16 C :   -0.221565
  17 N :   -0.356654
  18 H :    0.148484
  19 C :   -0.231416
  20 H :    0.156979
  21 C :   -0.428713
  22 C :   -0.417930
  23 H :    0.156300
  24 C :   -0.424224
  25 C :   -0.419343
  26 H :    0.159934
  27 H :    0.152803
  28 H :    0.151245
  29 H :    0.156631
  30 H :    0.159590
  31 H :    0.153156
  32 H :    0.154258
  33 H :    0.153036
  34 H :    0.149060
  35 H :    0.155677
  36 H :    0.154721
  37 H :    0.149523
  38 C :   -0.123319
  39 C :   -0.116717
  40 N :   -0.357643
  41 H :    0.148288
  42 C :   -0.231033
  43 N :   -0.331965
  44 H :    0.156491
  45 C :   -0.221135
  46 H :    0.156596
  47 C :   -0.424148
  48 C :   -0.419088
  49 H :    0.156971
  50 C :   -0.429070
  51 C :   -0.417972
  52 H :    0.152995
  53 H :    0.149519
  54 H :    0.154371
  55 H :    0.156038
  56 H :    0.154139
  57 H :    0.149443
  58 H :    0.160537
  59 H :    0.152535
  60 H :    0.151453
  61 H :    0.154178
  62 H :    0.157226
  63 H :    0.158708
  64 C :   -0.123364
  65 C :   -0.115659
  66 N :   -0.356666
  67 H :    0.148196
  68 C :   -0.231305
  69 N :   -0.332270
  70 H :    0.155878
  71 C :   -0.221480
  72 H :    0.156361
  73 C :   -0.423913
  74 C :   -0.419098
  75 H :    0.157095
  76 C :   -0.428826
  77 C :   -0.417905
  78 H :    0.154201
  79 H :    0.152952
  80 H :    0.149612
  81 H :    0.154499
  82 H :    0.149447
  83 H :    0.155918
  84 H :    0.159953
  85 H :    0.152830
  86 H :    0.151205
  87 H :    0.156731
  88 H :    0.159462
  89 H :    0.153051
  90 H :    0.261997
  91 H :    0.140191
  92 H :    0.269650
  93 H :    0.261457
  94 H :    0.140942
  95 H :    0.269581
  96 H :    0.262180
  97 H :    0.270143
  98 H :    0.141396

  Mayer bond orders larger than 0.100000
B(  0-C ,  1-C ) :   0.5353 B(  0-C ,  2-C ) :   1.1891 B(  0-C ,  6-C ) :   0.1144
B(  0-C ,  8-C ) :   1.2174 B(  1-C , 14-N ) :   1.1768 B(  1-C , 17-N ) :   1.0713
B(  1-C , 94-H ) :   0.9681 B(  2-C ,  3-C ) :   1.3584 B(  2-C ,  4-H ) :   0.9243
B(  3-C ,  5-C ) :   1.3293 B(  3-C , 11-C ) :   0.6234 B(  3-C , 43-N ) :  -0.1053
B(  5-C ,  6-C ) :   1.3308 B(  5-C ,  7-H ) :   0.9070 B(  6-C ,  8-C ) :   1.2141
B(  6-C ,  9-C ) :   0.5457 B(  8-C , 10-H ) :   0.9373 B(  9-C , 66-N ) :   1.0696
B(  9-C , 69-N ) :   1.1917 B(  9-C , 91-H ) :   0.9685 B( 11-C , 40-N ) :   1.0002
B( 11-C , 43-N ) :   1.1849 B( 11-C , 98-H ) :   0.9586 B( 12-C , 13-C ) :   0.7678
B( 12-C , 14-N ) :   1.0714 B( 12-C , 15-H ) :   0.9538 B( 12-C , 16-C ) :   0.8568
B( 13-C , 17-N ) :   0.9999 B( 13-C , 18-H ) :   0.9441 B( 13-C , 19-C ) :   0.8581
B( 13-C , 24-C ) :  -0.1422 B( 14-N , 95-H ) :   0.8555 B( 16-C , 20-H ) :   0.9567
B( 16-C , 21-C ) :   0.9881 B( 16-C , 22-C ) :   0.9797 B( 17-N , 93-H ) :   0.8628
B( 19-C , 23-H ) :   0.9506 B( 19-C , 24-C ) :   1.0361 B( 19-C , 25-C ) :   0.9860
B( 21-C , 29-H ) :   0.9572 B( 21-C , 30-H ) :   0.9544 B( 21-C , 31-H ) :   0.9588
B( 22-C , 26-H ) :   0.9600 B( 22-C , 27-H ) :   0.9594 B( 22-C , 28-H ) :   0.9599
B( 24-C , 35-H ) :   0.9558 B( 24-C , 36-H ) :   0.9569 B( 24-C , 37-H ) :   0.9515
B( 25-C , 32-H ) :   0.9598 B( 25-C , 33-H ) :   0.9602 B( 25-C , 34-H ) :   0.9539
B( 38-C , 39-C ) :   0.7778 B( 38-C , 40-N ) :   1.0155 B( 38-C , 41-H ) :   0.9398
B( 38-C , 42-C ) :   0.8607 B( 38-C , 47-C ) :  -0.1407 B( 39-C , 43-N ) :   1.0873
B( 39-C , 44-H ) :   0.9518 B( 39-C , 45-C ) :   0.8544 B( 40-N , 96-H ) :   0.8613
B( 42-C , 46-H ) :   0.9505 B( 42-C , 47-C ) :   1.0377 B( 42-C , 48-C ) :   0.9856
B( 43-N , 97-H ) :   0.8476 B( 45-C , 49-H ) :   0.9563 B( 45-C , 50-C ) :   0.9835
B( 45-C , 51-C ) :   0.9764 B( 47-C , 55-H ) :   0.9560 B( 47-C , 56-H ) :   0.9575
B( 47-C , 57-H ) :   0.9516 B( 48-C , 52-H ) :   0.9598 B( 48-C , 53-H ) :   0.9541
B( 48-C , 54-H ) :   0.9599 B( 50-C , 61-H ) :   0.9605 B( 50-C , 62-H ) :   0.9572
B( 50-C , 63-H ) :   0.9542 B( 51-C , 58-H ) :   0.9599 B( 51-C , 59-H ) :   0.9597
B( 51-C , 60-H ) :   0.9596 B( 64-C , 65-C ) :   0.7726 B( 64-C , 66-N ) :   1.0010
B( 64-C , 67-H ) :   0.9446 B( 64-C , 68-C ) :   0.8555 B( 64-C , 73-C ) :  -0.1404
B( 65-C , 69-N ) :   1.0699 B( 65-C , 70-H ) :   0.9520 B( 65-C , 71-C ) :   0.8553
B( 66-N , 90-H ) :   0.8629 B( 68-C , 72-H ) :   0.9513 B( 68-C , 73-C ) :   1.0352
B( 68-C , 74-C ) :   0.9859 B( 69-N , 92-H ) :   0.8557 B( 71-C , 75-H ) :   0.9563
B( 71-C , 76-C ) :   0.9868 B( 71-C , 77-C ) :   0.9788 B( 73-C , 81-H ) :   0.9573
B( 73-C , 82-H ) :   0.9516 B( 73-C , 83-H ) :   0.9560 B( 74-C , 78-H ) :   0.9601
B( 74-C , 79-H ) :   0.9601 B( 74-C , 80-H ) :   0.9540 B( 76-C , 87-H ) :   0.9571
B( 76-C , 88-H ) :   0.9544 B( 76-C , 89-H ) :   0.9592 B( 77-C , 84-H ) :   0.9601
B( 77-C , 85-H ) :   0.9595 B( 77-C , 86-H ) :   0.9598

Dispersion correction           -0.265787711
FINAL SINGLE POINT ENERGY     -1621.385061504880

DIPOLE MOMENT
-------------
                                X             Y             Z
Electronic contribution:     -1.59016       2.81003      -7.04526
Nuclear contribution   :      1.68711      -2.64328       7.38756
                        -----------------------------------------
Total Dipole Moment    :      0.09695       0.16675       0.34230
                        -----------------------------------------
Magnitude (a.u.)       :      0.39291
Magnitude (Debye)      :      0.99869

Rotational constants in cm-1:     0.002832     0.001788     0.001389
Rotational constants in MHz :    84.905848    53.594478    41.630966

                             ****ORCA TERMINATED NORMALLY****
TOTAL RUN TIME: 0 days 1 hours 11 minutes 13 seconds 454 msec
