                         Program Version 4.2.1 -  RELEASE  -
|  1> ! RI-MP2 cc-pVTZ cc-pVTZ/C TIGHTSCF printbasis Grid6 NOFINALGRID SlowConv
|  2>
|  3> %base "_o_1_alde1_2_ami3_2_opt_MP2"
|  4> %maxcore 3000
|  5> %pal
|  6>    nprocs 32
|  7> end
|  8>
|  9> * xyzfile 0 1 _o_1_alde1_2_ami3_2_opt_B97-3c.xyz
| 10>
| 11>                          ****END OF INPUT****

CARTESIAN COORDINATES (ANGSTROEM)
---------------------------------
  C     -1.338661    0.852651   -1.988581
  C     -1.623445   -0.352477   -1.188600
  C     -2.365048    1.535988   -2.637289
  C     -2.081369    2.670182   -3.390203
  H     -3.382799    1.182916   -2.555763
  C     -0.757135    3.105985   -3.481628
  C      0.279253    2.433664   -2.838015
  H     -0.529183    3.989445   -4.068207
  C     -0.026061    1.299101   -2.088162
  C      1.652625    2.923594   -2.956835
  H      0.776027    0.773806   -1.585966
  C     -3.135893    3.410746   -4.087393
  O     -2.721676   -0.843513   -1.030007
  C     -5.324279    3.879864   -4.750226
  C     -6.331196    4.490090   -3.755102
  N     -4.359710    3.088156   -4.019042
  H     -4.844072    4.714670   -5.277508
  C     -6.038542    2.987382   -5.768127
  N     -7.082517    5.545774   -4.438063
  H     -5.745873    4.988097   -2.979427
  C     -7.182144    3.399587   -3.101317
  C     -6.891286    1.915030   -5.105923
  C     -7.886067    2.522731   -4.127255
  C      4.849400    1.886292   -3.331076
  C      3.957902    2.904400   -2.593445
  N      6.053370    2.573377   -3.802540
  H      4.304147    1.580542   -4.226229
  C      5.099107    0.650478   -2.464156
  N      2.638988    2.335811   -2.418481
  H      3.927657    3.812337   -3.209926
  C      4.542993    3.248322   -1.221887
  C      5.681896    1.008537   -1.104138
  C      4.800565    2.011737   -0.373242
  H     -0.727297   -0.807560   -0.716071
  H      6.541320    1.973779   -4.456167
  H      6.694421    2.725396   -3.034069
  H     -7.782462    5.139889   -5.046402
  H     -7.593398    6.084105   -3.749494
  H     -8.627974    3.109754   -4.678458
  H     -8.448042    1.736850   -3.621374
  H     -6.240215    1.222714   -4.571463
  H     -7.413489    1.333465   -5.867579
  H     -6.659318    3.625914   -6.401581
  H     -5.295997    2.536290   -6.427516
  H     -6.532982    2.776718   -2.484080
  H     -7.907664    3.866275   -2.430995
  H     -2.798808    4.273320   -4.682099
  H      1.780333    3.842990   -3.547180
  H      3.846017    1.542238   -0.133059
  H      5.257837    2.300302    0.574687
  H      5.472746    3.801367   -1.377097
  H      3.865990    3.932626   -0.709111
  H      5.762123   -0.033543   -2.999041
  H      4.150997    0.129161   -2.321961
  H      6.686389    1.426628   -1.225421
  H      5.808415    0.106823   -0.503554

 Total Charge           Charge          ....    0
 Multiplicity           Mult            ....    1
 Number of Electrons    NEL             ....  192
 Basis Dimension        Dim             .... 1200

ORBITAL ENERGIES
----------------

  NO   OCC          E(Eh)            E(eV)
   0   2.0000     -20.553716      -559.2951
   1   2.0000     -15.560816      -423.4313
   2   2.0000     -15.557577      -423.3432
   3   2.0000     -15.538010      -422.8107
   4   2.0000     -15.534350      -422.7112
   5   2.0000     -11.333754      -308.4071
   6   2.0000     -11.288952      -307.1880
   7   2.0000     -11.285238      -307.0870
   8   2.0000     -11.266401      -306.5744
   9   2.0000     -11.262048      -306.4559
  10   2.0000     -11.257430      -306.3303
  11   2.0000     -11.257122      -306.3219
  12   2.0000     -11.255856      -306.2874
  13   2.0000     -11.253041      -306.2108
  14   2.0000     -11.251972      -306.1817
  15   2.0000     -11.250441      -306.1401
  16   2.0000     -11.248209      -306.0793
  17   2.0000     -11.246319      -306.0279
  18   2.0000     -11.217777      -305.2512
  19   2.0000     -11.216752      -305.2233
  20   2.0000     -11.213653      -305.1390
  21   2.0000     -11.213334      -305.1303
  22   2.0000     -11.212346      -305.1034
  23   2.0000     -11.211398      -305.0776
  24   2.0000     -11.207766      -304.9788
  25   2.0000     -11.206856      -304.9541
  26   2.0000      -1.388287       -37.7772
  27   2.0000      -1.252045       -34.0699
  28   2.0000      -1.247618       -33.9494
  29   2.0000      -1.193240       -32.4697
  30   2.0000      -1.186909       -32.2974
  31   2.0000      -1.175572       -31.9889
  32   2.0000      -1.096088       -29.8261
  33   2.0000      -1.090502       -29.6741
  34   2.0000      -1.066549       -29.0223
  35   2.0000      -1.058819       -28.8119
  36   2.0000      -1.006093       -27.3772
  37   2.0000      -0.999640       -27.2016
  38   2.0000      -0.982376       -26.7318
  39   2.0000      -0.976710       -26.5776
  40   2.0000      -0.907211       -24.6865
  41   2.0000      -0.895868       -24.3778
  42   2.0000      -0.870805       -23.6958
  43   2.0000      -0.835492       -22.7349
  44   2.0000      -0.831276       -22.6202
  45   2.0000      -0.827062       -22.5055
  46   2.0000      -0.814941       -22.1757
  47   2.0000      -0.784974       -21.3602
  48   2.0000      -0.767144       -20.8750
  49   2.0000      -0.736695       -20.0465
  50   2.0000      -0.731408       -19.9026
  51   2.0000      -0.712483       -19.3877
  52   2.0000      -0.688808       -18.7434
  53   2.0000      -0.685401       -18.6507
  54   2.0000      -0.680496       -18.5172
  55   2.0000      -0.666678       -18.1412
  56   2.0000      -0.654247       -17.8030
  57   2.0000      -0.644247       -17.5308
  58   2.0000      -0.641781       -17.4637
  59   2.0000      -0.628791       -17.1103
  60   2.0000      -0.613384       -16.6910
  61   2.0000      -0.611880       -16.6501
  62   2.0000      -0.610208       -16.6046
  63   2.0000      -0.608802       -16.5663
  64   2.0000      -0.606063       -16.4918
  65   2.0000      -0.599185       -16.3047
  66   2.0000      -0.592022       -16.1097
  67   2.0000      -0.564654       -15.3650
  68   2.0000      -0.556871       -15.1532
  69   2.0000      -0.552635       -15.0380
  70   2.0000      -0.544127       -14.8064
  71   2.0000      -0.540043       -14.6953
  72   2.0000      -0.537517       -14.6266
  73   2.0000      -0.535119       -14.5613
  74   2.0000      -0.524914       -14.2836
  75   2.0000      -0.522963       -14.2305
  76   2.0000      -0.518639       -14.1129
  77   2.0000      -0.517694       -14.0872
  78   2.0000      -0.508823       -13.8458
  79   2.0000      -0.504975       -13.7411
  80   2.0000      -0.496707       -13.5161
  81   2.0000      -0.471330       -12.8255
  82   2.0000      -0.470538       -12.8040
  83   2.0000      -0.466062       -12.6822
  84   2.0000      -0.448515       -12.2047
  85   2.0000      -0.445377       -12.1193
  86   2.0000      -0.440737       -11.9931
  87   2.0000      -0.429096       -11.6763
  88   2.0000      -0.426384       -11.6025
  89   2.0000      -0.412459       -11.2236
  90   2.0000      -0.408720       -11.1218
  91   2.0000      -0.404364       -11.0033
  92   2.0000      -0.388579       -10.5738
  93   2.0000      -0.384722       -10.4688
  94   2.0000      -0.349847        -9.5198
  95   2.0000      -0.327595        -8.9143
  96   0.0000       0.058858         1.6016
  97   0.0000       0.067365         1.8331
  98   0.0000       0.126087         3.4310
  99   0.0000       0.131741         3.5849
 100   0.0000       0.137950         3.7538

MULLIKEN ATOMIC CHARGES
-----------------------
   0 C :    0.070958
   1 C :    0.173871
   2 C :   -0.172167
   3 C :    0.155027
   4 H :    0.202444
   5 C :   -0.211918
   6 C :    0.152764
   7 H :    0.145990
   8 C :   -0.192911
   9 C :   -0.109375
  10 H :    0.176591
  11 C :   -0.115101
  12 O :   -0.358450
  13 C :    0.059667
  14 C :    0.006349
  15 N :   -0.262969
  16 H :    0.106017
  17 C :   -0.223469
  18 N :   -0.385075
  19 H :    0.105673
  20 C :   -0.189287
  21 C :   -0.182586
  22 C :   -0.214817
  23 C :    0.007018
  24 C :    0.059630
  25 N :   -0.384229
  26 H :    0.106735
  27 C :   -0.188169
  28 N :   -0.274808
  29 H :    0.107572
  30 C :   -0.223852
  31 C :   -0.215752
  32 C :   -0.181489
  33 H :    0.089128
  34 H :    0.138985
  35 H :    0.138440
  36 H :    0.138321
  37 H :    0.138469
  38 H :    0.076050
  39 H :    0.116485
  40 H :    0.103300
  41 H :    0.110678
  42 H :    0.099398
  43 H :    0.106507
  44 H :    0.105454
  45 H :    0.100763
  46 H :    0.086805
  47 H :    0.089360
  48 H :    0.096024
  49 H :    0.112263
  50 H :    0.100995
  51 H :    0.107615
  52 H :    0.102256
  53 H :    0.098665
  54 H :    0.078116
  55 H :    0.116043
Sum of atomic charges:   -0.0000000

LOEWDIN ATOMIC CHARGES
----------------------
   0 C :   -0.092368
   1 C :   -0.148750
   2 C :    0.121094
   3 C :   -0.073706
   4 H :   -0.009434
   5 C :    0.081030
   6 C :   -0.077096
   7 H :   -0.018606
   8 C :    0.097993
   9 C :   -0.075347
  10 H :   -0.016277
  11 C :   -0.077169
  12 O :    0.143173
  13 C :   -0.102921
  14 C :   -0.080870
  15 N :    0.243513
  16 H :   -0.031553
  17 C :    0.060371
  18 N :    0.338984
  19 H :   -0.026706
  20 C :    0.056329
  21 C :    0.059719
  22 C :    0.054260
  23 C :   -0.081257
  24 C :   -0.103043
  25 N :    0.339999
  26 H :   -0.026489
  27 C :    0.055797
  28 N :    0.237691
  29 H :   -0.030833
  30 C :    0.060515
  31 C :    0.054172
  32 C :    0.059075
  33 H :   -0.035120
  34 H :   -0.107742
  35 H :   -0.116187
  36 H :   -0.116303
  37 H :   -0.108085
  38 H :   -0.034656
  39 H :   -0.025246
  40 H :   -0.024602
  41 H :   -0.027957
  42 H :   -0.025593
  43 H :   -0.026598
  44 H :   -0.021800
  45 H :   -0.031051
  46 H :   -0.035657
  47 H :   -0.034373
  48 H :   -0.026904
  49 H :   -0.027633
  50 H :   -0.025139
  51 H :   -0.026210
  52 H :   -0.030678
  53 H :   -0.024046
  54 H :   -0.033870
  55 H :   -0.025835

  Mayer bond orders larger than 0.100000
B(  0-C ,  1-C ) :   0.9299 B(  0-C ,  2-C ) :   1.2969 B(  0-C ,  8-C ) :   1.3385
B(  1-C , 12-O ) :   2.0903 B(  1-C , 33-H ) :   1.0208 B(  2-C ,  3-C ) :   1.3402
B(  2-C ,  4-H ) :   0.9479 B(  3-C ,  5-C ) :   1.3478 B(  3-C , 11-C ) :   0.9975
B(  5-C ,  6-C ) :   1.3804 B(  5-C ,  7-H ) :   0.9750 B(  6-C ,  8-C ) :   1.3248
B(  6-C ,  9-C ) :   0.9991 B(  8-C , 10-H ) :   0.9604 B(  9-C , 28-N ) :   2.0149
B(  9-C , 47-H ) :   0.9948 B( 11-C , 15-N ) :   2.0223 B( 11-C , 46-H ) :   0.9963
B( 13-C , 14-C ) :   0.9438 B( 13-C , 15-N ) :   0.9085 B( 13-C , 16-H ) :   0.9951
B( 13-C , 17-C ) :   0.9406 B( 14-C , 18-N ) :   0.9947 B( 14-C , 19-H ) :   0.9955
B( 14-C , 20-C ) :   0.9655 B( 17-C , 21-C ) :   0.9473 B( 17-C , 42-H ) :   0.9889
B( 17-C , 43-H ) :   0.9892 B( 18-N , 36-H ) :   1.0019 B( 18-N , 37-H ) :   0.9983
B( 20-C , 22-C ) :   0.9412 B( 20-C , 44-H ) :   0.9757 B( 20-C , 45-H ) :   0.9920
B( 21-C , 22-C ) :   0.9466 B( 21-C , 40-H ) :   0.9772 B( 21-C , 41-H ) :   0.9959
B( 22-C , 38-H ) :   0.9864 B( 22-C , 39-H ) :   0.9924 B( 23-C , 24-C ) :   0.9438
B( 23-C , 25-N ) :   0.9957 B( 23-C , 26-H ) :   0.9952 B( 23-C , 27-C ) :   0.9649
B( 24-C , 28-N ) :   0.9105 B( 24-C , 29-H ) :   0.9950 B( 24-C , 30-C ) :   0.9404
B( 25-N , 34-H ) :   0.9980 B( 25-N , 35-H ) :   1.0019 B( 27-C , 31-C ) :   0.9408
B( 27-C , 52-H ) :   0.9919 B( 27-C , 53-H ) :   0.9769 B( 30-C , 32-C ) :   0.9473
B( 30-C , 50-H ) :   0.9888 B( 30-C , 51-H ) :   0.9891 B( 31-C , 32-C ) :   0.9462
B( 31-C , 54-H ) :   0.9859 B( 31-C , 55-H ) :   0.9927 B( 32-C , 48-H ) :   0.9785
B( 32-C , 49-H ) :   0.9957

MP2 TOTAL ENERGY:    -1110.225066206 Eh
FINAL SINGLE POINT ENERGY     -1110.225066206347

DIPOLE MOMENT
-------------
                                X             Y             Z
Electronic contribution:     -2.69206      -5.35113       3.42968
Nuclear contribution   :      3.66444       6.13147      -3.82720
                        -----------------------------------------
Total Dipole Moment    :      0.97238       0.78034      -0.39751
                        -----------------------------------------
Magnitude (a.u.)       :      1.30861
Magnitude (Debye)      :      3.32623

Rotational constants in cm-1:     0.015693     0.002070     0.001937
Rotational constants in MHz :   470.472620    62.069907    58.056329

                             ****ORCA TERMINATED NORMALLY****
TOTAL RUN TIME: 0 days 0 hours 26 minutes 35 seconds 306 msec
