                         Program Version 4.2.1 -  RELEASE  -
|  1> ! RI-MP2 cc-pVTZ cc-pVTZ/C TIGHTSCF printbasis Grid6 NOFINALGRID SlowConv
|  2>
|  3> %base "_o_1_alde1_3_ami2_2_opt_MP2"
|  4> %maxcore 3000
|  5> %pal
|  6>    nprocs 32
|  7> end
|  8>
|  9> * xyzfile 0 1 _o_1_alde1_3_ami2_2_opt_B97-3c.xyz
| 10>
| 11>                          ****END OF INPUT****

CARTESIAN COORDINATES (ANGSTROEM)
---------------------------------
  C     -1.166180   -0.382401   -1.243279
  C     -0.860336   -1.473898   -0.319866
  C     -2.478386   -0.118146   -1.651415
  C     -2.755234    0.928313   -2.518925
  H     -3.272746   -0.750168   -1.276853
  C     -1.702456    1.719039   -2.992900
  C     -0.395545    1.471892   -2.598988
  H     -1.930515    2.526831   -3.675714
  C     -0.135174    0.411965   -1.723176
  C      0.679027    2.325353   -3.103359
  H      0.889406    0.224294   -1.430261
  C     -4.139094    1.184928   -2.914711
  C     -2.032703   -3.043414    2.524248
  C     -1.352983   -3.222531    1.144585
  N     -3.493414   -2.998184    2.426648
  C     -1.649464   -4.224531    3.402609
  N     -1.754286   -2.192225    0.223927
  H     -2.122139   -4.130166    4.377739
  C     -5.874465    2.355075   -3.946211
  C     -6.368548    3.754286   -3.503857
  N     -4.481113    2.169433   -3.639038
  H     -5.987765    2.293400   -5.032113
  N     -5.577007    4.838302   -4.090092
  C     -7.811044    3.917315   -3.957754
  C      2.865716    3.124099   -3.259693
  C      3.601506    3.886663   -2.130667
  N      1.886192    2.214429   -2.727394
  H      3.611488    2.532952   -3.798435
  N      4.228203    2.984044   -1.162242
  C      2.612945    4.769525   -1.381110
  H      1.844411    4.171713   -0.894030
  H     -3.830827   -3.884940    2.067595
  H     -3.742058   -2.308100    1.726767
  H     -5.678724    4.816824   -5.099198
  H     -4.597687    4.647038   -3.910570
  H      0.208689   -1.633262   -0.116235
  H      0.371931    3.086599   -3.835439
  H     -0.570988   -4.277220    3.544423
  H     -1.976630   -5.166884    2.959690
  H     -6.511559    1.577531   -3.499630
  H     -7.894301    3.832524   -5.042714
  H     -8.182037    4.898055   -3.668427
  H     -8.453134    3.159047   -3.511939
  H      2.431380    3.841608   -3.971344
  H      2.116991    5.465339   -2.057687
  H      3.132932    5.339158   -0.614789
  C     -6.279834    3.872255   -1.988426
  H     -5.248570    3.792054   -1.648809
  H     -6.855332    3.086465   -1.499308
  H     -6.665745    4.837279   -1.669188
  H     -1.683382   -4.181634    0.736154
  H     -0.261524   -3.272347    1.271441
  C     -1.562160   -1.742870    3.161170
  H     -0.476866   -1.724460    3.259668
  H     -2.003743   -1.633473    4.148671
  H     -1.858091   -0.883368    2.562040
  H      4.938786    2.433138   -1.632032
  H      3.528664    2.319046   -0.851935
  C      4.690590    4.740368   -2.761999
  H      4.270511    5.461869   -3.461275
  H      5.408266    4.123745   -3.306002
  H      5.231576    5.282331   -1.989473
  H     -4.879145    0.465508   -2.534553

 Total Charge           Charge          ....    0
 Multiplicity           Mult            ....    1
 Number of Electrons    NEL             ....  204
 Basis Dimension        Dim             .... 1314

ORBITAL ENERGIES
----------------

  NO   OCC          E(Eh)            E(eV)
   0   2.0000     -15.562405      -423.4746
   1   2.0000     -15.562400      -423.4744
   2   2.0000     -15.562396      -423.4743
   3   2.0000     -15.527292      -422.5191
   4   2.0000     -15.527292      -422.5191
   5   2.0000     -15.527278      -422.5187
   6   2.0000     -11.288483      -307.1752
   7   2.0000     -11.288479      -307.1751
   8   2.0000     -11.288476      -307.1750
   9   2.0000     -11.257328      -306.3275
  10   2.0000     -11.257324      -306.3274
  11   2.0000     -11.257323      -306.3273
  12   2.0000     -11.256019      -306.2918
  13   2.0000     -11.255544      -306.2789
  14   2.0000     -11.255540      -306.2788
  15   2.0000     -11.253802      -306.2315
  16   2.0000     -11.253797      -306.2314
  17   2.0000     -11.253290      -306.2176
  18   2.0000     -11.249913      -306.1257
  19   2.0000     -11.249912      -306.1257
  20   2.0000     -11.249910      -306.1256
  21   2.0000     -11.209711      -305.0318
  22   2.0000     -11.209706      -305.0316
  23   2.0000     -11.209701      -305.0315
  24   2.0000     -11.203606      -304.8656
  25   2.0000     -11.203591      -304.8652
  26   2.0000     -11.203590      -304.8652
  27   2.0000      -1.252409       -34.0798
  28   2.0000      -1.248378       -33.9701
  29   2.0000      -1.248371       -33.9699
  30   2.0000      -1.191991       -32.4357
  31   2.0000      -1.185722       -32.2651
  32   2.0000      -1.185717       -32.2650
  33   2.0000      -1.168129       -31.7864
  34   2.0000      -1.065856       -29.0034
  35   2.0000      -1.065851       -29.0033
  36   2.0000      -1.029765       -28.0213
  37   2.0000      -1.024932       -27.8898
  38   2.0000      -1.024926       -27.8897
  39   2.0000      -0.953132       -25.9360
  40   2.0000      -0.946854       -25.7652
  41   2.0000      -0.946846       -25.7650
  42   2.0000      -0.935556       -25.4578
  43   2.0000      -0.935524       -25.4569
  44   2.0000      -0.935514       -25.4566
  45   2.0000      -0.871196       -23.7065
  46   2.0000      -0.871193       -23.7064
  47   2.0000      -0.834494       -22.7077
  48   2.0000      -0.763477       -20.7753
  49   2.0000      -0.763473       -20.7752
  50   2.0000      -0.753756       -20.5107
  51   2.0000      -0.745519       -20.2866
  52   2.0000      -0.745514       -20.2865
  53   2.0000      -0.712185       -19.3795
  54   2.0000      -0.692079       -18.8324
  55   2.0000      -0.667281       -18.1576
  56   2.0000      -0.662921       -18.0390
  57   2.0000      -0.662906       -18.0386
  58   2.0000      -0.653751       -17.7895
  59   2.0000      -0.652271       -17.7492
  60   2.0000      -0.652248       -17.7486
  61   2.0000      -0.639192       -17.3933
  62   2.0000      -0.639177       -17.3929
  63   2.0000      -0.627309       -17.0700
  64   2.0000      -0.616560       -16.7774
  65   2.0000      -0.616539       -16.7769
  66   2.0000      -0.602278       -16.3888
  67   2.0000      -0.596550       -16.2330
  68   2.0000      -0.596317       -16.2266
  69   2.0000      -0.596314       -16.2265
  70   2.0000      -0.571297       -15.5458
  71   2.0000      -0.568052       -15.4575
  72   2.0000      -0.568012       -15.4564
  73   2.0000      -0.547930       -14.9099
  74   2.0000      -0.532941       -14.5021
  75   2.0000      -0.532929       -14.5017
  76   2.0000      -0.528383       -14.3780
  77   2.0000      -0.527828       -14.3629
  78   2.0000      -0.527822       -14.3628
  79   2.0000      -0.522376       -14.2146
  80   2.0000      -0.517155       -14.0725
  81   2.0000      -0.517138       -14.0720
  82   2.0000      -0.506613       -13.7856
  83   2.0000      -0.504194       -13.7198
  84   2.0000      -0.504183       -13.7195
  85   2.0000      -0.493941       -13.4408
  86   2.0000      -0.493930       -13.4405
  87   2.0000      -0.489106       -13.3093
  88   2.0000      -0.471242       -12.8231
  89   2.0000      -0.471218       -12.8225
  90   2.0000      -0.469224       -12.7682
  91   2.0000      -0.455813       -12.4033
  92   2.0000      -0.455801       -12.4030
  93   2.0000      -0.419465       -11.4142
  94   2.0000      -0.415443       -11.3048
  95   2.0000      -0.413990       -11.2653
  96   2.0000      -0.413975       -11.2648
  97   2.0000      -0.387785       -10.5522
  98   2.0000      -0.387770       -10.5518
  99   2.0000      -0.378364       -10.2958
 100   2.0000      -0.329551        -8.9675
 101   2.0000      -0.329548        -8.9675
 102   0.0000       0.067193         1.8284
 103   0.0000       0.067197         1.8285
 104   0.0000       0.125648         3.4191
 105   0.0000       0.133401         3.6300
 106   0.0000       0.136764         3.7215

MULLIKEN ATOMIC CHARGES
-----------------------
   0 C :    0.151909
   1 C :   -0.091810
   2 C :   -0.195915
   3 C :    0.151962
   4 H :    0.160613
   5 C :   -0.196027
   6 C :    0.151942
   7 H :    0.160621
   8 C :   -0.195977
   9 C :   -0.091814
  10 H :    0.160588
  11 C :   -0.091841
  12 C :    0.158841
  13 C :   -0.041381
  14 N :   -0.381894
  15 C :   -0.307034
  16 N :   -0.267553
  17 H :    0.113248
  18 C :   -0.041496
  19 C :    0.158876
  20 N :   -0.267557
  21 H :    0.102982
  22 N :   -0.381845
  23 C :   -0.307022
  24 C :   -0.041410
  25 C :    0.158719
  26 N :   -0.267551
  27 H :    0.102975
  28 N :   -0.381789
  29 C :   -0.313187
  30 H :    0.104743
  31 H :    0.125029
  32 H :    0.144369
  33 H :    0.125033
  34 H :    0.144329
  35 H :    0.093283
  36 H :    0.093262
  37 H :    0.092012
  38 H :    0.090544
  39 H :    0.060484
  40 H :    0.090566
  41 H :    0.113244
  42 H :    0.092014
  43 H :    0.060472
  44 H :    0.087059
  45 H :    0.113774
  46 C :   -0.313276
  47 H :    0.104767
  48 H :    0.087065
  49 H :    0.113787
  50 H :    0.102973
  51 H :    0.060468
  52 C :   -0.313143
  53 H :    0.087020
  54 H :    0.113750
  55 H :    0.104753
  56 H :    0.125022
  57 H :    0.144313
  58 C :   -0.306955
  59 H :    0.091979
  60 H :    0.090581
  61 H :    0.113224
  62 H :    0.093283
Sum of atomic charges:   -0.0000000

LOEWDIN ATOMIC CHARGES
----------------------
   0 C :   -0.076349
   1 C :   -0.072440
   2 C :    0.092595
   3 C :   -0.076364
   4 H :   -0.019469
   5 C :    0.092590
   6 C :   -0.076364
   7 H :   -0.019465
   8 C :    0.092594
   9 C :   -0.072449
  10 H :   -0.019456
  11 C :   -0.072421
  12 C :   -0.195324
  13 C :   -0.037942
  14 N :    0.340835
  15 C :    0.116944
  16 N :    0.221560
  17 H :   -0.023086
  18 C :   -0.037933
  19 C :   -0.195342
  20 N :    0.221548
  21 H :   -0.029590
  22 N :    0.340836
  23 C :    0.116945
  24 C :   -0.037964
  25 C :   -0.195316
  26 N :    0.221505
  27 H :   -0.029569
  28 N :    0.340805
  29 C :    0.114130
  30 H :   -0.031178
  31 H :   -0.108265
  32 H :   -0.108996
  33 H :   -0.108262
  34 H :   -0.108978
  35 H :   -0.033907
  36 H :   -0.033891
  37 H :   -0.027739
  38 H :   -0.030671
  39 H :   -0.036067
  40 H :   -0.030659
  41 H :   -0.023084
  42 H :   -0.027745
  43 H :   -0.036068
  44 H :   -0.030285
  45 H :   -0.024749
  46 C :    0.114105
  47 H :   -0.031169
  48 H :   -0.030289
  49 H :   -0.024752
  50 H :   -0.029567
  51 H :   -0.036078
  52 C :    0.114120
  53 H :   -0.030291
  54 H :   -0.024756
  55 H :   -0.031169
  56 H :   -0.108245
  57 H :   -0.108972
  58 C :    0.116958
  59 H :   -0.027739
  60 H :   -0.030669
  61 H :   -0.023096
  62 H :   -0.033893

  Mayer bond orders larger than 0.100000
B(  0-C ,  1-C ) :   1.0033 B(  0-C ,  2-C ) :   1.2977 B(  0-C ,  8-C ) :   1.3983
B(  1-C , 16-N ) :   1.9860 B(  1-C , 35-H ) :   0.9889 B(  2-C ,  3-C ) :   1.3983
B(  2-C ,  4-H ) :   0.9639 B(  3-C ,  5-C ) :   1.2977 B(  3-C , 11-C ) :   1.0033
B(  5-C ,  6-C ) :   1.3982 B(  5-C ,  7-H ) :   0.9639 B(  6-C ,  8-C ) :   1.2977
B(  6-C ,  9-C ) :   1.0034 B(  8-C , 10-H ) :   0.9639 B(  9-C , 26-N ) :   1.9859
B(  9-C , 36-H ) :   0.9889 B( 11-C , 20-N ) :   1.9859 B( 11-C , 62-H ) :   0.9889
B( 12-C , 13-C ) :   0.9711 B( 12-C , 14-N ) :   0.9662 B( 12-C , 15-C ) :   0.9505
B( 12-C , 52-C ) :   0.9325 B( 13-C , 16-N ) :   0.9641 B( 13-C , 50-H ) :   0.9771
B( 13-C , 51-H ) :   0.9786 B( 14-N , 31-H ) :   0.9979 B( 14-N , 32-H ) :   0.9938
B( 15-C , 17-H ) :   0.9845 B( 15-C , 37-H ) :   0.9859 B( 15-C , 38-H ) :   0.9803
B( 18-C , 19-C ) :   0.9710 B( 18-C , 20-N ) :   0.9642 B( 18-C , 21-H ) :   0.9772
B( 18-C , 39-H ) :   0.9786 B( 19-C , 22-N ) :   0.9662 B( 19-C , 23-C ) :   0.9505
B( 19-C , 46-C ) :   0.9325 B( 22-N , 33-H ) :   0.9979 B( 22-N , 34-H ) :   0.9938
B( 23-C , 40-H ) :   0.9803 B( 23-C , 41-H ) :   0.9845 B( 23-C , 42-H ) :   0.9859
B( 24-C , 25-C ) :   0.9710 B( 24-C , 26-N ) :   0.9641 B( 24-C , 27-H ) :   0.9772
B( 24-C , 43-H ) :   0.9786 B( 25-C , 28-N ) :   0.9663 B( 25-C , 29-C ) :   0.9325
B( 25-C , 58-C ) :   0.9505 B( 28-N , 56-H ) :   0.9979 B( 28-N , 57-H ) :   0.9938
B( 29-C , 30-H ) :   0.9789 B( 29-C , 44-H ) :   0.9860 B( 29-C , 45-H ) :   0.9842
B( 46-C , 47-H ) :   0.9789 B( 46-C , 48-H ) :   0.9860 B( 46-C , 49-H ) :   0.9842
B( 52-C , 53-H ) :   0.9860 B( 52-C , 54-H ) :   0.9842 B( 52-C , 55-H ) :   0.9789
B( 58-C , 59-H ) :   0.9859 B( 58-C , 60-H ) :   0.9803 B( 58-C , 61-H ) :   0.9845

MP2 TOTAL ENERGY:    -1148.003721004 Eh
FINAL SINGLE POINT ENERGY     -1148.003721003543

DIPOLE MOMENT
-------------
                                X             Y             Z
Electronic contribution:      1.53356      -8.19563     -10.32946
Nuclear contribution   :     -1.37355       7.33442       9.24449
                        -----------------------------------------
Total Dipole Moment    :      0.16001      -0.86120      -1.08497
                        -----------------------------------------
Magnitude (a.u.)       :      1.39443
Magnitude (Debye)      :      3.54436

Rotational constants in cm-1:     0.003575     0.003571     0.001923
Rotational constants in MHz :   107.179763   107.046376    57.648565

                             ****ORCA TERMINATED NORMALLY****
TOTAL RUN TIME: 0 days 0 hours 22 minutes 51 seconds 611 msec
