                         Program Version 4.2.1 -  RELEASE  -
|  1> ! RI-MP2 cc-pVTZ cc-pVTZ/C TIGHTSCF printbasis Grid6 NOFINALGRID SlowConv
|  2>
|  3> %base "_o_1_alde1_2_ami2_2_opt_MP2"
|  4> %maxcore 3000
|  5> %pal
|  6>    nprocs 32
|  7> end
|  8>
|  9> * xyzfile 0 1 _o_1_alde1_2_ami2_2_opt_B97-3c.xyz
| 10>
| 11>                          ****END OF INPUT****

CARTESIAN COORDINATES (ANGSTROEM)
---------------------------------
  C     -2.089695    1.400626    0.375504
  C     -2.753191    0.648832    1.453875
  C     -2.861301    2.007598   -0.602693
  C     -2.254743    2.731383   -1.634251
  H     -3.940896    1.932101   -0.581269
  C     -0.870589    2.826328   -1.664488
  C     -0.077781    2.211058   -0.688278
  H     -0.376951    3.378902   -2.452851
  C     -0.696321    1.505134    0.332598
  C      1.381971    2.293735   -0.734122
  H     -0.115230    1.019203    1.106089
  C     -3.046588    3.383326   -2.676749
  O     -2.178657    0.076798    2.357385
  C     -5.004905    3.920753   -3.829158
  C     -5.839648    2.912322   -4.657758
  N     -4.307301    3.266388   -2.754862
  N     -6.792178    2.164340   -3.835268
  C      4.032133    2.187734   -2.948689
  C      3.446368    2.849891   -1.675413
  N      3.538910    2.807547   -4.180088
  N      2.007473    2.840594   -1.693230
  H     -3.861259    0.635361    1.387510
  H      3.840306    3.775490   -4.211008
  H      2.526621    2.837473   -4.137513
  H     -7.465781    2.807588   -3.433685
  H     -6.290887    1.766698   -3.049101
  H     -2.474841    3.984300   -3.398041
  H      1.908430    1.841104    0.118062
  C     -4.910319    1.911971   -5.332680
  C      5.545394    2.338123   -2.913552
  H      3.771503    3.893987   -1.667556
  H      3.861013    2.364377   -0.780075
  H      5.981972    1.887761   -3.802036
  H      5.972094    1.855327   -2.036042
  H      5.835742    3.389515   -2.890818
  H     -5.700564    4.637552   -3.384289
  H     -4.329524    4.479127   -4.493482
  H     -4.179316    2.418795   -5.962634
  H     -5.487428    1.228259   -5.950592
  H     -4.365776    1.322422   -4.596676
  C     -6.620926    3.689701   -5.705780
  H     -7.289948    4.414849   -5.239898
  H     -7.224910    3.007176   -6.299268
  H     -5.954168    4.232237   -6.373990
  C      3.652793    0.713085   -2.977865
  H      2.572829    0.586308   -3.037783
  H      4.000701    0.200429   -2.081081
  H      4.096761    0.233873   -3.847111

 Total Charge           Charge          ....    0
 Multiplicity           Mult            ....    1
 Number of Electrons    NEL             ....  164
 Basis Dimension        Dim             .... 1024

ORBITAL ENERGIES
----------------

  NO   OCC          E(Eh)            E(eV)
   0   2.0000     -20.559859      -559.4622
   1   2.0000     -15.568622      -423.6437
   2   2.0000     -15.568229      -423.6330
   3   2.0000     -15.530551      -422.6078
   4   2.0000     -15.530399      -422.6036
   5   2.0000     -11.340127      -308.5806
   6   2.0000     -11.294598      -307.3416
   7   2.0000     -11.294176      -307.3302
   8   2.0000     -11.269498      -306.6586
   9   2.0000     -11.267709      -306.6100
  10   2.0000     -11.267566      -306.6061
  11   2.0000     -11.262801      -306.4764
  12   2.0000     -11.262526      -306.4689
  13   2.0000     -11.260932      -306.4255
  14   2.0000     -11.260910      -306.4249
  15   2.0000     -11.259712      -306.3923
  16   2.0000     -11.254187      -306.2420
  17   2.0000     -11.253962      -306.2359
  18   2.0000     -11.212418      -305.1054
  19   2.0000     -11.212268      -305.1013
  20   2.0000     -11.206985      -304.9576
  21   2.0000     -11.206858      -304.9541
  22   2.0000      -1.394564       -37.9480
  23   2.0000      -1.257066       -34.2065
  24   2.0000      -1.253905       -34.1205
  25   2.0000      -1.196864       -32.5683
  26   2.0000      -1.189409       -32.3655
  27   2.0000      -1.179309       -32.0906
  28   2.0000      -1.074582       -29.2409
  29   2.0000      -1.073233       -29.2041
  30   2.0000      -1.031604       -28.0714
  31   2.0000      -1.028942       -27.9989
  32   2.0000      -0.956349       -26.0236
  33   2.0000      -0.953434       -25.9443
  34   2.0000      -0.938669       -25.5425
  35   2.0000      -0.938542       -25.5390
  36   2.0000      -0.907243       -24.6873
  37   2.0000      -0.879255       -23.9258
  38   2.0000      -0.850037       -23.1307
  39   2.0000      -0.775210       -21.0945
  40   2.0000      -0.769242       -20.9321
  41   2.0000      -0.755504       -20.5583
  42   2.0000      -0.750754       -20.4291
  43   2.0000      -0.724015       -19.7014
  44   2.0000      -0.701382       -19.0856
  45   2.0000      -0.673936       -18.3387
  46   2.0000      -0.668114       -18.1803
  47   2.0000      -0.658755       -17.9256
  48   2.0000      -0.656648       -17.8683
  49   2.0000      -0.655672       -17.8417
  50   2.0000      -0.645361       -17.5612
  51   2.0000      -0.638941       -17.3865
  52   2.0000      -0.627100       -17.0643
  53   2.0000      -0.620623       -16.8880
  54   2.0000      -0.606699       -16.5091
  55   2.0000      -0.601314       -16.3626
  56   2.0000      -0.600953       -16.3528
  57   2.0000      -0.576958       -15.6998
  58   2.0000      -0.574082       -15.6216
  59   2.0000      -0.566244       -15.4083
  60   2.0000      -0.542592       -14.7647
  61   2.0000      -0.538777       -14.6609
  62   2.0000      -0.531463       -14.4618
  63   2.0000      -0.531009       -14.4495
  64   2.0000      -0.530096       -14.4246
  65   2.0000      -0.523353       -14.2412
  66   2.0000      -0.521628       -14.1942
  67   2.0000      -0.509193       -13.8558
  68   2.0000      -0.509078       -13.8527
  69   2.0000      -0.497849       -13.5472
  70   2.0000      -0.492647       -13.4056
  71   2.0000      -0.474953       -12.9241
  72   2.0000      -0.472673       -12.8621
  73   2.0000      -0.461035       -12.5454
  74   2.0000      -0.437249       -11.8981
  75   2.0000      -0.433431       -11.7943
  76   2.0000      -0.421496       -11.4695
  77   2.0000      -0.419586       -11.4175
  78   2.0000      -0.391247       -10.6464
  79   2.0000      -0.388321       -10.5667
  80   2.0000      -0.351849        -9.5743
  81   2.0000      -0.337506        -9.1840
  82   0.0000       0.054107         1.4723
  83   0.0000       0.060231         1.6390
  84   0.0000       0.119432         3.2499
  85   0.0000       0.130142         3.5413
  86   0.0000       0.134185         3.6514

MULLIKEN ATOMIC CHARGES
-----------------------
   0 C :    0.070761
   1 C :    0.173414
   2 C :   -0.187025
   3 C :    0.147655
   4 H :    0.169750
   5 C :   -0.174379
   6 C :    0.147780
   7 H :    0.164651
   8 C :   -0.199494
   9 C :   -0.094004
  10 H :    0.176146
  11 C :   -0.093953
  12 O :   -0.361835
  13 C :   -0.042788
  14 C :    0.157954
  15 N :   -0.266244
  16 N :   -0.380784
  17 C :    0.156873
  18 C :   -0.043695
  19 N :   -0.381001
  20 N :   -0.267544
  21 H :    0.093252
  22 H :    0.125685
  23 H :    0.143529
  24 H :    0.125929
  25 H :    0.143724
  26 H :    0.095267
  27 H :    0.098444
  28 C :   -0.312946
  29 C :   -0.307124
  30 H :    0.104327
  31 H :    0.063073
  32 H :    0.113867
  33 H :    0.092975
  34 H :    0.091314
  35 H :    0.104639
  36 H :    0.061755
  37 H :    0.087218
  38 H :    0.115035
  39 H :    0.103654
  40 C :   -0.307180
  41 H :    0.091451
  42 H :    0.114177
  43 H :    0.092346
  44 C :   -0.312697
  45 H :    0.103358
  46 H :    0.088077
  47 H :    0.114615
Sum of atomic charges:   -0.0000000

LOEWDIN ATOMIC CHARGES
----------------------
   0 C :   -0.093340
   1 C :   -0.147815
   2 C :    0.101845
   3 C :   -0.075420
   4 H :   -0.015976
   5 C :    0.104491
   6 C :   -0.074553
   7 H :   -0.016876
   8 C :    0.100141
   9 C :   -0.072147
  10 H :   -0.011307
  11 C :   -0.073313
  12 O :    0.140753
  13 C :   -0.036995
  14 C :   -0.195224
  15 N :    0.224413
  16 N :    0.341982
  17 C :   -0.194893
  18 C :   -0.036499
  19 N :    0.341625
  20 N :    0.223445
  21 H :   -0.033644
  22 H :   -0.108045
  23 H :   -0.109482
  24 H :   -0.107846
  25 H :   -0.109136
  26 H :   -0.033646
  27 H :   -0.032827
  28 C :    0.114135
  29 C :    0.117480
  30 H :   -0.029051
  31 H :   -0.035534
  32 H :   -0.022735
  33 H :   -0.027626
  34 H :   -0.030596
  35 H :   -0.028835
  36 H :   -0.035797
  37 H :   -0.030218
  38 H :   -0.024237
  39 H :   -0.031561
  40 C :    0.117442
  41 H :   -0.030439
  42 H :   -0.022702
  43 H :   -0.027677
  44 C :    0.114055
  45 H :   -0.031514
  46 H :   -0.029953
  47 H :   -0.024348

  Mayer bond orders larger than 0.100000
B(  0-C ,  1-C ) :   0.9295 B(  0-C ,  2-C ) :   1.3782 B(  0-C ,  8-C ) :   1.2865
B(  1-C , 12-O ) :   2.0881 B(  1-C , 21-H ) :   1.0205 B(  2-C ,  3-C ) :   1.2845
B(  2-C ,  4-H ) :   0.9601 B(  3-C ,  5-C ) :   1.3993 B(  3-C , 11-C ) :   1.0043
B(  5-C ,  6-C ) :   1.2951 B(  5-C ,  7-H ) :   0.9618 B(  6-C ,  8-C ) :   1.3898
B(  6-C ,  9-C ) :   1.0063 B(  8-C , 10-H ) :   0.9623 B(  9-C , 20-N ) :   1.9857
B(  9-C , 27-H ) :   0.9880 B( 11-C , 15-N ) :   1.9864 B( 11-C , 26-H ) :   0.9894
B( 13-C , 14-C ) :   0.9704 B( 13-C , 15-N ) :   0.9622 B( 13-C , 35-H ) :   0.9768
B( 13-C , 36-H ) :   0.9788 B( 14-C , 16-N ) :   0.9664 B( 14-C , 28-C ) :   0.9327
B( 14-C , 40-C ) :   0.9506 B( 16-N , 24-H ) :   0.9976 B( 16-N , 25-H ) :   0.9941
B( 17-C , 18-C ) :   0.9706 B( 17-C , 19-N ) :   0.9658 B( 17-C , 29-C ) :   0.9508
B( 17-C , 44-C ) :   0.9326 B( 18-C , 20-N ) :   0.9631 B( 18-C , 30-H ) :   0.9770
B( 18-C , 31-H ) :   0.9794 B( 19-N , 22-H ) :   0.9977 B( 19-N , 23-H ) :   0.9942
B( 28-C , 37-H ) :   0.9859 B( 28-C , 38-H ) :   0.9840 B( 28-C , 39-H ) :   0.9789
B( 29-C , 32-H ) :   0.9842 B( 29-C , 33-H ) :   0.9856 B( 29-C , 34-H ) :   0.9801
B( 40-C , 41-H ) :   0.9801 B( 40-C , 42-H ) :   0.9842 B( 40-C , 43-H ) :   0.9858
B( 44-C , 45-H ) :   0.9790 B( 44-C , 46-H ) :   0.9858 B( 44-C , 47-H ) :   0.9840

MP2 TOTAL ENERGY:     -955.721300387 Eh
FINAL SINGLE POINT ENERGY      -955.721300387337

DIPOLE MOMENT
-------------
                                X             Y             Z
Electronic contribution:     -5.97742      -2.72738      23.39738
Nuclear contribution   :      6.28615       4.01597     -23.64501
                        -----------------------------------------
Total Dipole Moment    :      0.30873       1.28859      -0.24764
                        -----------------------------------------
Magnitude (a.u.)       :      1.34800
Magnitude (Debye)      :      3.42634

Rotational constants in cm-1:     0.010601     0.003761     0.002941
Rotational constants in MHz :   317.815584   112.757391    88.183584

                             ****ORCA TERMINATED NORMALLY****
TOTAL RUN TIME: 0 days 0 hours 15 minutes 29 seconds 782 msec
