                         Program Version 4.2.1 -  RELEASE  -
|  1> ! DFT COPT B97-3c TightSCF printbasis  Grid6 NOFINALGRID SlowConv
|  2>
|  3> %base "_o_1_alde1_3_ami3_1_opt_B97-3c"
|  4> %maxcore 3000
|  5> %scf
|  6>    MaxIter 2000
|  7> end
|  8> %pal
|  9>    nprocs 32
| 10> end
| 11>
| 12> * xyzfile 0 1 o_1_alde1_3_ami3_1_opt.xyz
| 13> # * xyzfile 0 1 _o_1_alde1_3_ami3_1_opt_B97-3c.xyz
| 14>
| 15>                          ****END OF INPUT****
 Total Charge           Charge          ....    0
 Multiplicity           Mult            ....    1
 Number of Electrons    NEL             ....  246
Dispersion correction           -0.213165809
FINAL SINGLE POINT ENERGY     -1381.999589946335
Dispersion correction            ... done
Dispersion correction           -0.213202128
FINAL SINGLE POINT ENERGY     -1382.001139408344
Dispersion correction            ... done
Dispersion correction           -0.213267756
FINAL SINGLE POINT ENERGY     -1382.001854661529
Dispersion correction            ... done
FINAL SINGLE POINT ENERGY     -1382.002379469501
FINAL SINGLE POINT ENERGY     -1382.002771180513
FINAL SINGLE POINT ENERGY     -1382.002970600863
FINAL SINGLE POINT ENERGY     -1382.003126400314
FINAL SINGLE POINT ENERGY     -1382.003280172554
FINAL SINGLE POINT ENERGY     -1382.003427190657
FINAL SINGLE POINT ENERGY     -1382.003531302310
FINAL SINGLE POINT ENERGY     -1382.004038168287
FINAL SINGLE POINT ENERGY     -1382.004052929806
FINAL SINGLE POINT ENERGY     -1382.004067844695
FINAL SINGLE POINT ENERGY     -1382.004082993621
FINAL SINGLE POINT ENERGY     -1382.004095320340
FINAL SINGLE POINT ENERGY     -1382.004103894353
FINAL SINGLE POINT ENERGY     -1382.004111008897
Dispersion correction            ... done
Dispersion correction           -0.212621219
FINAL SINGLE POINT ENERGY     -1382.004117160331
Dispersion correction            ... done
Dispersion correction           -0.212601174
FINAL SINGLE POINT ENERGY     -1382.004121781982
Dispersion correction            ... done
                    ***********************HURRAY********************

CARTESIAN COORDINATES (ANGSTROEM)
---------------------------------
  C     -1.456625    0.725126   -1.768885
  C     -1.386792    0.388281   -0.302236
  C     -2.661982    1.012955   -2.392219
  C     -2.697955    1.362319   -3.739795
  H     -3.578381    0.929488   -1.824262
  C     -1.514543    1.411223   -4.461853
  C     -0.297244    1.125071   -3.849010
  H     -1.554042    1.642624   -5.517408
  C     -0.276403    0.778044   -2.506147
  C      0.970139    1.234213   -4.656022
  H      0.667133    0.516395   -2.047264
  C     -4.021420    1.711543   -4.369046
  C     -1.584383    1.683912    1.632470
  C     -2.971677    1.276514    1.156035
  N     -0.755023    1.521139    0.444035
  N     -2.711359    0.119601    0.308172
  C     -4.086693    3.239715   -6.126092
  C     -4.985231    3.743304   -5.005158
  N     -3.965996    1.813875   -5.847447
  N     -4.502313    3.023260   -3.832563
  C      2.955987    1.827573   -3.592673
  C      2.680231    2.826439   -4.707914
  N      2.158402    0.668080   -3.973046
  N      1.251538    2.673053   -4.956678
  H      2.683800    0.121003   -4.643954
  H      0.835500    0.700560   -5.599404
  H      0.743007    3.231297   -4.278900
  H     -0.767752   -0.502256   -0.173238
  H     -0.845644    2.352824   -0.130187
  H     -4.773922    1.340122   -6.232487
  H     -3.696092    3.514279   -3.460320
  H     -4.750303    0.940520   -4.109974
  C     -3.933777    1.118811    2.304287
  H     -2.633004   -0.700850    0.896509
  C     -4.590728    3.662797   -7.481030
  C      4.432573    1.635407   -3.365338
  H     -3.341447    2.083932    0.511785
  C     -3.982218    2.445786    3.065896
  H     -3.589075    0.318387    2.967156
  H     -4.928324    0.838144    1.955543
  C     -2.599149    2.950916    3.479582
  H     -4.616685    2.348212    3.947954
  H     -4.458950    3.195146    2.428213
  C     -1.611591    3.029961    2.311746
  H     -2.693199    3.927317    3.957046
  H     -2.187818    2.278439    4.237451
  H     -0.621706    3.322471    2.664275
  H     -1.936489    3.794278    1.598540
  H     -1.261402    0.937860    2.370449
  H     -3.098755    3.692215   -5.974809
  C     -4.682358    5.190742   -7.495125
  H     -5.578811    3.226274   -7.659943
  H     -3.936235    3.308553   -8.278315
  C     -5.493496    5.753599   -6.327071
  H     -5.111628    5.531349   -8.438428
  H     -3.669259    5.600009   -7.455259
  C     -5.014781    5.250373   -4.962141
  H     -6.541874    5.469703   -6.453868
  H     -5.467345    6.843902   -6.354293
  H     -6.002522    3.389889   -5.219056
  H     -5.665375    5.617248   -4.167257
  H     -4.009564    5.631111   -4.754887
  H      2.522113    2.242043   -2.674178
  C      5.042665    3.001593   -3.041942
  H      4.894348    1.222920   -4.268374
  H      4.622773    0.927467   -2.557769
  C      4.708251    4.069673   -4.084359
  H      6.125276    2.913558   -2.940376
  H      4.669919    3.326557   -2.066786
  C      3.206836    4.195722   -4.359035
  H      5.213261    3.820792   -5.021801
  H      5.112633    5.031658   -3.766180
  H      3.021248    4.913748   -5.158849
  H      2.693787    4.569698   -3.467228
  H      3.214695    2.474638   -5.600164

 Multiplicity           Mult            ....    1
 Number of Electrons    NEL             ....  246
 Basis Dimension        Dim             ....  753

ORBITAL ENERGIES
----------------

  NO   OCC          E(Eh)            E(eV)
   0   2.0000     -13.967949      -380.0872
   1   2.0000     -13.967932      -380.0868
   2   2.0000     -13.967921      -380.0865
   3   2.0000     -13.967054      -380.0629
   4   2.0000     -13.967022      -380.0620
   5   2.0000     -13.967021      -380.0620
   6   2.0000      -9.936988      -270.3992
   7   2.0000      -9.936984      -270.3991
   8   2.0000      -9.936969      -270.3987
   9   2.0000      -9.904996      -269.5286
  10   2.0000      -9.904980      -269.5282
  11   2.0000      -9.904976      -269.5281
  12   2.0000      -9.904665      -269.5196
  13   2.0000      -9.904648      -269.5192
  14   2.0000      -9.904645      -269.5191
  15   2.0000      -9.887813      -269.0611
  16   2.0000      -9.887812      -269.0610
  17   2.0000      -9.887797      -269.0606
  18   2.0000      -9.887435      -269.0508
  19   2.0000      -9.887428      -269.0506
  20   2.0000      -9.887415      -269.0502
  21   2.0000      -9.886666      -269.0299
  22   2.0000      -9.886666      -269.0299
  23   2.0000      -9.886649      -269.0294
  24   2.0000      -9.886175      -269.0165
  25   2.0000      -9.886155      -269.0160
  26   2.0000      -9.886155      -269.0160
  27   2.0000      -9.884389      -268.9679
  28   2.0000      -9.884386      -268.9678
  29   2.0000      -9.884383      -268.9677
  30   2.0000      -9.874098      -268.6879
  31   2.0000      -9.874087      -268.6876
  32   2.0000      -9.874068      -268.6871
  33   2.0000      -0.879578       -23.9345
  34   2.0000      -0.878602       -23.9080
  35   2.0000      -0.878589       -23.9076
  36   2.0000      -0.781408       -21.2632
  37   2.0000      -0.777385       -21.1537
  38   2.0000      -0.777364       -21.1531
  39   2.0000      -0.776475       -21.1290
  40   2.0000      -0.757510       -20.6129
  41   2.0000      -0.757499       -20.6126
  42   2.0000      -0.750730       -20.4284
  43   2.0000      -0.695976       -18.9385
  44   2.0000      -0.695964       -18.9381
  45   2.0000      -0.672667       -18.3042
  46   2.0000      -0.672653       -18.3038
  47   2.0000      -0.672628       -18.3031
  48   2.0000      -0.662790       -18.0354
  49   2.0000      -0.646560       -17.5938
  50   2.0000      -0.646555       -17.5937
  51   2.0000      -0.577814       -15.7231
  52   2.0000      -0.577798       -15.7227
  53   2.0000      -0.573800       -15.6139
  54   2.0000      -0.548571       -14.9274
  55   2.0000      -0.548552       -14.9269
  56   2.0000      -0.545584       -14.8461
  57   2.0000      -0.544535       -14.8175
  58   2.0000      -0.544228       -14.8092
  59   2.0000      -0.544217       -14.8089
  60   2.0000      -0.518641       -14.1130
  61   2.0000      -0.518623       -14.1125
  62   2.0000      -0.517993       -14.0953
  63   2.0000      -0.499472       -13.5913
  64   2.0000      -0.499459       -13.5910
  65   2.0000      -0.455222       -12.3872
  66   2.0000      -0.452349       -12.3090
  67   2.0000      -0.446134       -12.1399
  68   2.0000      -0.446118       -12.1395
  69   2.0000      -0.432870       -11.7790
  70   2.0000      -0.427150       -11.6233
  71   2.0000      -0.427119       -11.6225
  72   2.0000      -0.417655       -11.3650
  73   2.0000      -0.412971       -11.2375
  74   2.0000      -0.412962       -11.2373
  75   2.0000      -0.407799       -11.0968
  76   2.0000      -0.407127       -11.0785
  77   2.0000      -0.407117       -11.0782
  78   2.0000      -0.398572       -10.8457
  79   2.0000      -0.391977       -10.6662
  80   2.0000      -0.388994       -10.5851
  81   2.0000      -0.388981       -10.5847
  82   2.0000      -0.376208       -10.2371
  83   2.0000      -0.376202       -10.2370
  84   2.0000      -0.370822       -10.0906
  85   2.0000      -0.354703        -9.6520
  86   2.0000      -0.354635        -9.6501
  87   2.0000      -0.354608        -9.6494
  88   2.0000      -0.353570        -9.6211
  89   2.0000      -0.353530        -9.6200
  90   2.0000      -0.349407        -9.5079
  91   2.0000      -0.340511        -9.2658
  92   2.0000      -0.334443        -9.1007
  93   2.0000      -0.334421        -9.1001
  94   2.0000      -0.325583        -8.8596
  95   2.0000      -0.319681        -8.6990
  96   2.0000      -0.319654        -8.6982
  97   2.0000      -0.309567        -8.4237
  98   2.0000      -0.309544        -8.4231
  99   2.0000      -0.308977        -8.4077
 100   2.0000      -0.305863        -8.3229
 101   2.0000      -0.305855        -8.3227
 102   2.0000      -0.305804        -8.3214
 103   2.0000      -0.294471        -8.0130
 104   2.0000      -0.290350        -7.9008
 105   2.0000      -0.290347        -7.9007
 106   2.0000      -0.285805        -7.7771
 107   2.0000      -0.285796        -7.7769
 108   2.0000      -0.285185        -7.7603
 109   2.0000      -0.281304        -7.6547
 110   2.0000      -0.280900        -7.6437
 111   2.0000      -0.280896        -7.6436
 112   2.0000      -0.276917        -7.5353
 113   2.0000      -0.276661        -7.5283
 114   2.0000      -0.276650        -7.5280
 115   2.0000      -0.214230        -5.8295
 116   2.0000      -0.214205        -5.8288
 117   2.0000      -0.194831        -5.3016
 118   2.0000      -0.189825        -5.1654
 119   2.0000      -0.189793        -5.1645
 120   2.0000      -0.185316        -5.0427
 121   2.0000      -0.180928        -4.9233
 122   2.0000      -0.180916        -4.9230
 123   0.0000      -0.025082        -0.6825
 124   0.0000      -0.025022        -0.6809
 125   0.0000       0.018045         0.4910
 126   0.0000       0.026676         0.7259
 127   0.0000       0.026685         0.7261

MULLIKEN ATOMIC CHARGES
-----------------------
   0 C :    0.173427
   1 C :   -0.413672
   2 C :   -0.170274
   3 C :    0.174899
   4 H :    0.221768
   5 C :   -0.170139
   6 C :    0.173567
   7 H :    0.222045
   8 C :   -0.170062
   9 C :   -0.412742
  10 H :    0.222109
  11 C :   -0.414388
  12 C :   -0.230785
  13 C :   -0.246802
  14 N :   -0.250200
  15 N :   -0.258797
  16 C :   -0.247395
  17 C :   -0.230720
  18 N :   -0.258560
  19 N :   -0.250055
  20 C :   -0.247400
  21 C :   -0.230543
  22 N :   -0.258612
  23 N :   -0.250316
  24 H :    0.304162
  25 H :    0.162239
  26 H :    0.297554
  27 H :    0.162159
  28 H :    0.297481
  29 H :    0.304186
  30 H :    0.297477
  31 H :    0.162221
  32 C :   -0.260854
  33 H :    0.304173
  34 C :   -0.260880
  35 C :   -0.260764
  36 H :    0.141066
  37 C :   -0.300296
  38 H :    0.131916
  39 H :    0.181608
  40 C :   -0.305012
  41 H :    0.175734
  42 H :    0.146928
  43 C :   -0.267485
  44 H :    0.174694
  45 H :    0.148070
  46 H :    0.179015
  47 H :    0.131997
  48 H :    0.133205
  49 H :    0.141224
  50 C :   -0.300403
  51 H :    0.131958
  52 H :    0.181613
  53 C :   -0.304742
  54 H :    0.175749
  55 H :    0.146907
  56 C :   -0.267496
  57 H :    0.147991
  58 H :    0.174686
  59 H :    0.133270
  60 H :    0.179020
  61 H :    0.131967
  62 H :    0.141170
  63 C :   -0.300554
  64 H :    0.131937
  65 H :    0.181634
  66 C :   -0.304772
  67 H :    0.175735
  68 H :    0.146969
  69 C :   -0.267697
  70 H :    0.148034
  71 H :    0.174679
  72 H :    0.178998
  73 H :    0.131960
  74 H :    0.133216
Sum of atomic charges:   -0.0000000

LOEWDIN ATOMIC CHARGES
----------------------
   0 C :   -0.080061
   1 C :   -0.030033
   2 C :   -0.149557
   3 C :   -0.080014
   4 H :    0.184801
   5 C :   -0.149579
   6 C :   -0.080054
   7 H :    0.184803
   8 C :   -0.149566
   9 C :   -0.030038
  10 H :    0.184842
  11 C :   -0.030056
  12 C :   -0.137543
  13 C :   -0.138695
  14 N :   -0.355613
  15 N :   -0.354967
  16 C :   -0.138770
  17 C :   -0.137551
  18 N :   -0.354950
  19 N :   -0.355618
  20 C :   -0.138739
  21 C :   -0.137540
  22 N :   -0.354882
  23 N :   -0.355702
  24 H :    0.263307
  25 H :    0.154103
  26 H :    0.266224
  27 H :    0.154110
  28 H :    0.266209
  29 H :    0.263307
  30 H :    0.266211
  31 H :    0.154085
  32 C :   -0.289202
  33 H :    0.263311
  34 C :   -0.289185
  35 C :   -0.289189
  36 H :    0.153140
  37 C :   -0.295284
  38 H :    0.151551
  39 H :    0.160909
  40 C :   -0.295156
  41 H :    0.155324
  42 H :    0.155024
  43 C :   -0.289446
  44 H :    0.155264
  45 H :    0.153995
  46 H :    0.159751
  47 H :    0.152422
  48 H :    0.149751
  49 H :    0.153160
  50 C :   -0.295288
  51 H :    0.151564
  52 H :    0.160924
  53 C :   -0.295145
  54 H :    0.155318
  55 H :    0.155024
  56 C :   -0.289437
  57 H :    0.153996
  58 H :    0.155259
  59 H :    0.149733
  60 H :    0.159745
  61 H :    0.152423
  62 H :    0.153212
  63 C :   -0.295298
  64 H :    0.151560
  65 H :    0.160932
  66 C :   -0.295145
  67 H :    0.155325
  68 H :    0.155024
  69 C :   -0.289444
  70 H :    0.153997
  71 H :    0.155262
  72 H :    0.159732
  73 H :    0.152412
  74 H :    0.149704

  Mayer bond orders larger than 0.100000
B(  0-C ,  1-C ) :   0.7270 B(  0-C ,  2-C ) :   1.3636 B(  0-C ,  8-C ) :   1.2529
B(  0-C , 15-N ) :  -0.1878 B(  1-C , 14-N ) :   1.0378 B(  1-C , 15-N ) :   1.1993
B(  1-C , 27-H ) :   0.9916 B(  2-C ,  3-C ) :   1.2531 B(  2-C ,  4-H ) :   0.9080
B(  3-C ,  5-C ) :   1.3623 B(  3-C , 11-C ) :   0.7266 B(  3-C , 18-N ) :  -0.1879
B(  5-C ,  6-C ) :   1.2530 B(  5-C ,  7-H ) :   0.9079 B(  6-C ,  8-C ) :   1.3631
B(  6-C ,  9-C ) :   0.7274 B(  6-C , 22-N ) :  -0.1878 B(  8-C , 10-H ) :   0.9077
B(  9-C , 22-N ) :   1.1996 B(  9-C , 23-N ) :   1.0377 B(  9-C , 25-H ) :   0.9912
B( 11-C , 18-N ) :   1.1991 B( 11-C , 19-N ) :   1.0381 B( 11-C , 31-H ) :   0.9915
B( 12-C , 13-C ) :   0.8862 B( 12-C , 14-N ) :   1.1473 B( 12-C , 15-N ) :  -0.1008
B( 12-C , 43-C ) :   0.9559 B( 12-C , 48-H ) :   0.9196 B( 13-C , 14-N ) :  -0.1014
B( 13-C , 15-N ) :   1.0224 B( 13-C , 32-C ) :   0.9588 B( 13-C , 36-H ) :   0.9295
B( 14-N , 28-H ) :   0.8313 B( 15-N , 33-H ) :   0.8532 B( 16-C , 17-C ) :   0.8863
B( 16-C , 18-N ) :   1.0217 B( 16-C , 19-N ) :  -0.1014 B( 16-C , 34-C ) :   0.9585
B( 16-C , 49-H ) :   0.9296 B( 17-C , 18-N ) :  -0.1006 B( 17-C , 19-N ) :   1.1478
B( 17-C , 56-C ) :   0.9560 B( 17-C , 59-H ) :   0.9196 B( 18-N , 29-H ) :   0.8533
B( 19-N , 30-H ) :   0.8314 B( 20-C , 21-C ) :   0.8864 B( 20-C , 22-N ) :   1.0214
B( 20-C , 23-N ) :  -0.1016 B( 20-C , 35-C ) :   0.9585 B( 20-C , 62-H ) :   0.9295
B( 21-C , 22-N ) :  -0.1004 B( 21-C , 23-N ) :   1.1480 B( 21-C , 69-C ) :   0.9560
B( 21-C , 74-H ) :   0.9196 B( 22-N , 24-H ) :   0.8533 B( 23-N , 26-H ) :   0.8313
B( 32-C , 37-C ) :   0.9822 B( 32-C , 38-H ) :   0.9484 B( 32-C , 39-H ) :   0.9409
B( 34-C , 50-C ) :   0.9822 B( 34-C , 51-H ) :   0.9486 B( 34-C , 52-H ) :   0.9409
B( 35-C , 63-C ) :   0.9822 B( 35-C , 64-H ) :   0.9485 B( 35-C , 65-H ) :   0.9409
B( 37-C , 40-C ) :   0.9892 B( 37-C , 41-H ) :   0.9394 B( 37-C , 42-H ) :   0.9469
B( 40-C , 43-C ) :   0.9869 B( 40-C , 44-H ) :   0.9392 B( 40-C , 45-H ) :   0.9485
B( 43-C , 46-H ) :   0.9399 B( 43-C , 47-H ) :   0.9459 B( 50-C , 53-C ) :   0.9892
B( 50-C , 54-H ) :   0.9394 B( 50-C , 55-H ) :   0.9469 B( 53-C , 56-C ) :   0.9870
B( 53-C , 57-H ) :   0.9485 B( 53-C , 58-H ) :   0.9392 B( 56-C , 60-H ) :   0.9399
B( 56-C , 61-H ) :   0.9459 B( 63-C , 66-C ) :   0.9892 B( 63-C , 67-H ) :   0.9394
B( 63-C , 68-H ) :   0.9469 B( 66-C , 69-C ) :   0.9870 B( 66-C , 70-H ) :   0.9485
B( 66-C , 71-H ) :   0.9392 B( 69-C , 72-H ) :   0.9399 B( 69-C , 73-H ) :   0.9459

Dispersion correction           -0.212587479
FINAL SINGLE POINT ENERGY     -1382.004124509823

DIPOLE MOMENT
-------------
                                X             Y             Z
Electronic contribution:     -1.84451     -16.51660      -4.19454
Nuclear contribution   :      1.93338      17.31407       4.39823
                        -----------------------------------------
Total Dipole Moment    :      0.08887       0.79747       0.20369
                        -----------------------------------------
Magnitude (a.u.)       :      0.82786
Magnitude (Debye)      :      2.10425

Rotational constants in cm-1:     0.003240     0.003229     0.001886
Rotational constants in MHz :    97.124757    96.802276    56.525922

                             ****ORCA TERMINATED NORMALLY****
TOTAL RUN TIME: 0 days 0 hours 21 minutes 7 seconds 660 msec
