                         Program Version 4.2.1 -  RELEASE  -
|  1> ! DFT COPT B97-3c TightSCF printbasis  Grid6 NOFINALGRID SlowConv
|  2>
|  3> %base "_o_1_alde1_2_ami3_1_opt_B97-3c"
|  4> %maxcore 3000
|  5> %scf
|  6>    MaxIter 2000
|  7> end
|  8> %pal
|  9>    nprocs 32
| 10> end
| 11>
| 12> * xyzfile 0 1 o_1_alde1_2_ami3_1_opt.xyz
| 13> # * xyzfile 0 1 _o_1_alde1_2_ami3_1_opt_B97-3c.xyz
| 14>
| 15>                          ****END OF INPUT****
 Total Charge           Charge          ....    0
 Multiplicity           Mult            ....    1
 Number of Electrons    NEL             ....  192
Dispersion correction           -0.157970110
FINAL SINGLE POINT ENERGY     -1111.989349538256
Dispersion correction            ... done
Dispersion correction           -0.157988634
FINAL SINGLE POINT ENERGY     -1111.990494094434
Dispersion correction            ... done
Dispersion correction           -0.158023550
FINAL SINGLE POINT ENERGY     -1111.990960684365
Dispersion correction            ... done
FINAL SINGLE POINT ENERGY     -1111.991361265322
FINAL SINGLE POINT ENERGY     -1111.991666986351
FINAL SINGLE POINT ENERGY     -1111.991797854835
FINAL SINGLE POINT ENERGY     -1111.991920893509
FINAL SINGLE POINT ENERGY     -1111.992027260449
FINAL SINGLE POINT ENERGY     -1111.992133676806
FINAL SINGLE POINT ENERGY     -1111.992210780821
FINAL SINGLE POINT ENERGY     -1111.993251391470
FINAL SINGLE POINT ENERGY     -1111.993260928132
FINAL SINGLE POINT ENERGY     -1111.993269075271
FINAL SINGLE POINT ENERGY     -1111.993275701137
FINAL SINGLE POINT ENERGY     -1111.993282041625
FINAL SINGLE POINT ENERGY     -1111.993287673507
FINAL SINGLE POINT ENERGY     -1111.993291887562
Dispersion correction            ... done
Dispersion correction           -0.156969897
FINAL SINGLE POINT ENERGY     -1111.993294795707
Dispersion correction            ... done
Dispersion correction           -0.156969461
FINAL SINGLE POINT ENERGY     -1111.993297016645
Dispersion correction            ... done
                    ***********************HURRAY********************

CARTESIAN COORDINATES (ANGSTROEM)
---------------------------------
  C     -1.367994    1.294257   -1.133106
  C     -1.690868    0.533981    0.081213
  C     -2.351651    2.101334   -1.701612
  C     -2.082889    2.828244   -2.851238
  H     -3.334117    2.176612   -1.254047
  C     -0.810866    2.750235   -3.411245
  C      0.184970    1.951329   -2.847877
  H     -0.588643    3.320971   -4.305111
  C     -0.101091    1.215799   -1.711958
  C      1.559241    1.956655   -3.465652
  H      0.652005    0.574822   -1.278027
  C     -3.137639    3.664693   -3.529234
  O     -0.934257   -0.213012    0.670364
  C     -5.326455    2.882057   -3.677423
  C     -4.808875    3.174268   -5.079202
  N     -4.438493    3.659435   -2.818821
  H     -5.131956    1.820865   -3.477495
  C     -6.811458    3.113497   -3.573173
  N     -3.359936    3.157913   -4.915302
  H     -5.105794    4.200295   -5.331772
  C     -5.422592    2.243306   -6.093958
  H     -7.034470    4.166473   -3.773023
  C     -7.502794    2.225035   -4.611008
  H     -5.141408    1.211296   -5.860726
  C     -6.943718    2.402332   -6.023069
  H     -8.575539    2.420860   -4.613870
  H     -7.384582    1.181020   -4.309150
  H     -7.205836    3.399069   -6.387763
  H     -7.425602    1.695527   -6.699489
  C      3.446651    1.776508   -2.113049
  C      3.538964    3.062771   -2.922621
  N      2.483699    0.973965   -2.858734
  H      2.987573    2.033580   -1.150396
  C      4.808756    1.193850   -1.841441
  N      2.157234    3.317404   -3.314979
  H      4.108348    2.837497   -3.833529
  C      4.274021    4.135804   -2.160091
  H      5.292090    0.934000   -2.788730
  C      5.636424    2.248610   -1.102128
  H      3.724661    4.374105   -1.243511
  C      5.666895    3.601374   -1.814782
  H      5.216350    2.381451   -0.101827
  H      6.655663    1.888467   -0.958310
  H      6.239888    3.504183   -2.740768
  H      6.202789    4.326534   -1.201172
  H      2.966523    0.478602   -3.597209
  H      1.468945    1.728753   -4.530830
  H      1.686525    3.777153   -2.541845
  H     -4.782710    4.609808   -2.765251
  H     -3.047282    2.192654   -4.944571
  H     -2.787120    4.698543   -3.585108
  H     -2.726546    0.690820    0.452054
  H     -7.180648    2.892807   -2.571103
  H     -5.059682    2.453438   -7.100470
  H      4.740652    0.278058   -1.253987
  H      4.347666    5.058269   -2.737315

 Multiplicity           Mult            ....    1
 Number of Electrons    NEL             ....  192
 Basis Dimension        Dim             ....  589

ORBITAL ENERGIES
----------------

  NO   OCC          E(Eh)            E(eV)
   0   2.0000     -18.727706      -509.6068
   1   2.0000     -13.979829      -380.4105
   2   2.0000     -13.978388      -380.3713
   3   2.0000     -13.975868      -380.3027
   4   2.0000     -13.975320      -380.2878
   5   2.0000      -9.964299      -271.1424
   6   2.0000      -9.951239      -270.7870
   7   2.0000      -9.948184      -270.7039
   8   2.0000      -9.914845      -269.7967
   9   2.0000      -9.914122      -269.7770
  10   2.0000      -9.910879      -269.6887
  11   2.0000      -9.910604      -269.6812
  12   2.0000      -9.904403      -269.5125
  13   2.0000      -9.903086      -269.4767
  14   2.0000      -9.900608      -269.4092
  15   2.0000      -9.899955      -269.3915
  16   2.0000      -9.898098      -269.3409
  17   2.0000      -9.894288      -269.2373
  18   2.0000      -9.894030      -269.2303
  19   2.0000      -9.893823      -269.2246
  20   2.0000      -9.893347      -269.2117
  21   2.0000      -9.893309      -269.2106
  22   2.0000      -9.890902      -269.1451
  23   2.0000      -9.890516      -269.1346
  24   2.0000      -9.890420      -269.1320
  25   2.0000      -9.890045      -269.1218
  26   2.0000      -0.950633       -25.8680
  27   2.0000      -0.891036       -24.2463
  28   2.0000      -0.887620       -24.1534
  29   2.0000      -0.798576       -21.7304
  30   2.0000      -0.788729       -21.4624
  31   2.0000      -0.785280       -21.3685
  32   2.0000      -0.765067       -20.8185
  33   2.0000      -0.759878       -20.6773
  34   2.0000      -0.710245       -19.3267
  35   2.0000      -0.708794       -19.2873
  36   2.0000      -0.680543       -18.5185
  37   2.0000      -0.677090       -18.4246
  38   2.0000      -0.665553       -18.1106
  39   2.0000      -0.658337       -17.9143
  40   2.0000      -0.596286       -16.2258
  41   2.0000      -0.587480       -15.9862
  42   2.0000      -0.582421       -15.8485
  43   2.0000      -0.556857       -15.1529
  44   2.0000      -0.554026       -15.0758
  45   2.0000      -0.553031       -15.0487
  46   2.0000      -0.550162       -14.9707
  47   2.0000      -0.525992       -14.3130
  48   2.0000      -0.524443       -14.2708
  49   2.0000      -0.513481       -13.9725
  50   2.0000      -0.498923       -13.5764
  51   2.0000      -0.465136       -12.6570
  52   2.0000      -0.459932       -12.5154
  53   2.0000      -0.452309       -12.3080
  54   2.0000      -0.447129       -12.1670
  55   2.0000      -0.434784       -11.8311
  56   2.0000      -0.427906       -11.6439
  57   2.0000      -0.420926       -11.4540
  58   2.0000      -0.419818       -11.4238
  59   2.0000      -0.417393       -11.3578
  60   2.0000      -0.410310       -11.1651
  61   2.0000      -0.403991       -10.9931
  62   2.0000      -0.397557       -10.8181
  63   2.0000      -0.391587       -10.6556
  64   2.0000      -0.388243       -10.5646
  65   2.0000      -0.383150       -10.4260
  66   2.0000      -0.369138       -10.0448
  67   2.0000      -0.364995        -9.9320
  68   2.0000      -0.361438        -9.8352
  69   2.0000      -0.359966        -9.7952
  70   2.0000      -0.358101        -9.7444
  71   2.0000      -0.355173        -9.6648
  72   2.0000      -0.348795        -9.4912
  73   2.0000      -0.347579        -9.4581
  74   2.0000      -0.334039        -9.0897
  75   2.0000      -0.327253        -8.9050
  76   2.0000      -0.318617        -8.6700
  77   2.0000      -0.318061        -8.6549
  78   2.0000      -0.315146        -8.5756
  79   2.0000      -0.313602        -8.5336
  80   2.0000      -0.310440        -8.4475
  81   2.0000      -0.307735        -8.3739
  82   2.0000      -0.299682        -8.1548
  83   2.0000      -0.292891        -7.9700
  84   2.0000      -0.290476        -7.9043
  85   2.0000      -0.289283        -7.8718
  86   2.0000      -0.287337        -7.8188
  87   2.0000      -0.285126        -7.7587
  88   2.0000      -0.281416        -7.6577
  89   2.0000      -0.232397        -6.3238
  90   2.0000      -0.230392        -6.2693
  91   2.0000      -0.205800        -5.6001
  92   2.0000      -0.204670        -5.5693
  93   2.0000      -0.200348        -5.4517
  94   2.0000      -0.193794        -5.2734
  95   2.0000      -0.190206        -5.1758
  96   0.0000      -0.087769        -2.3883
  97   0.0000      -0.038511        -1.0479
  98   0.0000      -0.001929        -0.0525
  99   0.0000       0.018821         0.5121
 100   0.0000       0.021268         0.5787

MULLIKEN ATOMIC CHARGES
-----------------------
   0 C :    0.310482
   1 C :   -0.177469
   2 C :   -0.185229
   3 C :    0.042453
   4 H :    0.236382
   5 C :   -0.136182
   6 C :    0.118632
   7 H :    0.204202
   8 C :   -0.114981
   9 C :   -0.375271
  10 H :    0.248326
  11 C :   -0.355359
  12 O :   -0.310813
  13 C :   -0.237213
  14 C :   -0.243689
  15 N :   -0.273370
  16 H :    0.138275
  17 C :   -0.259441
  18 N :   -0.258301
  19 H :    0.137280
  20 C :   -0.267100
  21 H :    0.133937
  22 C :   -0.302722
  23 H :    0.136212
  24 C :   -0.306626
  25 H :    0.178519
  26 H :    0.149086
  27 H :    0.150166
  28 H :    0.177894
  29 C :   -0.240730
  30 C :   -0.236638
  31 N :   -0.262257
  32 H :    0.142170
  33 C :   -0.263599
  34 N :   -0.255057
  35 H :    0.135594
  36 C :   -0.267023
  37 H :    0.132451
  38 C :   -0.303468
  39 H :    0.135688
  40 C :   -0.306650
  41 H :    0.150723
  42 H :    0.177155
  43 H :    0.149507
  44 H :    0.176456
  45 H :    0.305586
  46 H :    0.159966
  47 H :    0.303281
  48 H :    0.305489
  49 H :    0.304531
  50 H :    0.163052
  51 H :    0.103577
  52 H :    0.181885
  53 H :    0.182751
  54 H :    0.186328
  55 H :    0.181154
Sum of atomic charges:   -0.0000000

LOEWDIN ATOMIC CHARGES
----------------------
   0 C :   -0.071818
   1 C :    0.206856
   2 C :   -0.129882
   3 C :   -0.079991
   4 H :    0.185273
   5 C :   -0.129427
   6 C :   -0.076636
   7 H :    0.184211
   8 C :   -0.098227
   9 C :   -0.030213
  10 H :    0.200386
  11 C :   -0.029615
  12 O :   -0.472441
  13 C :   -0.136205
  14 C :   -0.136726
  15 N :   -0.356871
  16 H :    0.152696
  17 C :   -0.289114
  18 N :   -0.353760
  19 H :    0.151507
  20 C :   -0.288961
  21 H :    0.152635
  22 C :   -0.294915
  23 H :    0.153787
  24 C :   -0.294798
  25 H :    0.156756
  26 H :    0.155402
  27 H :    0.154730
  28 H :    0.156888
  29 C :   -0.135919
  30 C :   -0.136924
  31 N :   -0.353967
  32 H :    0.153882
  33 C :   -0.288859
  34 N :   -0.353444
  35 H :    0.151132
  36 C :   -0.289129
  37 H :    0.151955
  38 C :   -0.294939
  39 H :    0.153718
  40 C :   -0.294884
  41 H :    0.156024
  42 H :    0.156479
  43 H :    0.154338
  44 H :    0.156453
  45 H :    0.265099
  46 H :    0.154647
  47 H :    0.268370
  48 H :    0.264868
  49 H :    0.268750
  50 H :    0.155980
  51 H :    0.148681
  52 H :    0.161092
  53 H :    0.161548
  54 H :    0.162695
  55 H :    0.160831

  Mayer bond orders larger than 0.100000
B(  0-C ,  1-C ) :   0.8907 B(  0-C ,  2-C ) :   1.1549 B(  0-C ,  8-C ) :   1.1635
B(  0-C , 12-O ) :  -0.1608 B(  0-C , 51-H ) :  -0.1102 B(  1-C , 12-O ) :   2.0697
B(  1-C , 51-H ) :   0.9622 B(  2-C ,  3-C ) :   1.4881 B(  2-C ,  4-H ) :   0.8581
B(  3-C ,  5-C ) :   1.3670 B(  3-C , 11-C ) :   0.7786 B(  3-C , 15-N ) :  -0.1766
B(  5-C ,  6-C ) :   1.3068 B(  5-C ,  7-H ) :   0.9058 B(  6-C ,  8-C ) :   1.3454
B(  6-C ,  9-C ) :   0.7655 B(  6-C , 31-N ) :  -0.1670 B(  8-C , 10-H ) :   0.9019
B(  9-C , 31-N ) :   1.1967 B(  9-C , 34-N ) :   1.0633 B(  9-C , 46-H ) :   0.9765
B( 11-C , 15-N ) :   1.1921 B( 11-C , 18-N ) :   1.0527 B( 11-C , 50-H ) :   0.9692
B( 13-C , 14-C ) :   0.8898 B( 13-C , 15-N ) :   1.0238 B( 13-C , 16-H ) :   0.9293
B( 13-C , 17-C ) :   0.9653 B( 14-C , 18-N ) :   1.1352 B( 14-C , 19-H ) :   0.9215
B( 14-C , 20-C ) :   0.9614 B( 15-N , 48-H ) :   0.8490 B( 17-C , 21-H ) :   0.9455
B( 17-C , 22-C ) :   0.9824 B( 17-C , 52-H ) :   0.9397 B( 18-N , 49-H ) :   0.8285
B( 20-C , 23-H ) :   0.9445 B( 20-C , 24-C ) :   0.9837 B( 20-C , 53-H ) :   0.9401
B( 22-C , 24-C ) :   0.9875 B( 22-C , 25-H ) :   0.9395 B( 22-C , 26-H ) :   0.9467
B( 24-C , 27-H ) :   0.9486 B( 24-C , 28-H ) :   0.9388 B( 29-C , 30-C ) :   0.8851
B( 29-C , 31-N ) :   1.0257 B( 29-C , 32-H ) :   0.9292 B( 29-C , 33-C ) :   0.9642
B( 30-C , 31-N ) :  -0.1024 B( 30-C , 34-N ) :   1.1364 B( 30-C , 35-H ) :   0.9209
B( 30-C , 36-C ) :   0.9619 B( 31-N , 45-H ) :   0.8493 B( 33-C , 37-H ) :   0.9463
B( 33-C , 38-C ) :   0.9819 B( 33-C , 54-H ) :   0.9395 B( 34-N , 47-H ) :   0.8289
B( 36-C , 39-H ) :   0.9444 B( 36-C , 40-C ) :   0.9849 B( 36-C , 55-H ) :   0.9403
B( 38-C , 40-C ) :   0.9888 B( 38-C , 41-H ) :   0.9466 B( 38-C , 42-H ) :   0.9397
B( 40-C , 43-H ) :   0.9482 B( 40-C , 44-H ) :   0.9391

Dispersion correction           -0.156968391
FINAL SINGLE POINT ENERGY     -1111.993299585128

DIPOLE MOMENT
-------------
                                X             Y             Z
Electronic contribution:     -0.87511      -5.32456       8.33177
Nuclear contribution   :      0.54758       6.20844      -9.41732
                        -----------------------------------------
Total Dipole Moment    :     -0.32753       0.88388      -1.08554
                        -----------------------------------------
Magnitude (a.u.)       :      1.43768
Magnitude (Debye)      :      3.65430

Rotational constants in cm-1:     0.015325     0.002655     0.002426
Rotational constants in MHz :   459.425487    79.580487    72.726072

                             ****ORCA TERMINATED NORMALLY****
TOTAL RUN TIME: 0 days 0 hours 49 minutes 23 seconds 405 msec
