                         Program Version 4.2.1 -  RELEASE  -
|  1> ! DFT COPT B97-3c TightSCF printbasis  Grid6 NOFINALGRID SlowConv
|  2>
|  3> %base "_o_1_alde1_3_ami2_2_opt_B97-3c"
|  4> %maxcore 3000
|  5> %scf
|  6>    MaxIter 2000
|  7> end
|  8> %pal
|  9>    nprocs 32
| 10> end
| 11>
| 12> * xyzfile 0 1 o_1_alde1_3_ami2_2_opt.xyz
| 13> # * xyzfile 0 1 _o_1_alde1_3_ami2_2_opt_B97-3c.xyz
| 14>
| 15>                          ****END OF INPUT****
 Total Charge           Charge          ....    0
 Multiplicity           Mult            ....    1
 Number of Electrons    NEL             ....  204
Dispersion correction           -0.157222399
FINAL SINGLE POINT ENERGY     -1149.854832194858
Dispersion correction            ... done
Dispersion correction           -0.157224476
FINAL SINGLE POINT ENERGY     -1149.855722695088
Dispersion correction            ... done
Dispersion correction           -0.157231592
FINAL SINGLE POINT ENERGY     -1149.856138815159
Dispersion correction            ... done
FINAL SINGLE POINT ENERGY     -1149.856353309178
FINAL SINGLE POINT ENERGY     -1149.856611145035
FINAL SINGLE POINT ENERGY     -1149.856697422694
FINAL SINGLE POINT ENERGY     -1149.856754287711
FINAL SINGLE POINT ENERGY     -1149.856807460141
FINAL SINGLE POINT ENERGY     -1149.856889988997
FINAL SINGLE POINT ENERGY     -1149.856982352105
FINAL SINGLE POINT ENERGY     -1149.859056854614
FINAL SINGLE POINT ENERGY     -1149.859061082981
FINAL SINGLE POINT ENERGY     -1149.859066312797
FINAL SINGLE POINT ENERGY     -1149.859071249920
FINAL SINGLE POINT ENERGY     -1149.859075031413
FINAL SINGLE POINT ENERGY     -1149.859078825590
FINAL SINGLE POINT ENERGY     -1149.859083181560
Dispersion correction            ... done
Dispersion correction           -0.155912242
FINAL SINGLE POINT ENERGY     -1149.859087612190
Dispersion correction            ... done
Dispersion correction           -0.155913408
FINAL SINGLE POINT ENERGY     -1149.859091186786
Dispersion correction            ... done
                    ***********************HURRAY********************

CARTESIAN COORDINATES (ANGSTROEM)
---------------------------------
  C     -1.166180   -0.382401   -1.243279
  C     -0.860336   -1.473898   -0.319866
  C     -2.478386   -0.118146   -1.651415
  C     -2.755234    0.928313   -2.518925
  H     -3.272746   -0.750168   -1.276853
  C     -1.702456    1.719039   -2.992900
  C     -0.395545    1.471892   -2.598988
  H     -1.930515    2.526831   -3.675714
  C     -0.135174    0.411965   -1.723176
  C      0.679027    2.325353   -3.103359
  H      0.889406    0.224294   -1.430261
  C     -4.139094    1.184928   -2.914711
  C     -2.032703   -3.043414    2.524248
  C     -1.352983   -3.222531    1.144585
  N     -3.493414   -2.998184    2.426648
  C     -1.649464   -4.224531    3.402609
  N     -1.754286   -2.192225    0.223927
  H     -2.122139   -4.130166    4.377739
  C     -5.874465    2.355075   -3.946211
  C     -6.368548    3.754286   -3.503857
  N     -4.481113    2.169433   -3.639038
  H     -5.987765    2.293400   -5.032113
  N     -5.577007    4.838302   -4.090092
  C     -7.811044    3.917315   -3.957754
  C      2.865716    3.124099   -3.259693
  C      3.601506    3.886663   -2.130667
  N      1.886192    2.214429   -2.727394
  H      3.611488    2.532952   -3.798435
  N      4.228203    2.984044   -1.162242
  C      2.612945    4.769525   -1.381110
  H      1.844411    4.171713   -0.894030
  H     -3.830827   -3.884940    2.067595
  H     -3.742058   -2.308100    1.726767
  H     -5.678724    4.816824   -5.099198
  H     -4.597687    4.647038   -3.910570
  H      0.208689   -1.633262   -0.116235
  H      0.371931    3.086599   -3.835439
  H     -0.570988   -4.277220    3.544423
  H     -1.976630   -5.166884    2.959690
  H     -6.511559    1.577531   -3.499630
  H     -7.894301    3.832524   -5.042714
  H     -8.182037    4.898055   -3.668427
  H     -8.453134    3.159047   -3.511939
  H      2.431380    3.841608   -3.971344
  H      2.116991    5.465339   -2.057687
  H      3.132932    5.339158   -0.614789
  C     -6.279834    3.872255   -1.988426
  H     -5.248570    3.792054   -1.648809
  H     -6.855332    3.086465   -1.499308
  H     -6.665745    4.837279   -1.669188
  H     -1.683382   -4.181634    0.736154
  H     -0.261524   -3.272347    1.271441
  C     -1.562160   -1.742870    3.161170
  H     -0.476866   -1.724460    3.259668
  H     -2.003743   -1.633473    4.148671
  H     -1.858091   -0.883368    2.562040
  H      4.938786    2.433138   -1.632032
  H      3.528664    2.319046   -0.851935
  C      4.690590    4.740368   -2.761999
  H      4.270511    5.461869   -3.461275
  H      5.408266    4.123745   -3.306002
  H      5.231576    5.282331   -1.989473
  H     -4.879145    0.465508   -2.534553

 Multiplicity           Mult            ....    1
 Number of Electrons    NEL             ....  204
 Basis Dimension        Dim             ....  621

ORBITAL ENERGIES
----------------

  NO   OCC          E(Eh)            E(eV)
   0   2.0000     -13.988902      -380.6574
   1   2.0000     -13.988898      -380.6573
   2   2.0000     -13.988890      -380.6571
   3   2.0000     -13.959052      -379.8451
   4   2.0000     -13.959046      -379.8449
   5   2.0000     -13.959039      -379.8448
   6   2.0000      -9.941446      -270.5205
   7   2.0000      -9.941444      -270.5204
   8   2.0000      -9.941442      -270.5204
   9   2.0000      -9.925632      -270.0902
  10   2.0000      -9.925631      -270.0902
  11   2.0000      -9.925628      -270.0901
  12   2.0000      -9.918154      -269.8867
  13   2.0000      -9.918143      -269.8864
  14   2.0000      -9.918137      -269.8862
  15   2.0000      -9.916120      -269.8313
  16   2.0000      -9.916117      -269.8313
  17   2.0000      -9.916114      -269.8312
  18   2.0000      -9.913401      -269.7573
  19   2.0000      -9.913393      -269.7571
  20   2.0000      -9.913357      -269.7562
  21   2.0000      -9.878883      -268.8181
  22   2.0000      -9.878881      -268.8180
  23   2.0000      -9.878871      -268.8178
  24   2.0000      -9.872779      -268.6520
  25   2.0000      -9.872764      -268.6516
  26   2.0000      -9.872761      -268.6515
  27   2.0000      -0.866360       -23.5749
  28   2.0000      -0.863755       -23.5040
  29   2.0000      -0.863752       -23.5039
  30   2.0000      -0.820419       -22.3247
  31   2.0000      -0.815997       -22.2044
  32   2.0000      -0.815992       -22.2043
  33   2.0000      -0.802225       -21.8297
  34   2.0000      -0.725391       -19.7389
  35   2.0000      -0.725387       -19.7388
  36   2.0000      -0.698398       -19.0044
  37   2.0000      -0.694290       -18.8926
  38   2.0000      -0.694287       -18.8925
  39   2.0000      -0.645590       -17.5674
  40   2.0000      -0.639572       -17.4036
  41   2.0000      -0.639564       -17.4034
  42   2.0000      -0.627110       -17.0645
  43   2.0000      -0.627096       -17.0641
  44   2.0000      -0.627091       -17.0640
  45   2.0000      -0.585081       -15.9209
  46   2.0000      -0.585079       -15.9208
  47   2.0000      -0.560370       -15.2485
  48   2.0000      -0.506526       -13.7833
  49   2.0000      -0.506522       -13.7832
  50   2.0000      -0.502054       -13.6616
  51   2.0000      -0.493989       -13.4421
  52   2.0000      -0.493984       -13.4420
  53   2.0000      -0.474761       -12.9189
  54   2.0000      -0.463136       -12.6026
  55   2.0000      -0.443734       -12.0746
  56   2.0000      -0.443724       -12.0743
  57   2.0000      -0.438780       -11.9398
  58   2.0000      -0.436621       -11.8811
  59   2.0000      -0.436605       -11.8806
  60   2.0000      -0.436435       -11.8760
  61   2.0000      -0.419004       -11.4017
  62   2.0000      -0.418987       -11.4012
  63   2.0000      -0.414713       -11.2849
  64   2.0000      -0.408089       -11.1047
  65   2.0000      -0.408076       -11.1043
  66   2.0000      -0.394869       -10.7449
  67   2.0000      -0.390660       -10.6304
  68   2.0000      -0.390430       -10.6241
  69   2.0000      -0.390428       -10.6241
  70   2.0000      -0.375037       -10.2053
  71   2.0000      -0.367908       -10.0113
  72   2.0000      -0.367874       -10.0104
  73   2.0000      -0.361746        -9.8436
  74   2.0000      -0.339213        -9.2305
  75   2.0000      -0.339201        -9.2301
  76   2.0000      -0.336680        -9.1615
  77   2.0000      -0.336518        -9.1571
  78   2.0000      -0.336513        -9.1570
  79   2.0000      -0.332238        -9.0406
  80   2.0000      -0.332220        -9.0402
  81   2.0000      -0.332095        -9.0368
  82   2.0000      -0.323066        -8.7911
  83   2.0000      -0.319035        -8.6814
  84   2.0000      -0.319029        -8.6812
  85   2.0000      -0.317973        -8.6525
  86   2.0000      -0.317966        -8.6523
  87   2.0000      -0.311416        -8.4741
  88   2.0000      -0.298472        -8.1218
  89   2.0000      -0.298455        -8.1214
  90   2.0000      -0.295852        -8.0506
  91   2.0000      -0.292623        -7.9627
  92   2.0000      -0.292613        -7.9624
  93   2.0000      -0.264556        -7.1989
  94   2.0000      -0.229386        -6.2419
  95   2.0000      -0.229379        -6.2417
  96   2.0000      -0.227875        -6.2008
  97   2.0000      -0.225128        -6.1261
  98   2.0000      -0.225123        -6.1259
  99   2.0000      -0.196285        -5.3412
 100   2.0000      -0.195639        -5.3236
 101   2.0000      -0.195630        -5.3234
 102   0.0000      -0.092782        -2.5247
 103   0.0000      -0.092779        -2.5247
 104   0.0000      -0.061098        -1.6626
 105   0.0000       0.015761         0.4289
 106   0.0000       0.015778         0.4293

MULLIKEN ATOMIC CHARGES
-----------------------
   0 C :    0.279697
   1 C :   -0.385234
   2 C :   -0.201657
   3 C :    0.279539
   4 H :    0.212721
   5 C :   -0.201585
   6 C :    0.279535
   7 H :    0.212688
   8 C :   -0.201775
   9 C :   -0.385129
  10 H :    0.212789
  11 C :   -0.385112
  12 C :   -0.080312
  13 C :   -0.288029
  14 N :   -0.588082
  15 C :   -0.468341
  16 N :   -0.039067
  17 H :    0.191013
  18 C :   -0.288256
  19 C :   -0.080456
  20 N :   -0.038989
  21 H :    0.172237
  22 N :   -0.587904
  23 C :   -0.468255
  24 C :   -0.288273
  25 C :   -0.080522
  26 N :   -0.038885
  27 H :    0.172303
  28 N :   -0.587879
  29 C :   -0.468620
  30 H :    0.172215
  31 H :    0.296407
  32 H :    0.308872
  33 H :    0.296406
  34 H :    0.308833
  35 H :    0.111419
  36 H :    0.111369
  37 H :    0.159681
  38 H :    0.156019
  39 H :    0.126232
  40 H :    0.156012
  41 H :    0.190999
  42 H :    0.159685
  43 H :    0.126091
  44 H :    0.151443
  45 H :    0.181505
  46 C :   -0.468727
  47 H :    0.172353
  48 H :    0.151446
  49 H :    0.181461
  50 H :    0.172228
  51 H :    0.126164
  52 C :   -0.468630
  53 H :    0.151436
  54 H :    0.181443
  55 H :    0.172311
  56 H :    0.296365
  57 H :    0.308835
  58 C :   -0.467998
  59 H :    0.159635
  60 H :    0.155998
  61 H :    0.190947
  62 H :    0.111389
Sum of atomic charges:   -0.0000000

LOEWDIN ATOMIC CHARGES
----------------------
   0 C :   -0.080083
   1 C :   -0.036401
   2 C :   -0.107526
   3 C :   -0.080101
   4 H :    0.181933
   5 C :   -0.107531
   6 C :   -0.080090
   7 H :    0.181944
   8 C :   -0.107523
   9 C :   -0.036403
  10 H :    0.181953
  11 C :   -0.036399
  12 C :   -0.117235
  13 C :   -0.213495
  14 N :   -0.504115
  15 C :   -0.415876
  16 N :   -0.196721
  17 H :    0.165956
  18 C :   -0.213505
  19 C :   -0.117238
  20 N :   -0.196729
  21 H :    0.157164
  22 N :   -0.504091
  23 C :   -0.415869
  24 C :   -0.213526
  25 C :   -0.117240
  26 N :   -0.196735
  27 H :    0.157182
  28 N :   -0.504055
  29 C :   -0.417907
  30 H :    0.159076
  31 H :    0.255431
  32 H :    0.259642
  33 H :    0.255422
  34 H :    0.259633
  35 H :    0.141166
  36 H :    0.141163
  37 H :    0.157867
  38 H :    0.151707
  39 H :    0.140227
  40 H :    0.151718
  41 H :    0.165963
  42 H :    0.157861
  43 H :    0.140215
  44 H :    0.154926
  45 H :    0.164254
  46 C :   -0.417914
  47 H :    0.159114
  48 H :    0.154920
  49 H :    0.164248
  50 H :    0.157195
  51 H :    0.140224
  52 C :   -0.417914
  53 H :    0.154909
  54 H :    0.164244
  55 H :    0.159100
  56 H :    0.255411
  57 H :    0.259631
  58 C :   -0.415854
  59 H :    0.157852
  60 H :    0.151713
  61 H :    0.165946
  62 H :    0.141164

  Mayer bond orders larger than 0.100000
B(  0-C ,  1-C ) :   0.9552 B(  0-C ,  2-C ) :   1.3580 B(  0-C ,  3-C ) :   0.1337
B(  0-C ,  6-C ) :   0.1336 B(  0-C ,  8-C ) :   1.1503 B(  0-C , 16-N ) :  -0.2294
B(  1-C ,  8-C ) :   0.1045 B(  1-C , 16-N ) :   2.0127 B(  1-C , 35-H ) :   0.9040
B(  2-C ,  3-C ) :   1.1503 B(  2-C ,  4-H ) :   0.8956 B(  2-C , 11-C ) :   0.1045
B(  3-C ,  5-C ) :   1.3582 B(  3-C ,  6-C ) :   0.1337 B(  3-C , 11-C ) :   0.9552
B(  3-C , 20-N ) :  -0.2294 B(  5-C ,  6-C ) :   1.1502 B(  5-C ,  7-H ) :   0.8956
B(  5-C ,  9-C ) :   0.1046 B(  6-C ,  8-C ) :   1.3585 B(  6-C ,  9-C ) :   0.9552
B(  6-C , 26-N ) :  -0.2295 B(  8-C , 10-H ) :   0.8955 B(  9-C , 26-N ) :   2.0126
B(  9-C , 36-H ) :   0.9039 B( 11-C , 20-N ) :   2.0125 B( 11-C , 62-H ) :   0.9039
B( 12-C , 13-C ) :   0.8925 B( 12-C , 14-N ) :   1.0135 B( 12-C , 15-C ) :   1.0121
B( 12-C , 52-C ) :   0.9721 B( 13-C , 16-N ) :   0.9734 B( 13-C , 50-H ) :   0.9352
B( 13-C , 51-H ) :   0.9217 B( 14-N , 31-H ) :   0.8687 B( 14-N , 32-H ) :   0.8595
B( 15-C , 17-H ) :   0.9575 B( 15-C , 37-H ) :   0.9579 B( 15-C , 38-H ) :   0.9426
B( 18-C , 19-C ) :   0.8924 B( 18-C , 20-N ) :   0.9731 B( 18-C , 21-H ) :   0.9353
B( 18-C , 39-H ) :   0.9217 B( 19-C , 22-N ) :   1.0134 B( 19-C , 23-C ) :   1.0122
B( 19-C , 46-C ) :   0.9721 B( 22-N , 33-H ) :   0.8687 B( 22-N , 34-H ) :   0.8594
B( 23-C , 40-H ) :   0.9426 B( 23-C , 41-H ) :   0.9575 B( 23-C , 42-H ) :   0.9579
B( 24-C , 25-C ) :   0.8927 B( 24-C , 26-N ) :   0.9734 B( 24-C , 27-H ) :   0.9353
B( 24-C , 43-H ) :   0.9217 B( 25-C , 28-N ) :   1.0133 B( 25-C , 29-C ) :   0.9723
B( 25-C , 58-C ) :   1.0121 B( 28-N , 56-H ) :   0.8688 B( 28-N , 57-H ) :   0.8594
B( 29-C , 30-H ) :   0.9506 B( 29-C , 44-H ) :   0.9612 B( 29-C , 45-H ) :   0.9515
B( 46-C , 47-H ) :   0.9506 B( 46-C , 48-H ) :   0.9612 B( 46-C , 49-H ) :   0.9515
B( 52-C , 53-H ) :   0.9612 B( 52-C , 54-H ) :   0.9515 B( 52-C , 55-H ) :   0.9507
B( 58-C , 59-H ) :   0.9579 B( 58-C , 60-H ) :   0.9426 B( 58-C , 61-H ) :   0.9575

Dispersion correction           -0.155912977
FINAL SINGLE POINT ENERGY     -1149.859093703597

DIPOLE MOMENT
-------------
                                X             Y             Z
Electronic contribution:      1.52674      -8.15952     -10.28405
Nuclear contribution   :     -1.37355       7.33442       9.24449
                        -----------------------------------------
Total Dipole Moment    :      0.15319      -0.82509      -1.03955
                        -----------------------------------------
Magnitude (a.u.)       :      1.33601
Magnitude (Debye)      :      3.39586

Rotational constants in cm-1:     0.003575     0.003571     0.001923
Rotational constants in MHz :   107.179763   107.046376    57.648565

                             ****ORCA TERMINATED NORMALLY****
TOTAL RUN TIME: 0 days 0 hours 46 minutes 47 seconds 451 msec
