                         Program Version 4.2.1 -  RELEASE  -
|  1> ! RI-MP2 cc-pVTZ cc-pVTZ/C TIGHTSCF printbasis Grid6 NOFINALGRID SlowConv
|  2>
|  3> %base "_o_1_alde1_3_ami4_1_opt_MP2"
|  4> %maxcore 3000
|  5> %pal
|  6>    nprocs 32
|  7> end
|  8>
|  9> * xyzfile 0 1 _o_1_alde1_3_ami4_1_opt_B97-3c.xyz
| 10>
| 11>                          ****END OF INPUT****

CARTESIAN COORDINATES (ANGSTROEM)
---------------------------------
  C     -1.201310    1.014760    0.247219
  C     -1.283056    0.456477    1.643795
  C     -2.349987    1.119745   -0.529131
  C     -2.299519    1.672774   -1.801005
  H     -3.282026    0.738535   -0.133457
  C     -1.086205    2.130628   -2.294775
  C      0.071497    2.040200   -1.535493
  H     -1.040122    2.556041   -3.286663
  C      0.006504    1.476732   -0.265488
  C      1.376894    2.500439   -2.126331
  H      0.908819    1.390485    0.329640
  C     -3.544583    1.819534   -2.630160
  C     -2.193678    0.692615    3.743584
  C     -2.822903   -0.575711    3.140426
  N     -1.691163    1.467514    2.610350
  N     -2.287883   -0.619243    1.773062
  C     -4.224765    2.353995   -4.849859
  C     -4.890469    3.266522   -3.804538
  N     -3.309209    1.520835   -4.059445
  N     -4.051652    3.184231   -2.610739
  C      2.236522    3.739826   -3.970187
  C      2.840437    2.325502   -3.891699
  N      1.230954    3.751589   -2.900396
  N      1.915841    1.538054   -3.077675
  H      1.317402    4.563040   -2.305192
  H      2.116206    2.610669   -1.321131
  H      1.146589    1.214058   -3.654013
  H     -1.887883   -1.519817    1.551847
  H     -0.285158    0.107282    1.943376
  H     -2.449483    1.999698    2.197558
  H     -3.433658    0.536521   -4.248693
  H     -3.258203    3.808628   -2.707058
  H     -4.328589    1.174456   -2.211313
  H     -3.913220   -0.506868    3.116889
  H     -2.566616   -1.463297    3.724690
  H     -1.354106    0.430303    4.389704
  H     -2.890427    1.283222    4.334162
  H     -3.664098    2.935306   -5.585826
  H     -4.966758    1.766715   -5.396673
  H     -5.887689    2.898079   -3.557784
  H     -4.993072    4.298526   -4.132022
  H      1.760171    3.917532   -4.937488
  H      3.005214    4.506501   -3.841339
  H      3.810287    2.353840   -3.392304
  H      2.986196    1.861781   -4.864721

 Total Charge           Charge          ....    0
 Multiplicity           Mult            ....    1
 Number of Electrons    NEL             ....  156
 Basis Dimension        Dim             ....  966

ORBITAL ENERGIES
----------------

  NO   OCC          E(Eh)            E(eV)
   0   2.0000     -15.537904      -422.8079
   1   2.0000     -15.537177      -422.7881
   2   2.0000     -15.536947      -422.7818
   3   2.0000     -15.534357      -422.7114
   4   2.0000     -15.533236      -422.6809
   5   2.0000     -15.532984      -422.6740
   6   2.0000     -11.278000      -306.8900
   7   2.0000     -11.277027      -306.8635
   8   2.0000     -11.275841      -306.8312
   9   2.0000     -11.244176      -305.9696
  10   2.0000     -11.243606      -305.9541
  11   2.0000     -11.243366      -305.9476
  12   2.0000     -11.243314      -305.9461
  13   2.0000     -11.242547      -305.9253
  14   2.0000     -11.242319      -305.9190
  15   2.0000     -11.223940      -305.4189
  16   2.0000     -11.223041      -305.3945
  17   2.0000     -11.221602      -305.3553
  18   2.0000     -11.219466      -305.2972
  19   2.0000     -11.214453      -305.1608
  20   2.0000     -11.210929      -305.0649
  21   2.0000      -1.266525       -34.4639
  22   2.0000      -1.264958       -34.4213
  23   2.0000      -1.264251       -34.4020
  24   2.0000      -1.147236       -31.2179
  25   2.0000      -1.131411       -30.7873
  26   2.0000      -1.130448       -30.7611
  27   2.0000      -1.130409       -30.7600
  28   2.0000      -1.045700       -28.4549
  29   2.0000      -1.045470       -28.4487
  30   2.0000      -0.990121       -26.9426
  31   2.0000      -0.966945       -26.3119
  32   2.0000      -0.962609       -26.1939
  33   2.0000      -0.865830       -23.5604
  34   2.0000      -0.852034       -23.1850
  35   2.0000      -0.837801       -22.7977
  36   2.0000      -0.818055       -22.2604
  37   2.0000      -0.817664       -22.2498
  38   2.0000      -0.816227       -22.2107
  39   2.0000      -0.780774       -21.2459
  40   2.0000      -0.764367       -20.7995
  41   2.0000      -0.708782       -19.2869
  42   2.0000      -0.695306       -18.9202
  43   2.0000      -0.683301       -18.5936
  44   2.0000      -0.679273       -18.4840
  45   2.0000      -0.662070       -18.0158
  46   2.0000      -0.657966       -17.9042
  47   2.0000      -0.654066       -17.7981
  48   2.0000      -0.630038       -17.1442
  49   2.0000      -0.597940       -16.2708
  50   2.0000      -0.595676       -16.2092
  51   2.0000      -0.582684       -15.8556
  52   2.0000      -0.578972       -15.7546
  53   2.0000      -0.575764       -15.6673
  54   2.0000      -0.570309       -15.5189
  55   2.0000      -0.544359       -14.8128
  56   2.0000      -0.539675       -14.6853
  57   2.0000      -0.538702       -14.6588
  58   2.0000      -0.536720       -14.6049
  59   2.0000      -0.536425       -14.5969
  60   2.0000      -0.524465       -14.2714
  61   2.0000      -0.521199       -14.1825
  62   2.0000      -0.519864       -14.1462
  63   2.0000      -0.518594       -14.1117
  64   2.0000      -0.490931       -13.3589
  65   2.0000      -0.489837       -13.3291
  66   2.0000      -0.489396       -13.3171
  67   2.0000      -0.472100       -12.8465
  68   2.0000      -0.467199       -12.7131
  69   2.0000      -0.464037       -12.6271
  70   2.0000      -0.387460       -10.5433
  71   2.0000      -0.386538       -10.5182
  72   2.0000      -0.385859       -10.4998
  73   2.0000      -0.369153       -10.0452
  74   2.0000      -0.366724        -9.9791
  75   2.0000      -0.364924        -9.9301
  76   2.0000      -0.318998        -8.6804
  77   2.0000      -0.313905        -8.5418
  78   0.0000       0.132158         3.5962
  79   0.0000       0.134216         3.6522
  80   0.0000       0.135573         3.6891
  81   0.0000       0.142031         3.8648
  82   0.0000       0.143071         3.8932

MULLIKEN ATOMIC CHARGES
-----------------------
   0 C :    0.111097
   1 C :    0.055642
   2 C :   -0.242992
   3 C :    0.079316
   4 H :    0.154954
   5 C :   -0.206343
   6 C :    0.098257
   7 H :    0.165025
   8 C :   -0.263205
   9 C :    0.046814
  10 H :    0.133746
  11 C :    0.046537
  12 C :   -0.105720
  13 C :   -0.092567
  14 N :   -0.254723
  15 N :   -0.275567
  16 C :   -0.092179
  17 C :   -0.105319
  18 N :   -0.275500
  19 N :   -0.256003
  20 C :   -0.092384
  21 C :   -0.105675
  22 N :   -0.274991
  23 N :   -0.255170
  24 H :    0.110087
  25 H :    0.089114
  26 H :    0.110817
  27 H :    0.110266
  28 H :    0.089511
  29 H :    0.109540
  30 H :    0.109157
  31 H :    0.110638
  32 H :    0.090195
  33 H :    0.081272
  34 H :    0.086052
  35 H :    0.083458
  36 H :    0.109554
  37 H :    0.080836
  38 H :    0.085647
  39 H :    0.082930
  40 H :    0.108938
  41 H :    0.081219
  42 H :    0.085455
  43 H :    0.083434
  44 H :    0.108832
Sum of atomic charges:   -0.0000000

LOEWDIN ATOMIC CHARGES
----------------------
   0 C :   -0.048964
   1 C :   -0.152617
   2 C :    0.048096
   3 C :   -0.051225
   4 H :   -0.028138
   5 C :    0.048699
   6 C :   -0.049737
   7 H :   -0.029707
   8 C :    0.049647
   9 C :   -0.151783
  10 H :   -0.024331
  11 C :   -0.151683
  12 C :   -0.007688
  13 C :   -0.007976
  14 N :    0.304646
  15 N :    0.306055
  16 C :   -0.008533
  17 C :   -0.008242
  18 N :    0.304157
  19 N :    0.305307
  20 C :   -0.008431
  21 C :   -0.007348
  22 N :    0.305034
  23 N :    0.304733
  24 H :   -0.121653
  25 H :   -0.032281
  26 H :   -0.109026
  27 H :   -0.121315
  28 H :   -0.032040
  29 H :   -0.109215
  30 H :   -0.122020
  31 H :   -0.109082
  32 H :   -0.031533
  33 H :   -0.041750
  34 H :   -0.041465
  35 H :   -0.033726
  36 H :   -0.033019
  37 H :   -0.041861
  38 H :   -0.041788
  39 H :   -0.033796
  40 H :   -0.033328
  41 H :   -0.041790
  42 H :   -0.041989
  43 H :   -0.033933
  44 H :   -0.033362

  Mayer bond orders larger than 0.100000
B(  0-C ,  1-C ) :   1.0136 B(  0-C ,  2-C ) :   1.3419 B(  0-C ,  8-C ) :   1.3885
B(  1-C , 14-N ) :   1.0220 B(  1-C , 15-N ) :   1.0060 B(  1-C , 28-H ) :   0.9955
B(  2-C ,  3-C ) :   1.3839 B(  2-C ,  4-H ) :   0.9548 B(  3-C ,  5-C ) :   1.3473
B(  3-C , 11-C ) :   1.0161 B(  5-C ,  6-C ) :   1.3553 B(  5-C ,  7-H ) :   0.9448
B(  6-C ,  8-C ) :   1.3739 B(  6-C ,  9-C ) :   1.0120 B(  8-C , 10-H ) :   0.9717
B(  9-C , 22-N ) :   1.0057 B(  9-C , 23-N ) :   1.0223 B(  9-C , 25-H ) :   0.9973
B( 11-C , 18-N ) :   1.0043 B( 11-C , 19-N ) :   1.0226 B( 11-C , 32-H ) :   0.9964
B( 12-C , 13-C ) :   0.9442 B( 12-C , 14-N ) :   0.9972 B( 12-C , 35-H ) :   0.9865
B( 12-C , 36-H ) :   0.9939 B( 13-C , 15-N ) :   0.9940 B( 13-C , 33-H ) :   0.9804
B( 13-C , 34-H ) :   0.9845 B( 14-N , 29-H ) :   0.9933 B( 15-N , 27-H ) :   0.9906
B( 16-C , 17-C ) :   0.9448 B( 16-C , 18-N ) :   0.9940 B( 16-C , 37-H ) :   0.9800
B( 16-C , 38-H ) :   0.9849 B( 17-C , 19-N ) :   0.9977 B( 17-C , 39-H ) :   0.9865
B( 17-C , 40-H ) :   0.9939 B( 18-N , 30-H ) :   0.9910 B( 19-N , 31-H ) :   0.9942
B( 20-C , 21-C ) :   0.9438 B( 20-C , 22-N ) :   0.9933 B( 20-C , 41-H ) :   0.9803
B( 20-C , 42-H ) :   0.9848 B( 21-C , 23-N ) :   0.9974 B( 21-C , 43-H ) :   0.9869
B( 21-C , 44-H ) :   0.9940 B( 22-N , 24-H ) :   0.9906 B( 23-N , 26-H ) :   0.9943

MP2 TOTAL ENERGY:     -912.650554716 Eh
FINAL SINGLE POINT ENERGY      -912.650554716148

DIPOLE MOMENT
-------------
                                X             Y             Z
Electronic contribution:      1.28283      -1.25512       2.16208
Nuclear contribution   :     -1.37472       1.08481      -2.43048
                        -----------------------------------------
Total Dipole Moment    :     -0.09189      -0.17031      -0.26840
                        -----------------------------------------
Magnitude (a.u.)       :      0.33090
Magnitude (Debye)      :      0.84107

Rotational constants in cm-1:     0.010854     0.006822     0.004573
Rotational constants in MHz :   325.395748   204.528937   137.102824

                             ****ORCA TERMINATED NORMALLY****
TOTAL RUN TIME: 0 days 0 hours 14 minutes 14 seconds 917 msec
