                         Program Version 4.2.1 -  RELEASE  -
|  1> ! RI-MP2 cc-pVTZ cc-pVTZ/C TIGHTSCF printbasis Grid6 NOFINALGRID SlowConv
|  2>
|  3> %base "_o_2_alde1_3_ami4_2_opt_MP2"
|  4> %maxcore 3000
|  5> %pal
|  6>    nprocs 32
|  7> end
|  8>
|  9> * xyzfile 0 1 _o_2_alde1_3_ami4_2_opt_B97-3c.xyz
| 10>
| 11>                          ****END OF INPUT****

CARTESIAN COORDINATES (ANGSTROEM)
---------------------------------
  C     -3.479346   -1.926218   -0.847122
  C     -3.728284   -1.525173    0.535511
  C     -2.564388   -2.928204   -1.180726
  C     -2.261466   -3.183012   -2.510216
  H     -2.082670   -3.483797   -0.386310
  C     -2.845572   -2.413878   -3.521354
  C     -3.763820   -1.423335   -3.207074
  H     -2.558476   -2.603251   -4.547668
  C     -4.090444   -1.206375   -1.864506
  C     -4.289280   -0.544055   -4.252927
  H     -4.797140   -0.421703   -1.630466
  C     -1.293971   -4.242027   -2.839407
  H     -3.764137   -0.593969   -5.216895
  H     -4.536191   -0.793039    0.666499
  C     -1.321041    1.660086   -0.188690
  C     -1.274503    0.942468    1.084078
  C     -2.543268    1.961998   -0.795878
  C     -2.589389    2.489515   -2.077785
  H     -3.456242    1.723531   -0.267753
  C     -1.393587    2.777782   -2.742389
  C     -0.170708    2.533086   -2.132995
  H     -1.440188    3.183240   -3.744745
  C     -0.143740    1.947151   -0.862537
  C      1.065370    2.870007   -2.836535
  H      0.816372    1.714832   -0.421455
  C     -3.890784    2.610443   -2.727094
  H     -4.752059    2.445377   -2.066460
  C     -2.191854   -0.131527    2.936618
  C     -3.240103   -1.244330    2.772808
  N     -2.295381    0.769811    1.817983
  H     -1.193680   -0.575478    3.038191
  N     -3.019136   -1.916863    1.514106
  H     -4.237377   -0.792842    2.840425
  O     -0.941470   -4.538480   -3.962939
  C     -5.540938    1.242344   -5.072036
  C     -5.385148    2.652904   -4.481466
  N     -5.238031    0.273515   -4.049350
  H     -4.903626    1.140971   -5.959075
  N     -4.042301    2.805276   -3.973675
  H     -6.146883    2.790725   -3.704571
  C      3.369369    3.151158   -3.072079
  C      4.151393    4.234131   -2.320480
  N      2.214160    2.750755   -2.309939
  H      4.016089    2.276680   -3.188986
  N      4.649491    3.868525   -1.005390
  H      3.508719    5.109830   -2.212322
  H     -0.300117    0.503340    1.339208
  H      0.937861    3.245041   -3.862404
  H      3.878010    3.508540   -0.456832
  H     -0.885520   -4.779084   -1.958641
  H     -2.423893    0.406960    3.857619
  H     -3.122606   -1.952397    3.592711
  H     -6.581801    1.126335   -5.379367
  H     -5.564168    3.379374   -5.273859
  H      3.108007    3.513396   -4.077940
  H      4.993209    4.543806   -2.941936
  H      5.310200    3.104957   -1.090629

 Total Charge           Charge          ....    0
 Multiplicity           Mult            ....    1
 Number of Electrons    NEL             ....  220
 Basis Dimension        Dim             .... 1294

ORBITAL ENERGIES
----------------

  NO   OCC          E(Eh)            E(eV)
   0   2.0000     -20.556447      -559.3694
   1   2.0000     -15.563568      -423.5062
   2   2.0000     -15.561896      -423.4607
   3   2.0000     -15.560951      -423.4350
   4   2.0000     -15.560291      -423.4170
   5   2.0000     -15.557562      -423.3428
   6   2.0000     -15.529924      -422.5907
   7   2.0000     -11.336810      -308.4903
   8   2.0000     -11.290254      -307.2234
   9   2.0000     -11.287733      -307.1548
  10   2.0000     -11.287456      -307.1473
  11   2.0000     -11.287204      -307.1404
  12   2.0000     -11.284586      -307.0692
  13   2.0000     -11.265598      -306.5525
  14   2.0000     -11.263654      -306.4996
  15   2.0000     -11.263231      -306.4881
  16   2.0000     -11.259481      -306.3860
  17   2.0000     -11.259101      -306.3757
  18   2.0000     -11.258084      -306.3480
  19   2.0000     -11.257445      -306.3306
  20   2.0000     -11.257253      -306.3254
  21   2.0000     -11.256486      -306.3046
  22   2.0000     -11.255783      -306.2854
  23   2.0000     -11.254585      -306.2528
  24   2.0000     -11.254164      -306.2414
  25   2.0000     -11.253940      -306.2353
  26   2.0000     -11.252330      -306.1915
  27   2.0000     -11.251912      -306.1801
  28   2.0000     -11.251869      -306.1789
  29   2.0000     -11.251384      -306.1657
  30   2.0000     -11.245368      -306.0020
  31   2.0000      -1.391141       -37.8549
  32   2.0000      -1.261327       -34.3225
  33   2.0000      -1.258864       -34.2554
  34   2.0000      -1.247230       -33.9388
  35   2.0000      -1.234471       -33.5917
  36   2.0000      -1.229117       -33.4460
  37   2.0000      -1.183771       -32.2120
  38   2.0000      -1.177088       -32.0302
  39   2.0000      -1.167289       -31.7635
  40   2.0000      -1.079873       -29.3848
  41   2.0000      -1.073078       -29.1999
  42   2.0000      -1.063453       -28.9380
  43   2.0000      -1.059564       -28.8322
  44   2.0000      -1.013957       -27.5912
  45   2.0000      -1.000441       -27.2234
  46   2.0000      -0.983366       -26.7588
  47   2.0000      -0.918866       -25.0036
  48   2.0000      -0.914258       -24.8782
  49   2.0000      -0.902646       -24.5622
  50   2.0000      -0.887456       -24.1489
  51   2.0000      -0.883334       -24.0367
  52   2.0000      -0.852751       -23.2045
  53   2.0000      -0.833656       -22.6849
  54   2.0000      -0.824312       -22.4307
  55   2.0000      -0.806857       -21.9557
  56   2.0000      -0.768498       -20.9119
  57   2.0000      -0.760674       -20.6990
  58   2.0000      -0.753944       -20.5159
  59   2.0000      -0.749947       -20.4071
  60   2.0000      -0.720564       -19.6076
  61   2.0000      -0.712773       -19.3955
  62   2.0000      -0.699541       -19.0355
  63   2.0000      -0.689849       -18.7717
  64   2.0000      -0.677714       -18.4415
  65   2.0000      -0.675014       -18.3681
  66   2.0000      -0.666788       -18.1442
  67   2.0000      -0.665181       -18.1005
  68   2.0000      -0.655339       -17.8327
  69   2.0000      -0.646007       -17.5788
  70   2.0000      -0.640182       -17.4202
  71   2.0000      -0.635436       -17.2911
  72   2.0000      -0.631746       -17.1907
  73   2.0000      -0.621870       -16.9219
  74   2.0000      -0.619041       -16.8450
  75   2.0000      -0.615567       -16.7504
  76   2.0000      -0.600734       -16.3468
  77   2.0000      -0.598330       -16.2814
  78   2.0000      -0.595235       -16.1972
  79   2.0000      -0.591177       -16.0867
  80   2.0000      -0.567364       -15.4388
  81   2.0000      -0.563833       -15.3427
  82   2.0000      -0.556162       -15.1339
  83   2.0000      -0.550583       -14.9821
  84   2.0000      -0.549156       -14.9433
  85   2.0000      -0.542193       -14.7538
  86   2.0000      -0.538856       -14.6630
  87   2.0000      -0.537752       -14.6330
  88   2.0000      -0.523432       -14.2433
  89   2.0000      -0.521490       -14.1905
  90   2.0000      -0.514755       -14.0072
  91   2.0000      -0.509910       -13.8754
  92   2.0000      -0.503884       -13.7114
  93   2.0000      -0.492837       -13.4108
  94   2.0000      -0.464414       -12.6373
  95   2.0000      -0.463081       -12.6011
  96   2.0000      -0.456916       -12.4333
  97   2.0000      -0.433656       -11.8004
  98   2.0000      -0.429790       -11.6952
  99   2.0000      -0.418861       -11.3978
 100   2.0000      -0.417293       -11.3551
 101   2.0000      -0.416132       -11.3235
 102   2.0000      -0.413966       -11.2646
 103   2.0000      -0.411380       -11.1942
 104   2.0000      -0.406133       -11.0515
 105   2.0000      -0.384694       -10.4681
 106   2.0000      -0.349953        -9.5227
 107   2.0000      -0.335348        -9.1253
 108   2.0000      -0.330308        -8.9881
 109   2.0000      -0.327873        -8.9219
 110   0.0000       0.055742         1.5168
 111   0.0000       0.062911         1.7119
 112   0.0000       0.069499         1.8912
 113   0.0000       0.073464         1.9990
 114   0.0000       0.119731         3.2581

MULLIKEN ATOMIC CHARGES
-----------------------
   0 C :    0.164706
   1 C :   -0.092494
   2 C :   -0.198378
   3 C :    0.072196
   4 H :    0.166695
   5 C :   -0.207390
   6 C :    0.180590
   7 H :    0.175225
   8 C :   -0.199691
   9 C :   -0.078576
  10 H :    0.167942
  11 C :    0.173428
  12 H :    0.095177
  13 H :    0.103068
  14 C :    0.187475
  15 C :   -0.077170
  16 C :   -0.225386
  17 C :    0.170622
  18 H :    0.164359
  19 C :   -0.211847
  20 C :    0.151274
  21 H :    0.158977
  22 C :   -0.204926
  23 C :   -0.083348
  24 H :    0.159838
  25 C :   -0.092560
  26 H :    0.100827
  27 C :   -0.037068
  28 C :   -0.042030
  29 N :   -0.265158
  30 H :    0.062860
  31 N :   -0.259120
  32 H :    0.068401
  33 O :   -0.364189
  34 C :   -0.037615
  35 C :   -0.041428
  36 N :   -0.263791
  37 H :    0.063689
  38 N :   -0.259441
  39 H :    0.067434
  40 C :   -0.043241
  41 C :   -0.050761
  42 N :   -0.256689
  43 H :    0.087978
  44 N :   -0.365611
  45 H :    0.085350
  46 H :    0.092330
  47 H :    0.093129
  48 H :    0.146146
  49 H :    0.093163
  50 H :    0.103601
  51 H :    0.109837
  52 H :    0.103866
  53 H :    0.109471
  54 H :    0.056838
  55 H :    0.092540
  56 H :    0.128875
Sum of atomic charges:   -0.0000000

LOEWDIN ATOMIC CHARGES
----------------------
   0 C :   -0.073550
   1 C :   -0.072562
   2 C :    0.102811
   3 C :   -0.093491
   4 H :   -0.014218
   5 C :    0.100693
   6 C :   -0.072523
   7 H :   -0.011590
   8 C :    0.105357
   9 C :   -0.067340
  10 H :   -0.018831
  11 C :   -0.148261
  12 H :   -0.032826
  13 H :   -0.033932
  14 C :   -0.075477
  15 C :   -0.067518
  16 C :    0.092096
  17 C :   -0.075319
  18 H :   -0.022083
  19 C :    0.093599
  20 C :   -0.075505
  21 H :   -0.017299
  22 C :    0.093889
  23 C :   -0.074156
  24 H :   -0.019105
  25 C :   -0.072672
  26 H :   -0.034736
  27 C :   -0.035003
  28 C :   -0.037029
  29 N :    0.215101
  30 H :   -0.038606
  31 N :    0.206442
  32 H :   -0.036713
  33 O :    0.138536
  34 C :   -0.034119
  35 C :   -0.037897
  36 N :    0.217289
  37 H :   -0.038227
  38 N :    0.204795
  39 H :   -0.037180
  40 C :   -0.046689
  41 C :   -0.026613
  42 N :    0.214524
  43 H :   -0.033399
  44 N :    0.325299
  45 H :   -0.031860
  46 H :   -0.033524
  47 H :   -0.034142
  48 H :   -0.110072
  49 H :   -0.034147
  50 H :   -0.027586
  51 H :   -0.029227
  52 H :   -0.027640
  53 H :   -0.029161
  54 H :   -0.038089
  55 H :   -0.029504
  56 H :   -0.111007

  Mayer bond orders larger than 0.100000
B(  0-C ,  1-C ) :   0.9978 B(  0-C ,  2-C ) :   1.2895 B(  0-C ,  8-C ) :   1.3773
B(  1-C , 13-H ) :   0.9911 B(  1-C , 31-N ) :   1.9664 B(  2-C ,  3-C ) :   1.3723
B(  2-C ,  4-H ) :   0.9590 B(  3-C ,  5-C ) :   1.2872 B(  3-C , 11-C ) :   0.9327
B(  5-C ,  6-C ) :   1.3883 B(  5-C ,  7-H ) :   0.9628 B(  6-C ,  8-C ) :   1.2883
B(  6-C ,  9-C ) :   0.9864 B(  8-C , 10-H ) :   0.9591 B(  9-C , 12-H ) :   0.9900
B(  9-C , 36-N ) :   1.9817 B( 11-C , 33-O ) :   2.0871 B( 11-C , 49-H ) :   1.0194
B( 14-C , 15-C ) :   0.9836 B( 14-C , 16-C ) :   1.2890 B( 14-C , 22-C ) :   1.3952
B( 15-C , 29-N ) :   1.9793 B( 15-C , 46-H ) :   0.9908 B( 16-C , 17-C ) :   1.3768
B( 16-C , 18-H ) :   0.9613 B( 17-C , 19-C ) :   1.3016 B( 17-C , 25-C ) :   0.9964
B( 19-C , 20-C ) :   1.3912 B( 19-C , 21-H ) :   0.9627 B( 20-C , 22-C ) :   1.3003
B( 20-C , 23-C ) :   0.9947 B( 22-C , 24-H ) :   0.9644 B( 23-C , 42-N ) :   2.0062
B( 23-C , 47-H ) :   0.9895 B( 25-C , 26-H ) :   0.9916 B( 25-C , 38-N ) :   1.9663
B( 27-C , 28-C ) :   0.9308 B( 27-C , 29-N ) :   0.9706 B( 27-C , 30-H ) :   0.9743
B( 27-C , 50-H ) :   0.9804 B( 28-C , 31-N ) :   0.9673 B( 28-C , 32-H ) :   0.9776
B( 28-C , 51-H ) :   0.9877 B( 34-C , 35-C ) :   0.9305 B( 34-C , 36-N ) :   0.9688
B( 34-C , 37-H ) :   0.9748 B( 34-C , 52-H ) :   0.9806 B( 35-C , 38-N ) :   0.9691
B( 35-C , 39-H ) :   0.9774 B( 35-C , 53-H ) :   0.9876 B( 40-C , 41-C ) :   0.9564
B( 40-C , 42-N ) :   0.9535 B( 40-C , 43-H ) :   0.9721 B( 40-C , 54-H ) :   0.9765
B( 41-C , 44-N ) :   1.0036 B( 41-C , 45-H ) :   0.9810 B( 41-C , 55-H ) :   0.9878
B( 44-N , 48-H ) :   0.9942 B( 44-N , 56-H ) :   1.0005

MP2 TOTAL ENERGY:    -1331.167589844 Eh
FINAL SINGLE POINT ENERGY     -1331.167589844338

DIPOLE MOMENT
-------------
                                X             Y             Z
Electronic contribution:    -11.18757     -13.93907      -2.08829
Nuclear contribution   :     10.42076      14.26127       2.30339
                        -----------------------------------------
Total Dipole Moment    :     -0.76681       0.32219       0.21510
                        -----------------------------------------
Magnitude (a.u.)       :      0.85911
Magnitude (Debye)      :      2.18369

Rotational constants in cm-1:     0.004707     0.003124     0.002749
Rotational constants in MHz :   141.122256    93.659669    82.405334

                             ****ORCA TERMINATED NORMALLY****
TOTAL RUN TIME: 0 days 0 hours 30 minutes 21 seconds 490 msec
