                         Program Version 4.2.1 -  RELEASE  -
|  1> ! RI-MP2 cc-pVTZ cc-pVTZ/C TIGHTSCF printbasis Grid6 NOFINALGRID SlowConv
|  2>
|  3> %base "_o_2_alde1_4_ami1_2_opt_MP2"
|  4> %maxcore 3000
|  5> %pal
|  6>    nprocs 32
|  7> end
|  8>
|  9> * xyzfile 0 1 _o_2_alde1_4_ami1_2_opt_B97-3c.xyz
| 10>
| 11>                          ****END OF INPUT****

CARTESIAN COORDINATES (ANGSTROEM)
---------------------------------
  C     -0.702395   -2.656025   -2.922748
  C      0.606239   -2.841683   -2.296289
  C     -1.848841   -2.652338   -2.142331
  C     -3.099211   -2.372536   -2.706188
  H     -1.795227   -2.867129   -1.083320
  C     -3.180004   -2.048866   -4.054466
  C     -2.032472   -2.039636   -4.853390
  H     -4.129597   -1.786290   -4.502974
  C     -0.809971   -2.369858   -4.286120
  C     -2.040591   -1.575092   -6.237495
  H      0.092272   -2.356607   -4.881798
  C     -4.319919   -2.418035   -1.902131
  H     -1.077105   -1.672956   -6.755073
  H      0.614076   -2.767517   -1.199869
  H     -5.247798   -2.172864   -2.440712
  C      1.140261    0.777544   -3.586961
  C      2.239800   -0.183492   -3.645973
  C      0.340016    0.958246   -4.710018
  C     -0.842116    1.694276   -4.633576
  H      0.585457    0.473368   -5.645114
  C     -1.188520    2.286254   -3.421060
  C     -0.373186    2.149174   -2.296495
  H     -2.116654    2.841902   -3.342579
  C      0.782591    1.383135   -2.386239
  C     -0.767152    2.743542   -1.018019
  H      1.384197    1.223323   -1.504506
  C     -1.784919    1.719659   -5.749982
  H     -1.714559    3.301962   -1.010031
  H     -2.788271    2.099091   -5.507407
  C      3.722898   -1.733344   -2.755167
  C      2.931368   -2.964079   -2.232824
  N      2.848575   -0.592073   -2.610461
  H      3.941787   -1.918798   -3.814546
  C      5.054529   -1.490644   -2.030486
  N      1.678164   -2.999279   -2.956662
  H      2.749516   -2.800681   -1.163461
  C      3.686246   -4.295937   -2.374765
  H      5.680476   -2.364436   -2.226345
  C      4.905756   -1.328865   -0.523987
  C      5.757257   -0.283186   -2.638104
  H      4.609702   -4.185056   -1.802009
  C      4.048583   -4.643087   -3.810990
  C      2.885895   -5.419022   -1.727695
  H      6.751629   -0.158699   -2.210729
  H      5.194113    0.629288   -2.448685
  H      5.867959   -0.387786   -3.717924
  H      5.862562   -1.067394   -0.073295
  H      4.560249   -2.241338   -0.041220
  H      4.196266   -0.537520   -0.291246
  H      1.964039   -5.610776   -2.274655
  H      2.618112   -5.174251   -0.699193
  H      3.461294   -6.343971   -1.711294
  H      4.533312   -5.617769   -3.856435
  H      4.733475   -3.919706   -4.249123
  H      3.157327   -4.680556   -4.433695
  C     -5.602902   -2.838810    0.005240
  C     -5.597677   -1.943911    1.283081
  N     -4.329321   -2.742858   -0.674782
  H     -6.402030   -2.490166   -0.659044
  C     -5.914385   -4.328505    0.271170
  N     -4.295504   -1.844300    1.939782
  H     -6.273212   -2.399904    2.010117
  C     -6.162957   -0.540527    0.993532
  H     -5.757669   -4.825170   -0.691163
  C     -7.376392   -4.524612    0.646561
  C     -4.991999   -4.994702    1.279287
  H     -5.600538   -0.123649    0.148788
  C     -5.989157    0.393149    2.185429
  C     -7.638802   -0.589712    0.609771
  H     -5.167261   -6.069852    1.298445
  H     -5.171286   -4.628154    2.290583
  H     -3.946339   -4.831258    1.029158
  H     -8.044550   -4.094723   -0.099331
  H     -7.616165   -4.067900    1.606345
  H     -7.607507   -5.586103    0.727516
  H     -7.838201   -1.185637   -0.278151
  H     -8.016474    0.413188    0.415095
  H     -8.231894   -1.007716    1.425053
  H     -6.520026    0.004805    3.056498
  H     -6.397826    1.378944    1.961150
  H     -4.948063    0.501167    2.465916
  C     -2.786580   -0.404760   -8.089977
  C     -2.595220    1.118439   -7.851339
  N     -3.031809   -1.011060   -6.795942
  H     -1.841831   -0.774943   -8.507385
  C     -3.903745   -0.754367   -9.081472
  N     -1.514774    1.255965   -6.899993
  H     -3.532549    1.504224   -7.429811
  C     -2.299901    1.916158   -9.132479
  H     -3.613283   -0.319061  -10.040379
  C     -5.263810   -0.195439   -8.691857
  C     -3.967602   -2.264350   -9.270512
  H     -3.170731    1.790116   -9.779699
  C     -1.066748    1.433595   -9.882376
  C     -2.189740    3.399782   -8.803985
  H     -2.993619   -2.671411   -9.543925
  H     -4.673363   -2.527353  -10.057472
  H     -4.287307   -2.757802   -8.354153
  H     -5.547697   -0.535049   -7.698087
  H     -6.027567   -0.528847   -9.393608
  H     -5.277447    0.892999   -8.691376
  H     -3.061551    3.751130   -8.250887
  H     -2.111056    3.993406   -9.714069
  H     -1.308493    3.601117   -8.197075
  H     -0.869447    2.073211  -10.742100
  H     -1.180248    0.417297  -10.255199
  H     -0.191522    1.457670   -9.236626
  C      0.586338    4.119501    1.776497
  C     -0.512671    3.170855    1.275915
  N      0.718694    5.194074    0.788748
  H      1.504144    3.521341    1.846084
  C      0.328881    4.702084    3.171968
  N     -0.058389    2.607508    0.025382
  H     -1.421255    3.769497    1.122718
  C     -0.863386    2.021769    2.241446
  H      0.277753    3.852845    3.856558
  C     -0.971970    5.484691    3.277829
  C      1.508190    5.555565    3.628297
  H     -1.221043    2.494990    3.157968
  C      0.322121    1.132433    2.588714
  C     -2.014255    1.193848    1.687363
  H      2.456290    5.034159    3.490224
  H      1.416535    5.803989    4.685056
  H      1.558393    6.500471    3.086356
  H     -0.995864    6.287540    2.544272
  H     -1.074434    5.925377    4.269448
  H     -1.843787    4.855177    3.109156
  H     -2.366239    0.475397    2.425192
  H     -1.709997    0.637679    0.801298
  H     -2.860482    1.822680    1.408716
  H      0.743475    0.683526    1.691840
  H      0.007769    0.328987    3.254060
  H      1.118116    1.679446    3.090059
  H      2.443322   -0.607593   -4.638731
  H     -3.608777   -1.576387    1.244257
  H     -4.007089   -2.765754    2.238380
  H      0.923960    4.778000   -0.111020
  H      1.521760    5.765013    1.017316

 Total Charge           Charge          ....    0
 Multiplicity           Mult            ....    1
 Number of Electrons    NEL             ....  436
 Basis Dimension        Dim             .... 2860

ORBITAL ENERGIES
----------------

  NO   OCC          E(Eh)            E(eV)
   0   2.0000     -15.556258      -423.3073
   1   2.0000     -15.551382      -423.1746
   2   2.0000     -15.551021      -423.1648
   3   2.0000     -15.550178      -423.1419
   4   2.0000     -15.549841      -423.1327
   5   2.0000     -15.546645      -423.0457
   6   2.0000     -15.524075      -422.4316
   7   2.0000     -15.521850      -422.3710
   8   2.0000     -11.285842      -307.1034
   9   2.0000     -11.282019      -306.9993
  10   2.0000     -11.279865      -306.9407
  11   2.0000     -11.279673      -306.9355
  12   2.0000     -11.279507      -306.9310
  13   2.0000     -11.276496      -306.8491
  14   2.0000     -11.253732      -306.2296
  15   2.0000     -11.252759      -306.2031
  16   2.0000     -11.251749      -306.1757
  17   2.0000     -11.251093      -306.1578
  18   2.0000     -11.250625      -306.1451
  19   2.0000     -11.250584      -306.1439
  20   2.0000     -11.249808      -306.1228
  21   2.0000     -11.249683      -306.1194
  22   2.0000     -11.249310      -306.1093
  23   2.0000     -11.248946      -306.0994
  24   2.0000     -11.248214      -306.0795
  25   2.0000     -11.247772      -306.0674
  26   2.0000     -11.247376      -306.0567
  27   2.0000     -11.246968      -306.0456
  28   2.0000     -11.245867      -306.0156
  29   2.0000     -11.245392      -306.0027
  30   2.0000     -11.244053      -305.9662
  31   2.0000     -11.243137      -305.9413
  32   2.0000     -11.240372      -305.8661
  33   2.0000     -11.239488      -305.8420
  34   2.0000     -11.226355      -305.4847
  35   2.0000     -11.224919      -305.4456
  36   2.0000     -11.223407      -305.4044
  37   2.0000     -11.223269      -305.4007
  38   2.0000     -11.220912      -305.3365
  39   2.0000     -11.218422      -305.2688
  40   2.0000     -11.217751      -305.2505
  41   2.0000     -11.216348      -305.2123
  42   2.0000     -11.212208      -305.0997
  43   2.0000     -11.209538      -305.0270
  44   2.0000     -11.207691      -304.9768
  45   2.0000     -11.207247      -304.9647
  46   2.0000     -11.206374      -304.9409
  47   2.0000     -11.206172      -304.9354
  48   2.0000     -11.205845      -304.9265
  49   2.0000     -11.205677      -304.9220
  50   2.0000     -11.205655      -304.9214
  51   2.0000     -11.204412      -304.8876
  52   2.0000     -11.203093      -304.8517
  53   2.0000     -11.201907      -304.8194
  54   2.0000     -11.199340      -304.7495
  55   2.0000     -11.199041      -304.7414
  56   2.0000     -11.197973      -304.7123
  57   2.0000     -11.194110      -304.6072
  58   2.0000      -1.258872       -34.2556
  59   2.0000      -1.256301       -34.1857
  60   2.0000      -1.248214       -33.9656
  61   2.0000      -1.245287       -33.8860
  62   2.0000      -1.227020       -33.3889
  63   2.0000      -1.221905       -33.2497
  64   2.0000      -1.181380       -32.1470
  65   2.0000      -1.178696       -32.0740
  66   2.0000      -1.168718       -31.8024
  67   2.0000      -1.162292       -31.6276
  68   2.0000      -1.105075       -30.0706
  69   2.0000      -1.097540       -29.8656
  70   2.0000      -1.085980       -29.5510
  71   2.0000      -1.081938       -29.4410
  72   2.0000      -1.074208       -29.2307
  73   2.0000      -1.068100       -29.0645
  74   2.0000      -1.061579       -28.8870
  75   2.0000      -1.056615       -28.7520
  76   2.0000      -1.049205       -28.5503
  77   2.0000      -1.048550       -28.5325
  78   2.0000      -1.044058       -28.4103
  79   2.0000      -1.039870       -28.2963
  80   2.0000      -0.976864       -26.5818
  81   2.0000      -0.970021       -26.3956
  82   2.0000      -0.960116       -26.1261
  83   2.0000      -0.959337       -26.1049
  84   2.0000      -0.934323       -25.4242
  85   2.0000      -0.931776       -25.3549
  86   2.0000      -0.929946       -25.3051
  87   2.0000      -0.928382       -25.2626
  88   2.0000      -0.925580       -25.1863
  89   2.0000      -0.925303       -25.1788
  90   2.0000      -0.922575       -25.1045
  91   2.0000      -0.920400       -25.0453
  92   2.0000      -0.907181       -24.6856
  93   2.0000      -0.902649       -24.5623
  94   2.0000      -0.888715       -24.1832
  95   2.0000      -0.884656       -24.0727
  96   2.0000      -0.875304       -23.8182
  97   2.0000      -0.858440       -23.3593
  98   2.0000      -0.848973       -23.1017
  99   2.0000      -0.844523       -22.9807
 100   2.0000      -0.833229       -22.6733
 101   2.0000      -0.823181       -22.3999
 102   2.0000      -0.791854       -21.5474
 103   2.0000      -0.787195       -21.4207
 104   2.0000      -0.778123       -21.1738
 105   2.0000      -0.773857       -21.0577
 106   2.0000      -0.769302       -20.9338
 107   2.0000      -0.763747       -20.7826
 108   2.0000      -0.757255       -20.6060
 109   2.0000      -0.747863       -20.3504
 110   2.0000      -0.743045       -20.2193
 111   2.0000      -0.735792       -20.0219
 112   2.0000      -0.729843       -19.8600
 113   2.0000      -0.725403       -19.7392
 114   2.0000      -0.707119       -19.2417
 115   2.0000      -0.702716       -19.1219
 116   2.0000      -0.684288       -18.6204
 117   2.0000      -0.683151       -18.5895
 118   2.0000      -0.672485       -18.2992
 119   2.0000      -0.669476       -18.2174
 120   2.0000      -0.669371       -18.2145
 121   2.0000      -0.661931       -18.0121
 122   2.0000      -0.659355       -17.9420
 123   2.0000      -0.655852       -17.8466
 124   2.0000      -0.650394       -17.6981
 125   2.0000      -0.646271       -17.5859
 126   2.0000      -0.641598       -17.4588
 127   2.0000      -0.637837       -17.3564
 128   2.0000      -0.634621       -17.2689
 129   2.0000      -0.632536       -17.2122
 130   2.0000      -0.625809       -17.0291
 131   2.0000      -0.621850       -16.9214
 132   2.0000      -0.616859       -16.7856
 133   2.0000      -0.612267       -16.6606
 134   2.0000      -0.610645       -16.6165
 135   2.0000      -0.603944       -16.4342
 136   2.0000      -0.601972       -16.3805
 137   2.0000      -0.598413       -16.2836
 138   2.0000      -0.595832       -16.2134
 139   2.0000      -0.593780       -16.1576
 140   2.0000      -0.591131       -16.0855
 141   2.0000      -0.585489       -15.9320
 142   2.0000      -0.583810       -15.8863
 143   2.0000      -0.582046       -15.8383
 144   2.0000      -0.579775       -15.7765
 145   2.0000      -0.578798       -15.7499
 146   2.0000      -0.576691       -15.6925
 147   2.0000      -0.573568       -15.6076
 148   2.0000      -0.570876       -15.5343
 149   2.0000      -0.568786       -15.4774
 150   2.0000      -0.566153       -15.4058
 151   2.0000      -0.563160       -15.3244
 152   2.0000      -0.557471       -15.1696
 153   2.0000      -0.555529       -15.1167
 154   2.0000      -0.547107       -14.8876
 155   2.0000      -0.544163       -14.8074
 156   2.0000      -0.542150       -14.7526
 157   2.0000      -0.540953       -14.7201
 158   2.0000      -0.539797       -14.6886
 159   2.0000      -0.537131       -14.6161
 160   2.0000      -0.535508       -14.5719
 161   2.0000      -0.533382       -14.5141
 162   2.0000      -0.531861       -14.4727
 163   2.0000      -0.530566       -14.4374
 164   2.0000      -0.528429       -14.3793
 165   2.0000      -0.527856       -14.3637
 166   2.0000      -0.524975       -14.2853
 167   2.0000      -0.523291       -14.2395
 168   2.0000      -0.522870       -14.2280
 169   2.0000      -0.520420       -14.1614
 170   2.0000      -0.519814       -14.1449
 171   2.0000      -0.517994       -14.0953
 172   2.0000      -0.517778       -14.0895
 173   2.0000      -0.514519       -14.0008
 174   2.0000      -0.511403       -13.9160
 175   2.0000      -0.502331       -13.6691
 176   2.0000      -0.497645       -13.5416
 177   2.0000      -0.497195       -13.5294
 178   2.0000      -0.487271       -13.2593
 179   2.0000      -0.483148       -13.1471
 180   2.0000      -0.481925       -13.1138
 181   2.0000      -0.479372       -13.0444
 182   2.0000      -0.478618       -13.0239
 183   2.0000      -0.478210       -13.0128
 184   2.0000      -0.478136       -13.0107
 185   2.0000      -0.476314       -12.9612
 186   2.0000      -0.472989       -12.8707
 187   2.0000      -0.472069       -12.8456
 188   2.0000      -0.471602       -12.8329
 189   2.0000      -0.469987       -12.7890
 190   2.0000      -0.469014       -12.7625
 191   2.0000      -0.465762       -12.6740
 192   2.0000      -0.462722       -12.5913
 193   2.0000      -0.459560       -12.5053
 194   2.0000      -0.457358       -12.4453
 195   2.0000      -0.456337       -12.4176
 196   2.0000      -0.454307       -12.3623
 197   2.0000      -0.452980       -12.3262
 198   2.0000      -0.450222       -12.2512
 199   2.0000      -0.443143       -12.0585
 200   2.0000      -0.437850       -11.9145
 201   2.0000      -0.433958       -11.8086
 202   2.0000      -0.432260       -11.7624
 203   2.0000      -0.429118       -11.6769
 204   2.0000      -0.409035       -11.1304
 205   2.0000      -0.407378       -11.0853
 206   2.0000      -0.405879       -11.0445
 207   2.0000      -0.404340       -11.0027
 208   2.0000      -0.400211       -10.8903
 209   2.0000      -0.398331       -10.8391
 210   2.0000      -0.393921       -10.7191
 211   2.0000      -0.390622       -10.6294
 212   2.0000      -0.378910       -10.3107
 213   2.0000      -0.374021       -10.1776
 214   2.0000      -0.330488        -8.9930
 215   2.0000      -0.326215        -8.8768
 216   2.0000      -0.320607        -8.7242
 217   2.0000      -0.316344        -8.6082
 218   0.0000       0.060557         1.6479
 219   0.0000       0.069293         1.8856
 220   0.0000       0.078618         2.1393
 221   0.0000       0.084537         2.3004
 222   0.0000       0.121617         3.3094

MULLIKEN ATOMIC CHARGES
-----------------------
   0 C :    0.200864
   1 C :   -0.097102
   2 C :   -0.208944
   3 C :    0.165205
   4 H :    0.164260
   5 C :   -0.226576
   6 C :    0.175346
   7 H :    0.162781
   8 C :   -0.220100
   9 C :   -0.089184
  10 H :    0.167615
  11 C :   -0.100385
  12 H :    0.093152
  13 H :    0.091306
  14 H :    0.091935
  15 C :    0.177000
  16 C :   -0.091731
  17 C :   -0.230370
  18 C :    0.202495
  19 H :    0.169049
  20 C :   -0.232604
  21 C :    0.188818
  22 H :    0.139149
  23 C :   -0.203631
  24 C :   -0.137108
  25 H :    0.194632
  26 C :   -0.094935
  27 H :    0.095116
  28 H :    0.085417
  29 C :    0.048274
  30 C :    0.044090
  31 N :   -0.292674
  32 H :    0.107209
  33 C :   -0.066904
  34 N :   -0.298457
  35 H :    0.112998
  36 C :   -0.067233
  37 H :    0.112349
  38 C :   -0.324644
  39 C :   -0.325767
  40 H :    0.114876
  41 C :   -0.317603
  42 C :   -0.328316
  43 H :    0.104917
  44 H :    0.104691
  45 H :    0.092924
  46 H :    0.105099
  47 H :    0.093993
  48 H :    0.117147
  49 H :    0.101451
  50 H :    0.095082
  51 H :    0.108568
  52 H :    0.105107
  53 H :    0.095736
  54 H :    0.109082
  55 C :    0.001483
  56 C :   -0.002502
  57 N :   -0.282654
  58 H :    0.113257
  59 C :   -0.025162
  60 N :   -0.376671
  61 H :    0.116451
  62 C :   -0.053267
  63 H :    0.098604
  64 C :   -0.327084
  65 C :   -0.341905
  66 H :    0.092798
  67 C :   -0.310993
  68 C :   -0.329454
  69 H :    0.114190
  70 H :    0.087369
  71 H :    0.114215
  72 H :    0.100027
  73 H :    0.093691
  74 H :    0.112982
  75 H :    0.096707
  76 H :    0.110881
  77 H :    0.093271
  78 H :    0.085489
  79 H :    0.089328
  80 H :    0.131381
  81 C :    0.048991
  82 C :    0.049587
  83 N :   -0.302066
  84 H :    0.108906
  85 C :   -0.067214
  86 N :   -0.300273
  87 H :    0.109162
  88 C :   -0.069054
  89 H :    0.114813
  90 C :   -0.321071
  91 C :   -0.326340
  92 H :    0.115795
  93 C :   -0.320784
  94 C :   -0.329740
  95 H :    0.094175
  96 H :    0.105795
  97 H :    0.102861
  98 H :    0.109241
  99 H :    0.106049
 100 H :    0.095003
 101 H :    0.093548
 102 H :    0.108879
 103 H :    0.103075
 104 H :    0.106467
 105 H :    0.096124
 106 H :    0.110542
 107 C :    0.023344
 108 C :    0.042405
 109 N :   -0.394655
 110 H :    0.117245
 111 C :   -0.084601
 112 N :   -0.285038
 113 H :    0.110156
 114 C :   -0.065552
 115 H :    0.116613
 116 C :   -0.314229
 117 C :   -0.335717
 118 H :    0.119683
 119 C :   -0.317496
 120 C :   -0.371360
 121 H :    0.100936
 122 H :    0.106645
 123 H :    0.091244
 124 H :    0.109215
 125 H :    0.101751
 126 H :    0.094904
 127 H :    0.130699
 128 H :    0.100059
 129 H :    0.098527
 130 H :    0.112703
 131 H :    0.103785
 132 H :    0.096208
 133 H :    0.093853
 134 H :    0.153028
 135 H :    0.134071
 136 H :    0.146746
 137 H :    0.136460
Sum of atomic charges:   -0.0000000

LOEWDIN ATOMIC CHARGES
----------------------
   0 C :   -0.072744
   1 C :   -0.064122
   2 C :    0.092924
   3 C :   -0.076317
   4 H :   -0.019734
   5 C :    0.090507
   6 C :   -0.074493
   7 H :   -0.018625
   8 C :    0.094835
   9 C :   -0.069606
  10 H :   -0.021120
  11 C :   -0.073760
  12 H :   -0.034103
  13 H :   -0.033444
  14 H :   -0.033999
  15 C :   -0.075120
  16 C :   -0.067926
  17 C :    0.091702
  18 C :   -0.076610
  19 H :   -0.022031
  20 C :    0.072479
  21 C :   -0.078130
  22 H :   -0.021438
  23 C :    0.111713
  24 C :   -0.068212
  25 H :   -0.017401
  26 C :   -0.066383
  27 H :   -0.035355
  28 H :   -0.034992
  29 C :   -0.099361
  30 C :   -0.095948
  31 N :    0.237072
  32 H :   -0.031460
  33 C :   -0.025806
  34 N :    0.236296
  35 H :   -0.030575
  36 C :   -0.024932
  37 H :   -0.024973
  38 C :    0.116687
  39 C :    0.115494
  40 H :   -0.023326
  41 C :    0.116785
  42 C :    0.115417
  43 H :   -0.030449
  44 H :   -0.029036
  45 H :   -0.030949
  46 H :   -0.029022
  47 H :   -0.035934
  48 H :   -0.027573
  49 H :   -0.030180
  50 H :   -0.030756
  51 H :   -0.029412
  52 H :   -0.028744
  53 H :   -0.035128
  54 H :   -0.029041
  55 C :   -0.097935
  56 C :   -0.070955
  57 N :    0.233148
  58 H :   -0.033216
  59 C :   -0.026159
  60 N :    0.349502
  61 H :   -0.027935
  62 C :   -0.023748
  63 H :   -0.021962
  64 C :    0.116672
  65 C :    0.113322
  66 H :   -0.028223
  67 C :    0.114891
  68 C :    0.114793
  69 H :   -0.027152
  70 H :   -0.032850
  71 H :   -0.030862
  72 H :   -0.029908
  73 H :   -0.032947
  74 H :   -0.026617
  75 H :   -0.039883
  76 H :   -0.027733
  77 H :   -0.028857
  78 H :   -0.029134
  79 H :   -0.033623
  80 H :   -0.033571
  81 C :   -0.098208
  82 C :   -0.097402
  83 N :    0.226753
  84 H :   -0.030536
  85 C :   -0.027054
  86 N :    0.235232
  87 H :   -0.031592
  88 C :   -0.025160
  89 H :   -0.023799
  90 C :    0.116433
  91 C :    0.115958
  92 H :   -0.023742
  93 C :    0.116672
  94 C :    0.115393
  95 H :   -0.030204
  96 H :   -0.030377
  97 H :   -0.029763
  98 H :   -0.029333
  99 H :   -0.028646
 100 H :   -0.035500
 101 H :   -0.031104
 102 H :   -0.029491
 103 H :   -0.029653
 104 H :   -0.028374
 105 H :   -0.035246
 106 H :   -0.028804
 107 C :   -0.078758
 108 C :   -0.101427
 109 N :    0.340652
 110 H :   -0.034406
 111 C :   -0.027013
 112 N :    0.246011
 113 H :   -0.029535
 114 C :   -0.022112
 115 H :   -0.023609
 116 C :    0.116530
 117 C :    0.114459
 118 H :   -0.023261
 119 C :    0.116833
 120 C :    0.112513
 121 H :   -0.029623
 122 H :   -0.028268
 123 H :   -0.032124
 124 H :   -0.029102
 125 H :   -0.030126
 126 H :   -0.035118
 127 H :   -0.027460
 128 H :   -0.033436
 129 H :   -0.031326
 130 H :   -0.029311
 131 H :   -0.029044
 132 H :   -0.034966
 133 H :   -0.035823
 134 H :   -0.113525
 135 H :   -0.115112
 136 H :   -0.114219
 137 H :   -0.113445

  Mayer bond orders larger than 0.100000
B(  0-C ,  1-C ) :   0.9967 B(  0-C ,  2-C ) :   1.3988 B(  0-C ,  8-C ) :   1.2844
B(  1-C , 13-H ) :   0.9901 B(  1-C , 34-N ) :   1.9515 B(  2-C ,  3-C ) :   1.3019
B(  2-C ,  4-H ) :   0.9647 B(  3-C ,  5-C ) :   1.3898 B(  3-C , 11-C ) :   1.0093
B(  5-C ,  6-C ) :   1.2996 B(  5-C ,  7-H ) :   0.9641 B(  6-C ,  8-C ) :   1.3779
B(  6-C ,  9-C ) :   1.0160 B(  8-C , 10-H ) :   0.9624 B(  9-C , 12-H ) :   0.9927
B(  9-C , 83-N ) :   1.9395 B( 11-C , 14-H ) :   0.9888 B( 11-C , 57-N ) :   1.9814
B( 15-C , 16-C ) :   1.0085 B( 15-C , 17-C ) :   1.3395 B( 15-C , 23-C ) :   1.3155
B( 16-C , 31-N ) :   1.9419 B( 16-C ,133-H ) :   0.9940 B( 17-C , 18-C ) :   1.3243
B( 17-C , 19-H ) :   0.9629 B( 18-C , 20-C ) :   1.3778 B( 18-C , 26-C ) :   0.9964
B( 20-C , 21-C ) :   1.3487 B( 20-C , 22-H ) :   0.9758 B( 21-C , 23-C ) :   1.3422
B( 21-C , 24-C ) :   0.9833 B( 23-C , 25-H ) :   0.9447 B( 24-C , 27-H ) :   0.9961
B( 24-C ,112-N ) :   1.9444 B( 26-C , 28-H ) :   0.9922 B( 26-C , 86-N ) :   1.9474
B( 29-C , 30-C ) :   0.9674 B( 29-C , 31-N ) :   0.9224 B( 29-C , 32-H ) :   0.9811
B( 29-C , 33-C ) :   0.9493 B( 30-C , 34-N ) :   0.9189 B( 30-C , 35-H ) :   0.9797
B( 30-C , 36-C ) :   0.9466 B( 33-C , 37-H ) :   0.9811 B( 33-C , 38-C ) :   0.9468
B( 33-C , 39-C ) :   0.9499 B( 36-C , 40-H ) :   0.9793 B( 36-C , 41-C ) :   0.9478
B( 36-C , 42-C ) :   0.9488 B( 38-C , 46-H ) :   0.9880 B( 38-C , 47-H ) :   0.9839
B( 38-C , 48-H ) :   0.9735 B( 39-C , 43-H ) :   0.9878 B( 39-C , 44-H ) :   0.9796
B( 39-C , 45-H ) :   0.9858 B( 41-C , 52-H ) :   0.9875 B( 41-C , 53-H ) :   0.9839
B( 41-C , 54-H ) :   0.9745 B( 42-C , 49-H ) :   0.9800 B( 42-C , 50-H ) :   0.9858
B( 42-C , 51-H ) :   0.9874 B( 55-C , 56-C ) :   0.9457 B( 55-C , 57-N ) :   0.9107
B( 55-C , 58-H ) :   0.9965 B( 55-C , 59-C ) :   0.9607 B( 56-C , 60-N ) :   0.9952
B( 56-C , 61-H ) :   0.9837 B( 56-C , 62-C ) :   0.9661 B( 59-C , 63-H ) :   0.9821
B( 59-C , 64-C ) :   0.9445 B( 59-C , 65-C ) :   0.9473 B( 60-N ,134-H ) :   0.9751
B( 60-N ,135-H ) :   1.0062 B( 62-C , 66-H ) :   0.9726 B( 62-C , 67-C ) :   0.9640
B( 62-C , 68-C ) :   0.9523 B( 64-C , 72-H ) :   0.9853 B( 64-C , 73-H ) :   0.9775
B( 64-C , 74-H ) :   0.9838 B( 65-C , 69-H ) :   0.9846 B( 65-C , 70-H ) :   0.9772
B( 65-C , 71-H ) :   0.9803 B( 67-C , 78-H ) :   0.9812 B( 67-C , 79-H ) :   0.9890
B( 67-C , 80-H ) :   0.9775 B( 68-C , 75-H ) :   0.9832 B( 68-C , 76-H ) :   0.9870
B( 68-C , 77-H ) :   0.9797 B( 81-C , 82-C ) :   0.9671 B( 81-C , 83-N ) :   0.9219
B( 81-C , 84-H ) :   0.9800 B( 81-C , 85-C ) :   0.9494 B( 82-C , 86-N ) :   0.9213
B( 82-C , 87-H ) :   0.9782 B( 82-C , 88-C ) :   0.9448 B( 85-C , 89-H ) :   0.9795
B( 85-C , 90-C ) :   0.9476 B( 85-C , 91-C ) :   0.9500 B( 88-C , 92-H ) :   0.9793
B( 88-C , 93-C ) :   0.9480 B( 88-C , 94-C ) :   0.9491 B( 90-C , 98-H ) :   0.9748
B( 90-C , 99-H ) :   0.9880 B( 90-C ,100-H ) :   0.9837 B( 91-C , 95-H ) :   0.9858
B( 91-C , 96-H ) :   0.9876 B( 91-C , 97-H ) :   0.9801 B( 93-C ,104-H ) :   0.9875
B( 93-C ,105-H ) :   0.9835 B( 93-C ,106-H ) :   0.9746 B( 94-C ,101-H ) :   0.9858
B( 94-C ,102-H ) :   0.9876 B( 94-C ,103-H ) :   0.9802 B(107-C ,108-C ) :   0.9617
B(107-C ,109-N ) :   0.9719 B(107-C ,110-H ) :   0.9958 B(107-C ,111-C ) :   0.9360
B(108-C ,112-N ) :   0.9220 B(108-C ,113-H ) :   0.9751 B(108-C ,114-C ) :   0.9483
B(109-N ,136-H ) :   0.9814 B(109-N ,137-H ) :   0.9919 B(111-C ,115-H ) :   0.9849
B(111-C ,116-C ) :   0.9476 B(111-C ,117-C ) :   0.9474 B(114-C ,118-H ) :   0.9792
B(114-C ,119-C ) :   0.9478 B(114-C ,120-C ) :   0.9647 B(116-C ,124-H ) :   0.9713
B(116-C ,125-H ) :   0.9886 B(116-C ,126-H ) :   0.9841 B(117-C ,121-H ) :   0.9864
B(117-C ,122-H ) :   0.9881 B(117-C ,123-H ) :   0.9841 B(119-C ,130-H ) :   0.9744
B(119-C ,131-H ) :   0.9869 B(119-C ,132-H ) :   0.9841 B(120-C ,127-H ) :   0.9810
B(120-C ,128-H ) :   0.9795 B(120-C ,129-H ) :   0.9835

MP2 TOTAL ENERGY:    -2386.390018244 Eh
FINAL SINGLE POINT ENERGY     -2386.390018244192

DIPOLE MOMENT
-------------
                                X             Y             Z
Electronic contribution:     10.94469      -3.06883     -31.70853
Nuclear contribution   :    -11.29841       2.66609      31.07106
                        -----------------------------------------
Total Dipole Moment    :     -0.35372      -0.40273      -0.63747
                        -----------------------------------------
Magnitude (a.u.)       :      0.83287
Magnitude (Debye)      :      2.11700

Rotational constants in cm-1:     0.001173     0.001006     0.000854
Rotational constants in MHz :    35.164741    30.173660    25.598219

                             ****ORCA TERMINATED NORMALLY****
TOTAL RUN TIME: 0 days 3 hours 45 minutes 24 seconds 675 msec
