                         Program Version 4.2.1 -  RELEASE  -
|  1> ! DFT COPT B97-3c TightSCF printbasis  Grid6 NOFINALGRID SlowConv
|  2>
|  3> %base "_o_2_alde1_4_ami2_1_opt_B97-3c"
|  4> %maxcore 3000
|  5> %scf
|  6>    MaxIter 2000
|  7> end
|  8> %pal
|  9>    nprocs 32
| 10> end
| 11>
| 12> * xyzfile 0 1 o_2_alde1_4_ami2_1_opt.xyz
| 13> # * xyzfile 0 1 _o_2_alde1_4_ami2_1_opt_B97-3c.xyz
| 14>
| 15>                          ****END OF INPUT****
 Total Charge           Charge          ....    0
 Multiplicity           Mult            ....    1
 Number of Electrons    NEL             ....  308
Dispersion correction           -0.256801443
FINAL SINGLE POINT ENERGY     -1761.629919521969
Dispersion correction            ... done
Dispersion correction           -0.256803285
FINAL SINGLE POINT ENERGY     -1761.631142152102
Dispersion correction            ... done
Dispersion correction           -0.256819852
FINAL SINGLE POINT ENERGY     -1761.631597757379
Dispersion correction            ... done
FINAL SINGLE POINT ENERGY     -1761.631840785247
FINAL SINGLE POINT ENERGY     -1761.632236715331
FINAL SINGLE POINT ENERGY     -1761.632437700674
FINAL SINGLE POINT ENERGY     -1761.632635528483
FINAL SINGLE POINT ENERGY     -1761.632798833698
FINAL SINGLE POINT ENERGY     -1761.632980947419
FINAL SINGLE POINT ENERGY     -1761.633151270048
FINAL SINGLE POINT ENERGY     -1761.635596542286
FINAL SINGLE POINT ENERGY     -1761.635601821353
FINAL SINGLE POINT ENERGY     -1761.635606823049
FINAL SINGLE POINT ENERGY     -1761.635611963201
FINAL SINGLE POINT ENERGY     -1761.635616701652
FINAL SINGLE POINT ENERGY     -1761.635622121984
FINAL SINGLE POINT ENERGY     -1761.635627772791
Dispersion correction            ... done
Dispersion correction           -0.255145856
FINAL SINGLE POINT ENERGY     -1761.635633255985
Dispersion correction            ... done
Dispersion correction           -0.255146502
FINAL SINGLE POINT ENERGY     -1761.635637798496
Dispersion correction            ... done
                    ***********************HURRAY********************

CARTESIAN COORDINATES (ANGSTROEM)
---------------------------------
  C     -2.982933   -2.707952   -1.407406
  C     -2.269194   -2.713436   -0.126811
  C     -2.887916   -3.774811   -2.303628
  C     -3.564544   -3.739258   -3.515569
  H     -2.323800   -4.663802   -2.051824
  C     -4.303732   -2.609746   -3.849631
  C     -4.368835   -1.517056   -2.986599
  H     -4.810118   -2.570239   -4.807839
  C     -3.720934   -1.585278   -1.756514
  C     -5.070107   -0.291263   -3.375317
  H     -3.769406   -0.747008   -1.079186
  C     -3.448871   -4.874001   -4.497792
  H     -5.704483   -0.348347   -4.274656
  H     -1.315509   -3.264465   -0.099535
  C     -0.404284    1.941715    0.150983
  C     -0.604472    1.094328    1.331534
  C     -1.433480    2.153250   -0.764200
  C     -1.201574    2.876926   -1.926975
  H     -2.406195    1.719590   -0.589185
  C      0.074068    3.388101   -2.179305
  C      1.094754    3.227623   -1.253905
  H      0.288425    3.914700   -3.100602
  C      0.846210    2.507954   -0.090690
  C      2.441197    3.868606   -1.457484
  H      1.647305    2.363976    0.626231
  C     -2.268332    3.022729   -2.923980
  H     -1.921449    3.058367   -3.963610
  C     -1.878451   -0.503115    2.586313
  C     -1.886453   -1.955758    2.048505
  N     -1.630427    0.359626    1.441473
  N     -2.702795   -2.066346    0.872454
  C     -2.090048   -6.038347   -5.921800
  C     -2.431587   -7.028072   -4.779894
  N     -2.315603   -4.696584   -5.397137
  N     -3.222967   -6.179279   -3.859506
  C     -5.577273    1.990987   -3.100399
  C     -4.551464    3.047028   -3.594136
  N     -4.926408    0.776789   -2.708687
  N     -3.491056    3.055299   -2.592609
  C      3.592585    5.848663   -1.513668
  C      3.563595    5.352737   -2.978560
  N      2.492135    5.183311   -0.829790
  N      2.786179    4.095625   -2.871129
  H      0.199867    1.135214    2.077661
  H      1.619143    5.658455   -1.031421
  H      3.199447    3.245687   -0.961841
  H      3.300389    3.311453   -3.247565
  H     -4.095875   -6.620320   -3.603605
  H     -1.520270   -4.408830   -4.836857
  H     -4.352236   -4.882711   -5.125193
  H      3.504866    6.929188   -1.426603
  H      4.530256    5.551331   -1.038683
  H     -1.070670   -6.144613   -6.285169
  H     -2.762263   -6.199379   -6.767225
  H     -2.307323   -2.590969    2.832586
  H     -0.849667   -2.280736    1.877929
  H     -6.340417    1.850956   -3.880477
  H     -6.064604    2.398483   -2.213772
  C      2.809067    6.331823   -3.870985
  H      1.821488    6.537938   -3.460242
  H      2.666992    5.910414   -4.864605
  H      3.344461    7.276955   -3.971512
  C      4.961685    5.107400   -3.523834
  H      5.539321    6.030938   -3.553206
  H      4.926713    4.714750   -4.540434
  H      5.504072    4.395541   -2.901162
  C     -3.232888   -8.219840   -5.282743
  H     -2.660602   -8.806135   -6.001428
  H     -4.150348   -7.893842   -5.773101
  H     -3.502891   -8.886861   -4.463314
  C     -1.170664   -7.498763   -4.063919
  H     -0.556863   -8.131004   -4.706959
  H     -1.427308   -8.066241   -3.170829
  H     -0.572466   -6.645347   -3.747023
  C     -3.275787   -0.135546    3.085026
  H     -3.296097    0.901133    3.417583
  H     -3.566023   -0.770868    3.921770
  H     -3.997065   -0.255799    2.282887
  C     -0.872751   -0.416250    3.728104
  H      0.134644   -0.685834    3.411633
  H     -1.157177   -1.096390    4.529294
  H     -0.841328    0.588728    4.147375
  C     -5.227103    4.415979   -3.563176
  H     -6.136776    4.412700   -4.162975
  H     -4.558607    5.177827   -3.960996
  H     -5.482772    4.688409   -2.541790
  C     -4.121621    2.707427   -5.017380
  H     -4.993421    2.670102   -5.668492
  H     -3.624935    1.739793   -5.063450
  H     -3.446583    3.456351   -5.428375

 Multiplicity           Mult            ....    1
 Number of Electrons    NEL             ....  308
 Basis Dimension        Dim             ....  942

ORBITAL ENERGIES
----------------

  NO   OCC          E(Eh)            E(eV)
   0   2.0000     -13.977725      -380.3532
   1   2.0000     -13.976724      -380.3260
   2   2.0000     -13.969356      -380.1255
   3   2.0000     -13.968749      -380.1090
   4   2.0000     -13.968508      -380.1024
   5   2.0000     -13.967748      -380.0817
   6   2.0000     -13.964811      -380.0018
   7   2.0000     -13.964290      -379.9876
   8   2.0000      -9.944997      -270.6171
   9   2.0000      -9.944118      -270.5932
  10   2.0000      -9.925951      -270.0989
  11   2.0000      -9.925226      -270.0791
  12   2.0000      -9.924990      -270.0727
  13   2.0000      -9.924290      -270.0537
  14   2.0000      -9.922290      -269.9992
  15   2.0000      -9.921067      -269.9660
  16   2.0000      -9.920948      -269.9627
  17   2.0000      -9.917596      -269.8715
  18   2.0000      -9.911683      -269.7106
  19   2.0000      -9.910569      -269.6803
  20   2.0000      -9.909119      -269.6408
  21   2.0000      -9.906214      -269.5618
  22   2.0000      -9.896638      -269.3012
  23   2.0000      -9.895619      -269.2735
  24   2.0000      -9.894825      -269.2519
  25   2.0000      -9.894779      -269.2506
  26   2.0000      -9.894433      -269.2412
  27   2.0000      -9.893596      -269.2184
  28   2.0000      -9.892812      -269.1971
  29   2.0000      -9.892350      -269.1845
  30   2.0000      -9.891025      -269.1485
  31   2.0000      -9.888542      -269.0809
  32   2.0000      -9.885175      -268.9893
  33   2.0000      -9.885109      -268.9875
  34   2.0000      -9.882410      -268.9141
  35   2.0000      -9.881225      -268.8818
  36   2.0000      -9.876891      -268.7639
  37   2.0000      -9.875888      -268.7366
  38   2.0000      -9.875668      -268.7306
  39   2.0000      -9.875596      -268.7286
  40   2.0000      -9.874962      -268.7114
  41   2.0000      -9.863426      -268.3975
  42   2.0000      -0.887339       -24.1457
  43   2.0000      -0.886123       -24.1126
  44   2.0000      -0.854466       -23.2512
  45   2.0000      -0.853044       -23.2125
  46   2.0000      -0.834688       -22.7130
  47   2.0000      -0.831390       -22.6233
  48   2.0000      -0.789250       -21.4766
  49   2.0000      -0.785823       -21.3833
  50   2.0000      -0.783844       -21.3295
  51   2.0000      -0.782285       -21.2870
  52   2.0000      -0.732520       -19.9329
  53   2.0000      -0.731592       -19.9076
  54   2.0000      -0.725453       -19.7406
  55   2.0000      -0.714327       -19.4378
  56   2.0000      -0.700011       -19.0483
  57   2.0000      -0.686011       -18.6673
  58   2.0000      -0.682235       -18.5646
  59   2.0000      -0.677580       -18.4379
  60   2.0000      -0.632017       -17.1980
  61   2.0000      -0.630643       -17.1607
  62   2.0000      -0.629889       -17.1401
  63   2.0000      -0.629084       -17.1183
  64   2.0000      -0.624743       -17.0001
  65   2.0000      -0.620885       -16.8951
  66   2.0000      -0.616297       -16.7703
  67   2.0000      -0.615172       -16.7397
  68   2.0000      -0.586028       -15.9466
  69   2.0000      -0.584729       -15.9113
  70   2.0000      -0.578608       -15.7447
  71   2.0000      -0.570753       -15.5310
  72   2.0000      -0.561569       -15.2811
  73   2.0000      -0.554552       -15.0901
  74   2.0000      -0.524393       -14.2695
  75   2.0000      -0.515972       -14.0403
  76   2.0000      -0.513350       -13.9690
  77   2.0000      -0.511916       -13.9299
  78   2.0000      -0.501523       -13.6471
  79   2.0000      -0.493846       -13.4382
  80   2.0000      -0.480219       -13.0674
  81   2.0000      -0.479194       -13.0395
  82   2.0000      -0.462563       -12.5870
  83   2.0000      -0.456383       -12.4188
  84   2.0000      -0.452789       -12.3210
  85   2.0000      -0.444547       -12.0967
  86   2.0000      -0.443671       -12.0729
  87   2.0000      -0.442392       -12.0381
  88   2.0000      -0.436411       -11.8753
  89   2.0000      -0.433643       -11.8000
  90   2.0000      -0.423984       -11.5372
  91   2.0000      -0.416152       -11.3241
  92   2.0000      -0.413690       -11.2571
  93   2.0000      -0.407367       -11.0850
  94   2.0000      -0.406343       -11.0572
  95   2.0000      -0.403137       -10.9699
  96   2.0000      -0.402453       -10.9513
  97   2.0000      -0.400419       -10.8960
  98   2.0000      -0.397233       -10.8093
  99   2.0000      -0.395828       -10.7710
 100   2.0000      -0.392030       -10.6677
 101   2.0000      -0.388918       -10.5830
 102   2.0000      -0.382886       -10.4189
 103   2.0000      -0.378111       -10.2889
 104   2.0000      -0.376274       -10.2389
 105   2.0000      -0.372923       -10.1478
 106   2.0000      -0.369033       -10.0419
 107   2.0000      -0.365935        -9.9576
 108   2.0000      -0.363433        -9.8895
 109   2.0000      -0.357348        -9.7239
 110   2.0000      -0.353320        -9.6143
 111   2.0000      -0.352936        -9.6039
 112   2.0000      -0.347202        -9.4478
 113   2.0000      -0.345015        -9.3883
 114   2.0000      -0.343790        -9.3550
 115   2.0000      -0.342619        -9.3231
 116   2.0000      -0.341753        -9.2996
 117   2.0000      -0.338498        -9.2110
 118   2.0000      -0.335657        -9.1337
 119   2.0000      -0.329186        -8.9576
 120   2.0000      -0.327695        -8.9170
 121   2.0000      -0.326484        -8.8841
 122   2.0000      -0.325243        -8.8503
 123   2.0000      -0.325067        -8.8455
 124   2.0000      -0.320952        -8.7336
 125   2.0000      -0.319717        -8.6999
 126   2.0000      -0.317480        -8.6391
 127   2.0000      -0.311924        -8.4879
 128   2.0000      -0.311440        -8.4747
 129   2.0000      -0.310445        -8.4476
 130   2.0000      -0.306063        -8.3284
 131   2.0000      -0.302146        -8.2218
 132   2.0000      -0.301104        -8.1935
 133   2.0000      -0.298525        -8.1233
 134   2.0000      -0.297434        -8.0936
 135   2.0000      -0.295394        -8.0381
 136   2.0000      -0.291198        -7.9239
 137   2.0000      -0.289672        -7.8824
 138   2.0000      -0.280264        -7.6264
 139   2.0000      -0.275660        -7.5011
 140   2.0000      -0.262114        -7.1325
 141   2.0000      -0.255981        -6.9656
 142   2.0000      -0.215065        -5.8522
 143   2.0000      -0.213105        -5.7989
 144   2.0000      -0.211170        -5.7462
 145   2.0000      -0.210635        -5.7317
 146   2.0000      -0.206883        -5.6296
 147   2.0000      -0.203885        -5.5480
 148   2.0000      -0.200711        -5.4616
 149   2.0000      -0.199672        -5.4333
 150   2.0000      -0.191482        -5.2105
 151   2.0000      -0.190587        -5.1861
 152   2.0000      -0.185930        -5.0594
 153   2.0000      -0.185093        -5.0366
 154   0.0000      -0.068320        -1.8591
 155   0.0000      -0.064866        -1.7651
 156   0.0000      -0.060426        -1.6443
 157   0.0000      -0.056959        -1.5499
 158   0.0000      -0.005984        -0.1628

MULLIKEN ATOMIC CHARGES
-----------------------
   0 C :    0.277191
   1 C :   -0.374413
   2 C :   -0.150556
   3 C :    0.298467
   4 H :    0.204261
   5 C :   -0.242741
   6 C :    0.268295
   7 H :    0.191027
   8 C :   -0.086460
   9 C :   -0.405231
  10 H :    0.263421
  11 C :   -0.655876
  12 H :    0.094894
  13 H :    0.086915
  14 C :    0.288013
  15 C :   -0.421391
  16 C :   -0.101186
  17 C :    0.253507
  18 H :    0.240904
  19 C :   -0.152457
  20 C :    0.270546
  21 H :    0.206417
  22 C :   -0.245032
  23 C :   -0.625540
  24 H :    0.188961
  25 C :   -0.360358
  26 H :    0.109496
  27 C :   -0.020581
  28 C :   -0.277673
  29 N :   -0.071788
  30 N :   -0.051082
  31 C :   -0.313316
  32 C :    0.026506
  33 N :   -0.256396
  34 N :   -0.268028
  35 C :   -0.267730
  36 C :   -0.071211
  37 N :   -0.030656
  38 N :   -0.042362
  39 C :   -0.294075
  40 C :   -0.003108
  41 N :   -0.264672
  42 N :   -0.272609
  43 H :    0.118236
  44 H :    0.303544
  45 H :    0.157245
  46 H :    0.303937
  47 H :    0.303179
  48 H :    0.302131
  49 H :    0.159371
  50 H :    0.193236
  51 H :    0.159249
  52 H :    0.195178
  53 H :    0.161620
  54 H :    0.168326
  55 H :    0.125412
  56 H :    0.120043
  57 H :    0.175524
  58 C :   -0.439959
  59 H :    0.155708
  60 H :    0.160344
  61 H :    0.155060
  62 C :   -0.541756
  63 H :    0.171102
  64 H :    0.177581
  65 H :    0.172816
  66 C :   -0.551455
  67 H :    0.170967
  68 H :    0.174989
  69 H :    0.176682
  70 C :   -0.439806
  71 H :    0.155207
  72 H :    0.160313
  73 H :    0.155271
  74 C :   -0.488594
  75 H :    0.164555
  76 H :    0.147210
  77 H :    0.204842
  78 C :   -0.516574
  79 H :    0.172752
  80 H :    0.183521
  81 H :    0.187088
  82 C :   -0.452583
  83 H :    0.157619
  84 H :    0.166070
  85 H :    0.184789
  86 C :   -0.570547
  87 H :    0.177400
  88 H :    0.201444
  89 H :    0.179421
Sum of atomic charges:   -0.0000000

LOEWDIN ATOMIC CHARGES
----------------------
   0 C :   -0.078919
   1 C :   -0.036624
   2 C :   -0.135333
   3 C :   -0.077596
   4 H :    0.180386
   5 C :   -0.130105
   6 C :   -0.083071
   7 H :    0.170260
   8 C :   -0.095031
   9 C :   -0.038232
  10 H :    0.197754
  11 C :   -0.029973
  12 H :    0.134149
  13 H :    0.134858
  14 C :   -0.080888
  15 C :   -0.035912
  16 C :   -0.095561
  17 C :   -0.077509
  18 H :    0.196682
  19 C :   -0.137490
  20 C :   -0.079600
  21 H :    0.180124
  22 C :   -0.131491
  23 C :   -0.028964
  24 H :    0.169741
  25 C :   -0.037281
  26 H :    0.143867
  27 C :   -0.103619
  28 C :   -0.191435
  29 N :   -0.156282
  30 N :   -0.172863
  31 C :   -0.199000
  32 C :   -0.107512
  33 N :   -0.348320
  34 N :   -0.353842
  35 C :   -0.193590
  36 C :   -0.101244
  37 N :   -0.178186
  38 N :   -0.152224
  39 C :   -0.199135
  40 C :   -0.107281
  41 N :   -0.349118
  42 N :   -0.354755
  43 H :    0.141307
  44 H :    0.268916
  45 H :    0.142930
  46 H :    0.267445
  47 H :    0.267882
  48 H :    0.267613
  49 H :    0.142378
  50 H :    0.160476
  51 H :    0.153689
  52 H :    0.160302
  53 H :    0.154356
  54 H :    0.162678
  55 H :    0.139277
  56 H :    0.137607
  57 H :    0.164885
  58 C :   -0.417596
  59 H :    0.151682
  60 H :    0.156755
  61 H :    0.151068
  62 C :   -0.420601
  63 H :    0.161524
  64 H :    0.157340
  65 H :    0.153706
  66 C :   -0.421356
  67 H :    0.160866
  68 H :    0.154208
  69 H :    0.156864
  70 C :   -0.417291
  71 H :    0.151040
  72 H :    0.156610
  73 H :    0.151390
  74 C :   -0.410346
  75 H :    0.156759
  76 H :    0.152469
  77 H :    0.174494
  78 C :   -0.428311
  79 H :    0.155293
  80 H :    0.163394
  81 H :    0.161747
  82 C :   -0.405883
  83 H :    0.157192
  84 H :    0.157534
  85 H :    0.164583
  86 C :   -0.430514
  87 H :    0.161409
  88 H :    0.165492
  89 H :    0.156900

  Mayer bond orders larger than 0.100000
B(  0-C ,  1-C ) :   0.9123 B(  0-C ,  2-C ) :   1.1553 B(  0-C ,  3-C ) :   0.1204
B(  0-C ,  6-C ) :   0.1571 B(  0-C ,  8-C ) :   1.3269 B(  0-C , 30-N ) :  -0.2241
B(  1-C , 13-H ) :   0.9206 B(  1-C , 30-N ) :   2.0600 B(  2-C ,  3-C ) :   1.3827
B(  2-C ,  4-H ) :   0.8996 B(  3-C ,  5-C ) :   1.3709 B(  3-C ,  6-C ) :   0.1075
B(  3-C , 11-C ) :   0.6446 B(  3-C , 33-N ) :  -0.1191 B(  5-C ,  6-C ) :   1.2243
B(  5-C ,  7-H ) :   0.8970 B(  6-C ,  8-C ) :   1.3135 B(  6-C ,  9-C ) :   0.9317
B(  6-C , 37-N ) :  -0.2319 B(  8-C , 10-H ) :   0.8855 B(  8-C , 37-N ) :   0.1028
B(  9-C , 12-H ) :   0.9129 B(  9-C , 37-N ) :   2.0022 B( 11-C , 33-N ) :   1.2178
B( 11-C , 34-N ) :   0.9810 B( 11-C , 49-H ) :   0.9627 B( 14-C , 15-C ) :   0.8964
B( 14-C , 16-C ) :   1.3099 B( 14-C , 17-C ) :   0.1711 B( 14-C , 20-C ) :   0.1133
B( 14-C , 22-C ) :   1.1862 B( 14-C , 29-N ) :  -0.2056 B( 15-C , 29-N ) :   2.0354
B( 15-C , 43-H ) :   0.9116 B( 16-C , 17-C ) :   1.3416 B( 16-C , 18-H ) :   0.8933
B( 17-C , 19-C ) :   1.1184 B( 17-C , 20-C ) :   0.1243 B( 17-C , 25-C ) :   0.9344
B( 17-C , 38-N ) :  -0.1742 B( 19-C , 20-C ) :   1.3688 B( 19-C , 21-H ) :   0.9010
B( 20-C , 22-C ) :   1.3718 B( 20-C , 23-C ) :   0.6774 B( 20-C , 41-N ) :  -0.1182
B( 22-C , 24-H ) :   0.8994 B( 23-C , 41-N ) :   1.2209 B( 23-C , 42-N ) :   0.9704
B( 23-C , 45-H ) :   0.9610 B( 25-C , 26-H ) :   0.9010 B( 25-C , 38-N ) :   2.0122
B( 27-C , 28-C ) :   0.8831 B( 27-C , 29-N ) :   0.8916 B( 27-C , 74-C ) :   0.9899
B( 27-C , 78-C ) :   0.9555 B( 28-C , 30-N ) :   1.0455 B( 28-C , 54-H ) :   0.9345
B( 28-C , 55-H ) :   0.9198 B( 31-C , 32-C ) :   0.8828 B( 31-C , 33-N ) :   1.0233
B( 31-C , 52-H ) :   0.9520 B( 31-C , 53-H ) :   0.9353 B( 32-C , 34-N ) :   1.0768
B( 32-C , 66-C ) :   1.0094 B( 32-C , 70-C ) :   0.9609 B( 33-N , 48-H ) :   0.8428
B( 34-N , 47-H ) :   0.8623 B( 34-N , 70-C ) :  -0.1405 B( 35-C , 36-C ) :   0.8808
B( 35-C , 37-N ) :   1.0147 B( 35-C , 38-N ) :  -0.1255 B( 35-C , 56-H ) :   0.9315
B( 35-C , 57-H ) :   0.9323 B( 36-C , 38-N ) :   1.0211 B( 36-C , 82-C ) :   0.9759
B( 36-C , 86-C ) :   0.9481 B( 39-C , 40-C ) :   0.8939 B( 39-C , 41-N ) :   1.0236
B( 39-C , 50-H ) :   0.9515 B( 39-C , 51-H ) :   0.9325 B( 40-C , 42-N ) :   1.0850
B( 40-C , 58-C ) :   0.9661 B( 40-C , 62-C ) :   1.0048 B( 41-N , 44-H ) :   0.8419
B( 42-N , 46-H ) :   0.8624 B( 42-N , 58-C ) :  -0.1436 B( 58-C , 59-H ) :   0.9529
B( 58-C , 60-H ) :   0.9535 B( 58-C , 61-H ) :   0.9527 B( 62-C , 63-H ) :   0.9562
B( 62-C , 64-H ) :   0.9588 B( 62-C , 65-H ) :   0.9516 B( 66-C , 67-H ) :   0.9560
B( 66-C , 68-H ) :   0.9535 B( 66-C , 69-H ) :   0.9577 B( 70-C , 71-H ) :   0.9533
B( 70-C , 72-H ) :   0.9543 B( 70-C , 73-H ) :   0.9539 B( 74-C , 75-H ) :   0.9462
B( 74-C , 76-H ) :   0.9522 B( 74-C , 77-H ) :   0.9563 B( 78-C , 79-H ) :   0.9517
B( 78-C , 80-H ) :   0.9410 B( 78-C , 81-H ) :   0.9608 B( 82-C , 83-H ) :   0.9541
B( 82-C , 84-H ) :   0.9481 B( 82-C , 85-H ) :   0.9536 B( 86-C , 87-H ) :   0.9433
B( 86-C , 88-H ) :   0.9604 B( 86-C , 89-H ) :   0.9551

Dispersion correction           -0.255149529
FINAL SINGLE POINT ENERGY     -1761.635642396627

DIPOLE MOMENT
-------------
                                X             Y             Z
Electronic contribution:    -11.74051      -0.15654       9.74795
Nuclear contribution   :     12.78103      -0.54282     -10.76217
                        -----------------------------------------
Total Dipole Moment    :      1.04052      -0.69937      -1.01422
                        -----------------------------------------
Magnitude (a.u.)       :      1.61259
Magnitude (Debye)      :      4.09887

Rotational constants in cm-1:     0.002873     0.001239     0.001201
Rotational constants in MHz :    86.136622    37.132438    35.993158

                             ****ORCA TERMINATED NORMALLY****
TOTAL RUN TIME: 0 days 1 hours 29 minutes 59 seconds 64 msec
