                         Program Version 4.2.1 -  RELEASE  -
|  1> ! RI-MP2 cc-pVTZ cc-pVTZ/C TIGHTSCF printbasis Grid6 NOFINALGRID SlowConv
|  2>
|  3> %base "_o_2_alde1_3_ami2_1_opt_MP2"
|  4> %maxcore 3000
|  5> %pal
|  6>    nprocs 32
|  7> end
|  8>
|  9> * xyzfile 0 1 _o_2_alde1_3_ami2_1_opt_B97-3c.xyz
| 10>
| 11>                          ****END OF INPUT****

CARTESIAN COORDINATES (ANGSTROEM)
---------------------------------
  C     -4.980674   -2.782380   -0.581604
  C     -4.231541   -2.623888    0.671954
  C     -5.818937   -3.880385   -0.765485
  C     -6.521513   -4.045576   -1.955968
  H     -5.925310   -4.619293    0.022135
  C     -6.385036   -3.104972   -2.976394
  C     -5.554002   -2.004006   -2.808043
  H     -6.936283   -3.255562   -3.896243
  C     -4.853628   -1.854460   -1.610473
  C     -5.400504   -1.020819   -3.889542
  H     -4.194367   -1.009184   -1.484434
  C     -7.394497   -5.214488   -2.121002
  H     -5.925626   -1.264929   -4.821358
  H     -4.351240   -3.441697    1.393862
  C      0.214852    1.034916   -0.565547
  C     -0.063123    0.166604    0.580421
  C     -0.575746    0.953817   -1.706551
  C     -0.349620    1.801174   -2.785273
  H     -1.382006    0.237673   -1.748178
  C      0.686912    2.734558   -2.719165
  C      1.491311    2.821232   -1.590533
  H      0.896580    3.388829   -3.555803
  C      1.244803    1.975651   -0.516097
  C      2.573228    3.862814   -1.491083
  H      1.861575    2.051804    0.372438
  C     -1.220723    1.738847   -3.960679
  H     -1.091629    2.539163   -4.707578
  C     -1.220780   -1.550866    1.667146
  C     -2.714022   -1.410487    2.073307
  N     -0.904671   -0.778346    0.504986
  H     -1.045868   -2.602877    1.431067
  N     -3.504257   -1.607006    0.868322
  C     -2.986722    0.022694    2.525757
  O     -8.053831   -5.465416   -3.110278
  C     -4.467252    1.002997   -4.766382
  C     -2.986234    0.853272   -5.210232
  N     -4.696192    0.017338   -3.721416
  C     -5.346726    0.882732   -6.006374
  N     -2.090725    0.826458   -4.094149
  H     -2.765883    1.659027   -5.927773
  C      3.063898    6.090251   -1.333766
  C      3.557548    5.661216   -2.736175
  N      2.070038    5.106752   -0.921338
  H      2.648213    7.094978   -1.318385
  N      3.142323    4.240299   -2.793460
  H      0.482570    0.392534    1.511082
  H      1.177863    5.312290   -1.358230
  H      3.350708    3.492789   -0.807227
  H      3.914085    3.637484   -3.044125
  H     -7.417557   -5.892268   -1.240621
  H     -0.607443   -1.292497    2.544643
  C     -2.985712   -2.380078    3.218318
  C     -4.671538    2.367226   -4.111251
  H     -2.900396   -0.100377   -5.735889
  H      3.894407    6.062357   -0.625457
  C      2.836192    6.435140   -3.833039
  H     -5.126213    1.690956   -6.701019
  H     -6.400905    0.954810   -5.741929
  H     -5.191558   -0.056140   -6.536665
  H     -2.755159   -3.410723    2.951135
  H     -4.029041   -2.332658    3.527967
  H     -2.375667   -2.121707    4.081700
  H      3.075433    6.022091   -4.811654
  H      3.114164    7.489943   -3.827310
  H      1.757021    6.361974   -3.702560
  C      5.063413    5.817992   -2.875104
  H      5.358575    6.862876   -2.782563
  H      5.409451    5.467389   -3.847770
  H      5.585435    5.252695   -2.102838
  H     -4.028485    0.132425    2.822935
  H     -2.792744    0.717826    1.713833
  H     -2.358575    0.287117    3.376072
  H     -4.422841    3.171051   -4.803474
  H     -4.048783    2.458056   -3.225902
  H     -5.710102    2.487072   -3.807096

 Total Charge           Charge          ....    0
 Multiplicity           Mult            ....    1
 Number of Electrons    NEL             ....  268
 Basis Dimension        Dim             .... 1642

ORBITAL ENERGIES
----------------

  NO   OCC          E(Eh)            E(eV)
   0   2.0000     -20.548415      -559.1508
   1   2.0000     -15.548119      -423.0858
   2   2.0000     -15.546270      -423.0355
   3   2.0000     -15.546191      -423.0334
   4   2.0000     -15.545660      -423.0189
   5   2.0000     -15.544547      -422.9886
   6   2.0000     -15.539661      -422.8557
   7   2.0000     -11.329981      -308.3045
   8   2.0000     -11.286865      -307.1312
   9   2.0000     -11.276562      -306.8509
  10   2.0000     -11.273905      -306.7785
  11   2.0000     -11.273824      -306.7763
  12   2.0000     -11.272330      -306.7357
  13   2.0000     -11.264622      -306.5259
  14   2.0000     -11.262694      -306.4735
  15   2.0000     -11.262667      -306.4728
  16   2.0000     -11.258257      -306.3527
  17   2.0000     -11.251668      -306.1734
  18   2.0000     -11.248856      -306.0969
  19   2.0000     -11.247749      -306.0668
  20   2.0000     -11.247204      -306.0520
  21   2.0000     -11.244971      -305.9912
  22   2.0000     -11.244883      -305.9888
  23   2.0000     -11.243918      -305.9626
  24   2.0000     -11.241709      -305.9024
  25   2.0000     -11.238315      -305.8101
  26   2.0000     -11.235064      -305.7216
  27   2.0000     -11.234933      -305.7181
  28   2.0000     -11.234233      -305.6990
  29   2.0000     -11.233225      -305.6716
  30   2.0000     -11.224711      -305.4399
  31   2.0000     -11.220759      -305.3324
  32   2.0000     -11.216782      -305.2242
  33   2.0000     -11.214279      -305.1560
  34   2.0000     -11.212168      -305.0986
  35   2.0000     -11.204703      -304.8955
  36   2.0000     -11.203324      -304.8579
  37   2.0000      -1.383015       -37.6338
  38   2.0000      -1.278204       -34.7817
  39   2.0000      -1.248881       -33.9838
  40   2.0000      -1.246047       -33.9067
  41   2.0000      -1.225635       -33.3512
  42   2.0000      -1.220151       -33.2020
  43   2.0000      -1.171947       -31.8903
  44   2.0000      -1.157301       -31.4918
  45   2.0000      -1.147061       -31.2131
  46   2.0000      -1.087694       -29.5977
  47   2.0000      -1.079851       -29.3842
  48   2.0000      -1.068825       -29.0842
  49   2.0000      -1.045783       -28.4572
  50   2.0000      -1.037344       -28.2276
  51   2.0000      -1.027481       -27.9592
  52   2.0000      -1.020281       -27.7633
  53   2.0000      -0.944299       -25.6957
  54   2.0000      -0.943518       -25.6744
  55   2.0000      -0.941451       -25.6182
  56   2.0000      -0.940175       -25.5835
  57   2.0000      -0.938938       -25.5498
  58   2.0000      -0.921403       -25.0726
  59   2.0000      -0.900517       -24.5043
  60   2.0000      -0.887317       -24.1451
  61   2.0000      -0.873456       -23.7679
  62   2.0000      -0.867085       -23.5946
  63   2.0000      -0.848745       -23.0955
  64   2.0000      -0.834601       -22.7106
  65   2.0000      -0.794315       -21.6144
  66   2.0000      -0.782632       -21.2965
  67   2.0000      -0.767842       -20.8940
  68   2.0000      -0.759462       -20.6660
  69   2.0000      -0.755740       -20.5647
  70   2.0000      -0.742251       -20.1977
  71   2.0000      -0.723156       -19.6781
  72   2.0000      -0.700232       -19.0543
  73   2.0000      -0.696404       -18.9501
  74   2.0000      -0.692238       -18.8367
  75   2.0000      -0.677272       -18.4295
  76   2.0000      -0.670564       -18.2470
  77   2.0000      -0.664565       -18.0837
  78   2.0000      -0.660379       -17.9698
  79   2.0000      -0.652924       -17.7670
  80   2.0000      -0.648921       -17.6580
  81   2.0000      -0.640441       -17.4273
  82   2.0000      -0.628824       -17.1112
  83   2.0000      -0.626444       -17.0464
  84   2.0000      -0.616587       -16.7782
  85   2.0000      -0.614277       -16.7153
  86   2.0000      -0.611706       -16.6454
  87   2.0000      -0.608295       -16.5526
  88   2.0000      -0.605896       -16.4873
  89   2.0000      -0.600112       -16.3299
  90   2.0000      -0.598699       -16.2914
  91   2.0000      -0.596129       -16.2215
  92   2.0000      -0.583102       -15.8670
  93   2.0000      -0.580607       -15.7991
  94   2.0000      -0.569646       -15.5008
  95   2.0000      -0.564071       -15.3492
  96   2.0000      -0.556681       -15.1481
  97   2.0000      -0.552483       -15.0338
  98   2.0000      -0.546910       -14.8822
  99   2.0000      -0.545052       -14.8316
 100   2.0000      -0.543480       -14.7888
 101   2.0000      -0.534306       -14.5392
 102   2.0000      -0.532493       -14.4899
 103   2.0000      -0.526706       -14.3324
 104   2.0000      -0.525178       -14.2908
 105   2.0000      -0.523951       -14.2574
 106   2.0000      -0.516270       -14.0484
 107   2.0000      -0.515056       -14.0154
 108   2.0000      -0.512552       -13.9473
 109   2.0000      -0.510938       -13.9033
 110   2.0000      -0.509163       -13.8550
 111   2.0000      -0.506265       -13.7762
 112   2.0000      -0.502455       -13.6725
 113   2.0000      -0.498034       -13.5522
 114   2.0000      -0.491469       -13.3735
 115   2.0000      -0.481111       -13.0917
 116   2.0000      -0.476694       -12.9715
 117   2.0000      -0.470114       -12.7925
 118   2.0000      -0.467886       -12.7318
 119   2.0000      -0.460901       -12.5418
 120   2.0000      -0.430623       -11.7178
 121   2.0000      -0.425508       -11.5787
 122   2.0000      -0.424622       -11.5545
 123   2.0000      -0.410668       -11.1748
 124   2.0000      -0.409216       -11.1353
 125   2.0000      -0.400657       -10.9024
 126   2.0000      -0.389689       -10.6040
 127   2.0000      -0.381732       -10.3875
 128   2.0000      -0.380144       -10.3442
 129   2.0000      -0.373466       -10.1625
 130   2.0000      -0.331640        -9.0244
 131   2.0000      -0.327367        -8.9081
 132   2.0000      -0.316707        -8.6180
 133   2.0000      -0.314320        -8.5531
 134   0.0000       0.064091         1.7440
 135   0.0000       0.084988         2.3127
 136   0.0000       0.089661         2.4398
 137   0.0000       0.094475         2.5708
 138   0.0000       0.127609         3.4724

MULLIKEN ATOMIC CHARGES
-----------------------
   0 C :    0.140984
   1 C :   -0.119144
   2 C :   -0.225840
   3 C :    0.075792
   4 H :    0.142300
   5 C :   -0.206227
   6 C :    0.139865
   7 H :    0.170069
   8 C :   -0.121426
   9 C :   -0.116159
  10 H :    0.208177
  11 C :    0.171051
  12 H :    0.104764
  13 H :    0.097091
  14 C :    0.170511
  15 C :   -0.122587
  16 C :   -0.174076
  17 C :    0.153294
  18 H :    0.211238
  19 C :   -0.237051
  20 C :    0.082272
  21 H :    0.168905
  22 C :   -0.249907
  23 C :    0.065414
  24 H :    0.136600
  25 C :   -0.117655
  26 H :    0.086468
  27 C :   -0.040104
  28 C :    0.173440
  29 N :   -0.215481
  30 H :    0.105514
  31 N :   -0.243711
  32 C :   -0.311198
  33 O :   -0.368996
  34 C :    0.174728
  35 C :   -0.041035
  36 N :   -0.247168
  37 C :   -0.364911
  38 N :   -0.218223
  39 H :    0.065074
  40 C :   -0.101357
  41 C :    0.103402
  42 N :   -0.256029
  43 H :    0.111741
  44 N :   -0.297001
  45 H :    0.087618
  46 H :    0.104648
  47 H :    0.090324
  48 H :    0.108607
  49 H :    0.083415
  50 H :    0.064549
  51 C :   -0.365474
  52 C :   -0.312645
  53 H :    0.106450
  54 H :    0.093473
  55 C :   -0.290862
  56 H :    0.115138
  57 H :    0.113085
  58 H :    0.104464
  59 H :    0.102885
  60 H :    0.111370
  61 H :    0.116437
  62 H :    0.099413
  63 H :    0.096820
  64 H :    0.090553
  65 C :   -0.316573
  66 H :    0.101685
  67 H :    0.104853
  68 H :    0.099140
  69 H :    0.105151
  70 H :    0.123151
  71 H :    0.086196
  72 H :    0.085211
  73 H :    0.121971
  74 H :    0.105542
Sum of atomic charges:   -0.0000000

LOEWDIN ATOMIC CHARGES
----------------------
   0 C :   -0.074839
   1 C :   -0.079190
   2 C :    0.072674
   3 C :   -0.100359
   4 H :   -0.020840
   5 C :    0.094621
   6 C :   -0.070932
   7 H :   -0.013639
   8 C :    0.135027
   9 C :   -0.076050
  10 H :   -0.010899
  11 C :   -0.153157
  12 H :   -0.035833
  13 H :   -0.038086
  14 C :   -0.076795
  15 C :   -0.074364
  16 C :    0.106592
  17 C :   -0.077178
  18 H :   -0.015115
  19 C :    0.061552
  20 C :   -0.054438
  21 H :   -0.027379
  22 C :    0.063987
  23 C :   -0.155231
  24 H :   -0.021854
  25 C :   -0.074750
  26 H :   -0.039218
  27 C :   -0.035219
  28 C :   -0.204770
  29 N :    0.239432
  30 H :   -0.027461
  31 N :    0.258274
  32 C :    0.114851
  33 O :    0.133188
  34 C :   -0.204772
  35 C :   -0.035256
  36 N :    0.257283
  37 C :    0.112206
  38 N :    0.238939
  39 H :   -0.036107
  40 C :    0.003190
  41 C :   -0.178490
  42 N :    0.309542
  43 H :   -0.028572
  44 N :    0.329584
  45 H :   -0.039375
  46 H :   -0.111226
  47 H :   -0.030582
  48 H :   -0.118029
  49 H :   -0.036638
  50 H :   -0.036013
  51 C :    0.111508
  52 C :    0.114328
  53 H :   -0.027134
  54 H :   -0.029020
  55 C :    0.106419
  56 H :   -0.023149
  57 H :   -0.026297
  58 H :   -0.030857
  59 H :   -0.031426
  60 H :   -0.026888
  61 H :   -0.022809
  62 H :   -0.028872
  63 H :   -0.030662
  64 H :   -0.031766
  65 C :    0.110067
  66 H :   -0.023753
  67 H :   -0.027365
  68 H :   -0.029759
  69 H :   -0.028245
  70 H :   -0.025628
  71 H :   -0.031118
  72 H :   -0.031588
  73 H :   -0.026198
  74 H :   -0.028077

  Mayer bond orders larger than 0.100000
B(  0-C ,  1-C ) :   1.0097 B(  0-C ,  2-C ) :   1.3416 B(  0-C ,  8-C ) :   1.3472
B(  1-C , 13-H ) :   0.9868 B(  1-C , 31-N ) :   1.9957 B(  2-C ,  3-C ) :   1.3555
B(  2-C ,  4-H ) :   0.9747 B(  3-C ,  5-C ) :   1.3183 B(  3-C , 11-C ) :   0.9310
B(  5-C ,  6-C ) :   1.3564 B(  5-C ,  7-H ) :   0.9644 B(  6-C ,  8-C ) :   1.3115
B(  6-C ,  9-C ) :   1.0162 B(  8-C , 10-H ) :   0.9361 B(  9-C , 12-H ) :   0.9840
B(  9-C , 36-N ) :   1.9945 B( 11-C , 33-O ) :   2.0841 B( 11-C , 49-H ) :   1.0232
B( 14-C , 15-C ) :   0.9947 B( 14-C , 16-C ) :   1.3350 B( 14-C , 22-C ) :   1.3442
B( 15-C , 29-N ) :   1.9908 B( 15-C , 45-H ) :   0.9878 B( 16-C , 17-C ) :   1.3373
B( 16-C , 18-H ) :   0.9335 B( 17-C , 19-C ) :   1.3462 B( 17-C , 25-C ) :   1.0037
B( 19-C , 20-C ) :   1.3615 B( 19-C , 21-H ) :   0.9513 B( 20-C , 22-C ) :   1.4084
B( 20-C , 23-C ) :   1.0203 B( 22-C , 24-H ) :   0.9756 B( 23-C , 42-N ) :   1.0152
B( 23-C , 44-N ) :   1.0105 B( 23-C , 47-H ) :   0.9925 B( 25-C , 26-H ) :   0.9875
B( 25-C , 38-N ) :   1.9890 B( 27-C , 28-C ) :   0.9416 B( 27-C , 29-N ) :   0.9984
B( 27-C , 30-H ) :   0.9787 B( 27-C , 50-H ) :   0.9815 B( 28-C , 31-N ) :   0.9282
B( 28-C , 32-C ) :   0.9364 B( 28-C , 51-C ) :   0.9519 B( 32-C , 69-H ) :   0.9816
B( 32-C , 70-H ) :   0.9812 B( 32-C , 71-H ) :   0.9829 B( 34-C , 35-C ) :   0.9419
B( 34-C , 36-N ) :   0.9275 B( 34-C , 37-C ) :   0.9529 B( 34-C , 52-C ) :   0.9362
B( 35-C , 38-N ) :   0.9971 B( 35-C , 39-H ) :   0.9814 B( 35-C , 53-H ) :   0.9785
B( 37-C , 56-H ) :   0.9806 B( 37-C , 57-H ) :   0.9839 B( 37-C , 58-H ) :   0.9822
B( 40-C , 41-C ) :   0.9362 B( 40-C , 42-N ) :   0.9998 B( 40-C , 43-H ) :   0.9921
B( 40-C , 54-H ) :   0.9933 B( 41-C , 44-N ) :   0.9806 B( 41-C , 55-C ) :   0.9543
B( 41-C , 65-C ) :   0.9564 B( 42-N , 46-H ) :   0.9979 B( 44-N , 48-H ) :   0.9910
B( 51-C , 59-H ) :   0.9825 B( 51-C , 60-H ) :   0.9842 B( 51-C , 61-H ) :   0.9807
B( 52-C , 72-H ) :   0.9833 B( 52-C , 73-H ) :   0.9815 B( 52-C , 74-H ) :   0.9820
B( 55-C , 62-H ) :   0.9818 B( 55-C , 63-H ) :   0.9831 B( 55-C , 64-H ) :   0.9821
B( 65-C , 66-H ) :   0.9798 B( 65-C , 67-H ) :   0.9807 B( 65-C , 68-H ) :   0.9826

MP2 TOTAL ENERGY:    -1566.525071522 Eh
FINAL SINGLE POINT ENERGY     -1566.525071521706

DIPOLE MOMENT
-------------
                                X             Y             Z
Electronic contribution:    -20.58866     -31.43495      -0.35263
Nuclear contribution   :     22.26852      32.66954       0.99488
                        -----------------------------------------
Total Dipole Moment    :      1.67986       1.23459       0.64225
                        -----------------------------------------
Magnitude (a.u.)       :      2.18143
Magnitude (Debye)      :      5.54475

Rotational constants in cm-1:     0.005223     0.001546     0.001248
Rotational constants in MHz :   156.595110    46.355984    37.400216

                             ****ORCA TERMINATED NORMALLY****
TOTAL RUN TIME: 0 days 0 hours 54 minutes 43 seconds 609 msec
