                         Program Version 4.2.1 -  RELEASE  -
|  1> ! DFT COPT B97-3c TightSCF printbasis  Grid6 NOFINALGRID SlowConv
|  2>
|  3> %base "_o_2_alde1_3_ami4_2_opt_B97-3c"
|  4> %maxcore 3000
|  5> %scf
|  6>    MaxIter 2000
|  7> end
|  8> %pal
|  9>    nprocs 32
| 10> end
| 11>
| 12> * xyzfile 0 1 o_2_alde1_3_ami4_2_opt.xyz
| 13> # * xyzfile 0 1 _o_2_alde1_3_ami4_2_opt_B97-3c.xyz
| 14>
| 15>                          ****END OF INPUT****
 Total Charge           Charge          ....    0
 Multiplicity           Mult            ....    1
 Number of Electrons    NEL             ....  220
Dispersion correction           -0.167190558
FINAL SINGLE POINT ENERGY     -1333.232668517099
Dispersion correction            ... done
Dispersion correction           -0.167135310
FINAL SINGLE POINT ENERGY     -1333.233683647504
Dispersion correction            ... done
Dispersion correction           -0.167104774
FINAL SINGLE POINT ENERGY     -1333.234082018326
Dispersion correction            ... done
FINAL SINGLE POINT ENERGY     -1333.234442120938
FINAL SINGLE POINT ENERGY     -1333.234698152242
FINAL SINGLE POINT ENERGY     -1333.234932560347
FINAL SINGLE POINT ENERGY     -1333.235090684012
FINAL SINGLE POINT ENERGY     -1333.235230340976
FINAL SINGLE POINT ENERGY     -1333.235380380129
FINAL SINGLE POINT ENERGY     -1333.235545250464
FINAL SINGLE POINT ENERGY     -1333.237077490828
FINAL SINGLE POINT ENERGY     -1333.237082186835
FINAL SINGLE POINT ENERGY     -1333.237086263254
FINAL SINGLE POINT ENERGY     -1333.237090027357
FINAL SINGLE POINT ENERGY     -1333.237093507175
FINAL SINGLE POINT ENERGY     -1333.237096737627
FINAL SINGLE POINT ENERGY     -1333.237099641326
Dispersion correction            ... done
Dispersion correction           -0.164424990
FINAL SINGLE POINT ENERGY     -1333.237102603011
Dispersion correction            ... done
Dispersion correction           -0.164415343
FINAL SINGLE POINT ENERGY     -1333.237105595605
Dispersion correction            ... done
                    ***********************HURRAY********************

CARTESIAN COORDINATES (ANGSTROEM)
---------------------------------
  C     -3.479346   -1.926218   -0.847122
  C     -3.728284   -1.525173    0.535511
  C     -2.564388   -2.928204   -1.180726
  C     -2.261466   -3.183012   -2.510216
  H     -2.082670   -3.483797   -0.386310
  C     -2.845572   -2.413878   -3.521354
  C     -3.763820   -1.423335   -3.207074
  H     -2.558476   -2.603251   -4.547668
  C     -4.090444   -1.206375   -1.864506
  C     -4.289280   -0.544055   -4.252927
  H     -4.797140   -0.421703   -1.630466
  C     -1.293971   -4.242027   -2.839407
  H     -3.764137   -0.593969   -5.216895
  H     -4.536191   -0.793039    0.666499
  C     -1.321041    1.660086   -0.188690
  C     -1.274503    0.942468    1.084078
  C     -2.543268    1.961998   -0.795878
  C     -2.589389    2.489515   -2.077785
  H     -3.456242    1.723531   -0.267753
  C     -1.393587    2.777782   -2.742389
  C     -0.170708    2.533086   -2.132995
  H     -1.440188    3.183240   -3.744745
  C     -0.143740    1.947151   -0.862537
  C      1.065370    2.870007   -2.836535
  H      0.816372    1.714832   -0.421455
  C     -3.890784    2.610443   -2.727094
  H     -4.752059    2.445377   -2.066460
  C     -2.191854   -0.131527    2.936618
  C     -3.240103   -1.244330    2.772808
  N     -2.295381    0.769811    1.817983
  H     -1.193680   -0.575478    3.038191
  N     -3.019136   -1.916863    1.514106
  H     -4.237377   -0.792842    2.840425
  O     -0.941470   -4.538480   -3.962939
  C     -5.540938    1.242344   -5.072036
  C     -5.385148    2.652904   -4.481466
  N     -5.238031    0.273515   -4.049350
  H     -4.903626    1.140971   -5.959075
  N     -4.042301    2.805276   -3.973675
  H     -6.146883    2.790725   -3.704571
  C      3.369369    3.151158   -3.072079
  C      4.151393    4.234131   -2.320480
  N      2.214160    2.750755   -2.309939
  H      4.016089    2.276680   -3.188986
  N      4.649491    3.868525   -1.005390
  H      3.508719    5.109830   -2.212322
  H     -0.300117    0.503340    1.339208
  H      0.937861    3.245041   -3.862404
  H      3.878010    3.508540   -0.456832
  H     -0.885520   -4.779084   -1.958641
  H     -2.423893    0.406960    3.857619
  H     -3.122606   -1.952397    3.592711
  H     -6.581801    1.126335   -5.379367
  H     -5.564168    3.379374   -5.273859
  H      3.108007    3.513396   -4.077940
  H      4.993209    4.543806   -2.941936
  H      5.310200    3.104957   -1.090629

 Multiplicity           Mult            ....    1
 Number of Electrons    NEL             ....  220
 Basis Dimension        Dim             ....  672

ORBITAL ENERGIES
----------------

  NO   OCC          E(Eh)            E(eV)
   0   2.0000     -18.744119      -510.0534
   1   2.0000     -13.992008      -380.7419
   2   2.0000     -13.989142      -380.6639
   3   2.0000     -13.988523      -380.6471
   4   2.0000     -13.988365      -380.6427
   5   2.0000     -13.985656      -380.5691
   6   2.0000     -13.962457      -379.9378
   7   2.0000      -9.980737      -271.5897
   8   2.0000      -9.945396      -270.6280
   9   2.0000      -9.942531      -270.5500
  10   2.0000      -9.941519      -270.5225
  11   2.0000      -9.940747      -270.5015
  12   2.0000      -9.938569      -270.4422
  13   2.0000      -9.928414      -270.1659
  14   2.0000      -9.927920      -270.1524
  15   2.0000      -9.925561      -270.0883
  16   2.0000      -9.924833      -270.0684
  17   2.0000      -9.923809      -270.0406
  18   2.0000      -9.923043      -270.0197
  19   2.0000      -9.921965      -269.9904
  20   2.0000      -9.920936      -269.9624
  21   2.0000      -9.920717      -269.9564
  22   2.0000      -9.920012      -269.9373
  23   2.0000      -9.918017      -269.8830
  24   2.0000      -9.917553      -269.8703
  25   2.0000      -9.917519      -269.8694
  26   2.0000      -9.916915      -269.8530
  27   2.0000      -9.913147      -269.7504
  28   2.0000      -9.913099      -269.7491
  29   2.0000      -9.912913      -269.7441
  30   2.0000      -9.912804      -269.7411
  31   2.0000      -0.967565       -26.3288
  32   2.0000      -0.875748       -23.8303
  33   2.0000      -0.874236       -23.7892
  34   2.0000      -0.863085       -23.4857
  35   2.0000      -0.853681       -23.2298
  36   2.0000      -0.850150       -23.1338
  37   2.0000      -0.814890       -22.1743
  38   2.0000      -0.810437       -22.0531
  39   2.0000      -0.802808       -21.8455
  40   2.0000      -0.738695       -20.1009
  41   2.0000      -0.731602       -19.9079
  42   2.0000      -0.723825       -19.6963
  43   2.0000      -0.721518       -19.6335
  44   2.0000      -0.692187       -18.8354
  45   2.0000      -0.680456       -18.5161
  46   2.0000      -0.666556       -18.1379
  47   2.0000      -0.622723       -16.9452
  48   2.0000      -0.620886       -16.8952
  49   2.0000      -0.607957       -16.5433
  50   2.0000      -0.598961       -16.2986
  51   2.0000      -0.596376       -16.2282
  52   2.0000      -0.576027       -15.6745
  53   2.0000      -0.560701       -15.2575
  54   2.0000      -0.553730       -15.0678
  55   2.0000      -0.541387       -14.7319
  56   2.0000      -0.507039       -13.7972
  57   2.0000      -0.504283       -13.7222
  58   2.0000      -0.498432       -13.5630
  59   2.0000      -0.495862       -13.4931
  60   2.0000      -0.480904       -13.0861
  61   2.0000      -0.476608       -12.9692
  62   2.0000      -0.466702       -12.6996
  63   2.0000      -0.461887       -12.5686
  64   2.0000      -0.452330       -12.3085
  65   2.0000      -0.447144       -12.1674
  66   2.0000      -0.446095       -12.1389
  67   2.0000      -0.442422       -12.0389
  68   2.0000      -0.432838       -11.7781
  69   2.0000      -0.427781       -11.6405
  70   2.0000      -0.415779       -11.3139
  71   2.0000      -0.414240       -11.2720
  72   2.0000      -0.412589       -11.2271
  73   2.0000      -0.410976       -11.1832
  74   2.0000      -0.408357       -11.1120
  75   2.0000      -0.399304       -10.8656
  76   2.0000      -0.395444       -10.7606
  77   2.0000      -0.394514       -10.7353
  78   2.0000      -0.388219       -10.5640
  79   2.0000      -0.382028       -10.3955
  80   2.0000      -0.380256       -10.3473
  81   2.0000      -0.369537       -10.0556
  82   2.0000      -0.363683        -9.8963
  83   2.0000      -0.359831        -9.7915
  84   2.0000      -0.355724        -9.6797
  85   2.0000      -0.351664        -9.5693
  86   2.0000      -0.350424        -9.5355
  87   2.0000      -0.347528        -9.4567
  88   2.0000      -0.342159        -9.3106
  89   2.0000      -0.332386        -9.0447
  90   2.0000      -0.326764        -8.8917
  91   2.0000      -0.324901        -8.8410
  92   2.0000      -0.320019        -8.7082
  93   2.0000      -0.312126        -8.4934
  94   2.0000      -0.310161        -8.4399
  95   2.0000      -0.308194        -8.3864
  96   2.0000      -0.305868        -8.3231
  97   2.0000      -0.285070        -7.7571
  98   2.0000      -0.267834        -7.2881
  99   2.0000      -0.243034        -6.6133
 100   2.0000      -0.235553        -6.4097
 101   2.0000      -0.231026        -6.2865
 102   2.0000      -0.229480        -6.2445
 103   2.0000      -0.229130        -6.2349
 104   2.0000      -0.227076        -6.1790
 105   2.0000      -0.226029        -6.1506
 106   2.0000      -0.224166        -6.0999
 107   2.0000      -0.221368        -6.0237
 108   2.0000      -0.219418        -5.9707
 109   2.0000      -0.195221        -5.3122
 110   0.0000      -0.105910        -2.8820
 111   0.0000      -0.098799        -2.6885
 112   0.0000      -0.091759        -2.4969
 113   0.0000      -0.089636        -2.4391
 114   0.0000      -0.070671        -1.9231

MULLIKEN ATOMIC CHARGES
-----------------------
   0 C :    0.255538
   1 C :   -0.347974
   2 C :   -0.163659
   3 C :    0.204975
   4 H :    0.220263
   5 C :   -0.189418
   6 C :    0.228563
   7 H :    0.226932
   8 C :   -0.130903
   9 C :   -0.350946
  10 H :    0.216364
  11 C :   -0.138482
  12 H :    0.117519
  13 H :    0.113535
  14 C :    0.235241
  15 C :   -0.366574
  16 C :   -0.138734
  17 C :    0.278716
  18 H :    0.210936
  19 C :   -0.209174
  20 C :    0.262099
  21 H :    0.212284
  22 C :   -0.220609
  23 C :   -0.381655
  24 H :    0.215055
  25 C :   -0.357559
  26 H :    0.111025
  27 C :   -0.260920
  28 C :   -0.275665
  29 N :   -0.095013
  30 H :    0.138959
  31 N :   -0.089433
  32 H :    0.149565
  33 O :   -0.310307
  34 C :   -0.262188
  35 C :   -0.275597
  36 N :   -0.096030
  37 H :    0.140172
  38 N :   -0.088266
  39 H :    0.148680
  40 C :   -0.290693
  41 C :   -0.237546
  42 N :   -0.068278
  43 H :    0.172330
  44 N :   -0.631836
  45 H :    0.162729
  46 H :    0.113810
  47 H :    0.109189
  48 H :    0.308585
  49 H :    0.111682
  50 H :    0.182202
  51 H :    0.181187
  52 H :    0.182162
  53 H :    0.180803
  54 H :    0.123028
  55 H :    0.169735
  56 H :    0.293596
Sum of atomic charges:   -0.0000000

LOEWDIN ATOMIC CHARGES
----------------------
   0 C :   -0.077818
   1 C :   -0.039367
   2 C :   -0.092481
   3 C :   -0.067568
   4 H :    0.186627
   5 C :   -0.082854
   6 C :   -0.076481
   7 H :    0.192785
   8 C :   -0.093259
   9 C :   -0.030219
  10 H :    0.183482
  11 C :    0.212182
  12 H :    0.144311
  13 H :    0.144214
  14 C :   -0.079290
  15 C :   -0.029842
  16 C :   -0.106456
  17 C :   -0.078842
  18 H :    0.181089
  19 C :   -0.105121
  20 C :   -0.079537
  21 H :    0.183635
  22 C :   -0.105263
  23 C :   -0.038714
  24 H :    0.182807
  25 C :   -0.039113
  26 H :    0.142740
  27 C :   -0.204297
  28 C :   -0.210177
  29 N :   -0.197054
  30 H :    0.141714
  31 N :   -0.196030
  32 H :    0.144503
  33 O :   -0.465180
  34 C :   -0.204728
  35 C :   -0.210069
  36 N :   -0.193135
  37 H :    0.142256
  38 N :   -0.199592
  39 H :    0.143755
  40 C :   -0.229306
  41 C :   -0.225215
  42 N :   -0.201458
  43 H :    0.152094
  44 N :   -0.538178
  45 H :    0.150397
  46 H :    0.142684
  47 H :    0.140860
  48 H :    0.257295
  49 H :    0.153836
  50 H :    0.160960
  51 H :    0.156142
  52 H :    0.161203
  53 H :    0.155914
  54 H :    0.135501
  55 H :    0.151050
  56 H :    0.252608

  Mayer bond orders larger than 0.100000
B(  0-C ,  1-C ) :   0.9671 B(  0-C ,  2-C ) :   1.4092 B(  0-C ,  6-C ) :   0.1240
B(  0-C ,  8-C ) :   1.1766 B(  0-C , 31-N ) :  -0.2473 B(  1-C , 13-H ) :   0.8942
B(  1-C , 31-N ) :   2.0388 B(  2-C ,  3-C ) :   1.2357 B(  2-C ,  4-H ) :   0.8619
B(  2-C , 31-N ) :   0.1059 B(  3-C ,  5-C ) :   1.2767 B(  3-C , 11-C ) :   0.9007
B(  3-C , 33-O ) :  -0.1628 B(  5-C ,  6-C ) :   1.1872 B(  5-C ,  7-H ) :   0.9026
B(  6-C ,  8-C ) :   1.3958 B(  6-C ,  9-C ) :   0.9806 B(  6-C , 36-N ) :  -0.2492
B(  8-C , 10-H ) :   0.8663 B(  9-C , 12-H ) :   0.8962 B(  9-C , 36-N ) :   2.0656
B( 11-C , 33-O ) :   2.0719 B( 11-C , 49-H ) :   0.9544 B( 14-C , 15-C ) :   0.9648
B( 14-C , 16-C ) :   1.4059 B( 14-C , 17-C ) :   0.1224 B( 14-C , 20-C ) :   0.1154
B( 14-C , 22-C ) :   1.1916 B( 14-C , 29-N ) :  -0.2516 B( 15-C , 29-N ) :   2.0614
B( 15-C , 46-H ) :   0.9013 B( 16-C , 17-C ) :   1.1651 B( 16-C , 18-H ) :   0.8689
B( 17-C , 19-C ) :   1.3962 B( 17-C , 20-C ) :   0.1185 B( 17-C , 25-C ) :   0.9671
B( 17-C , 38-N ) :  -0.2504 B( 19-C , 20-C ) :   1.1918 B( 19-C , 21-H ) :   0.8833
B( 19-C , 38-N ) :   0.1066 B( 20-C , 22-C ) :   1.3712 B( 20-C , 23-C ) :   0.9731
B( 20-C , 42-N ) :  -0.2570 B( 22-C , 24-H ) :   0.8928 B( 23-C , 42-N ) :   2.0665
B( 23-C , 47-H ) :   0.9008 B( 25-C , 26-H ) :   0.8928 B( 25-C , 38-N ) :   2.0384
B( 27-C , 28-C ) :   0.9081 B( 27-C , 29-N ) :   0.9202 B( 27-C , 30-H ) :   0.9277
B( 27-C , 50-H ) :   0.9350 B( 28-C , 31-N ) :   0.9256 B( 28-C , 32-H ) :   0.9310
B( 28-C , 51-H ) :   0.9426 B( 34-C , 35-C ) :   0.9078 B( 34-C , 36-N ) :   0.9202
B( 34-C , 37-H ) :   0.9278 B( 34-C , 52-H ) :   0.9347 B( 35-C , 38-N ) :   0.9251
B( 35-C , 39-H ) :   0.9311 B( 35-C , 53-H ) :   0.9431 B( 40-C , 41-C ) :   0.9188
B( 40-C , 42-N ) :   0.9269 B( 40-C , 43-H ) :   0.9441 B( 40-C , 54-H ) :   0.9147
B( 41-C , 44-N ) :   1.0567 B( 41-C , 45-H ) :   0.9417 B( 41-C , 55-H ) :   0.9521
B( 44-N , 48-H ) :   0.8732 B( 44-N , 56-H ) :   0.8789

Dispersion correction           -0.164406508
FINAL SINGLE POINT ENERGY     -1333.237108245146

DIPOLE MOMENT
-------------
                                X             Y             Z
Electronic contribution:    -11.16104     -13.91089      -2.11584
Nuclear contribution   :     10.42076      14.26127       2.30339
                        -----------------------------------------
Total Dipole Moment    :     -0.74028       0.35038       0.18755
                        -----------------------------------------
Magnitude (a.u.)       :      0.84021
Magnitude (Debye)      :      2.13565

Rotational constants in cm-1:     0.004707     0.003124     0.002749
Rotational constants in MHz :   141.122256    93.659669    82.405334

                             ****ORCA TERMINATED NORMALLY****
TOTAL RUN TIME: 0 days 0 hours 52 minutes 52 seconds 268 msec
