                         Program Version 4.2.1 -  RELEASE  -
|  1> ! RI-MP2 cc-pVTZ cc-pVTZ/C TIGHTSCF printbasis Grid6 NOFINALGRID SlowConv
|  2>
|  3> %base "_o_2_alde1_3_ami3_1_opt_MP2"
|  4> %maxcore 3000
|  5> %pal
|  6>    nprocs 32
|  7> end
|  8>
|  9> * xyzfile 0 1 _o_2_alde1_3_ami3_1_opt_B97-3c.xyz
| 10>
| 11>                          ****END OF INPUT****

CARTESIAN COORDINATES (ANGSTROEM)
---------------------------------
  C     -3.725549   -1.450002   -0.661633
  C     -3.616479   -1.110596    0.755335
  C     -3.206139   -2.637941   -1.181784
  C     -3.210636   -2.863629   -2.550315
  H     -2.778498   -3.364296   -0.502726
  C     -3.701938   -1.885427   -3.419429
  C     -4.225470   -0.702955   -2.919289
  H     -3.652573   -2.066420   -4.485465
  C     -4.254435   -0.508371   -1.534190
  C     -4.619542    0.370077   -3.832582
  H     -4.648799    0.425551   -1.157073
  C     -2.655408   -4.120566   -3.073597
  H     -4.281108    0.248312   -4.870777
  H     -4.131226   -0.188077    1.052262
  C     -0.533139    1.339014   -0.265498
  C     -0.485920    0.513431    0.938928
  C     -1.705711    1.993459   -0.635994
  C     -1.801111    2.630094   -1.866681
  H     -2.559461    1.942936    0.025916
  C     -0.688164    2.663576   -2.711348
  C      0.506755    2.069928   -2.328186
  H     -0.781963    3.147056   -3.674450
  C      0.566353    1.383231   -1.120014
  C      1.712789    2.173531   -3.230340
  H      1.484852    0.871930   -0.865361
  C     -3.105050    3.139822   -2.277168
  H     -3.868765    3.137006   -1.487866
  C     -1.348847   -0.452302    2.878488
  C     -2.710234   -1.184922    2.882480
  N     -1.384292    0.542645    1.836192
  H     -0.568968   -1.205535    2.692320
  C     -1.103191    0.183715    4.241389
  N     -2.908489   -1.771509    1.577259
  H     -3.469226   -0.417276    3.091411
  C     -2.743470   -2.234941    3.980539
  C     -1.154005   -0.852130    5.354319
  C     -2.468800   -1.618709    5.344211
  O     -2.596626   -4.423191   -4.248399
  C     -5.401238    2.495500   -4.382380
  C     -4.778093    3.758552   -3.746729
  N     -5.240748    1.407483   -3.449155
  H     -4.866282    2.300493   -5.323114
  C     -6.871728    2.742915   -4.695075
  N     -3.387646    3.486119   -3.466735
  H     -5.341331    3.943698   -2.820049
  C     -4.936518    4.951242   -4.674743
  C     -7.042610    3.943143   -5.614034
  C     -6.396725    5.190190   -5.027599
  C      3.726353    2.719424   -2.217849
  C      3.428658    3.767128   -3.281276
  N      2.929029    1.573163   -2.641573
  H      3.295012    3.084561   -1.277532
  C      5.207599    2.536085   -2.016315
  N      1.998552    3.612696   -3.523446
  H      3.963446    3.471286   -4.193513
  C      3.933782    5.124827   -2.861172
  C      5.802647    3.892275   -1.625513
  C      5.438546    5.013215   -2.600808
  H      0.356027   -0.192067    0.989890
  H      3.428922    1.079115   -3.370320
  H      1.499265    1.651956   -4.166185
  H      1.495935    4.173873   -2.844161
  H     -2.273566   -4.809401   -2.291989
  H     -8.102828    4.117315   -5.803903
  H     -6.588441    3.722157   -6.584146
  H     -6.480552    6.024569   -5.725322
  H     -6.941669    5.485492   -4.126406
  H     -4.506507    5.831072   -4.194452
  H     -4.348067    4.772697   -5.576986
  H     -7.293423    1.845251   -5.149144
  H     -7.408723    2.900399   -3.757353
  H      3.731271    5.881324   -3.620058
  H      3.417007    5.439358   -1.948507
  H      5.824603    5.962438   -2.226554
  H      5.943807    4.833017   -3.553523
  H      6.887955    3.814714   -1.546239
  H      5.443028    4.156575   -0.627101
  H      5.666283    2.179998   -2.944174
  H      5.416945    1.789855   -1.249642
  H     -2.000488   -3.002404    3.753606
  H     -3.714537   -2.731270    3.969986
  H     -1.855622    0.957637    4.406270
  H     -0.135871    0.687622    4.226102
  H     -1.003954   -0.366692    6.319988
  H     -0.325811   -1.555796    5.230727
  H     -2.460670   -2.395761    6.110180
  H     -3.283992   -0.937617    5.605257

 Total Charge           Charge          ....    0
 Multiplicity           Mult            ....    1
 Number of Electrons    NEL             ....  310
 Basis Dimension        Dim             .... 1906

ORBITAL ENERGIES
----------------

  NO   OCC          E(Eh)            E(eV)
   0   2.0000     -20.551963      -559.2473
   1   2.0000     -15.554834      -423.2685
   2   2.0000     -15.552515      -423.2054
   3   2.0000     -15.550605      -423.1535
   4   2.0000     -15.546967      -423.0545
   5   2.0000     -15.546561      -423.0434
   6   2.0000     -15.541318      -422.9008
   7   2.0000     -11.332324      -308.3682
   8   2.0000     -11.288401      -307.1730
   9   2.0000     -11.282681      -307.0174
  10   2.0000     -11.280918      -306.9694
  11   2.0000     -11.279003      -306.9173
  12   2.0000     -11.274517      -306.7952
  13   2.0000     -11.259691      -306.3918
  14   2.0000     -11.257715      -306.3380
  15   2.0000     -11.257453      -306.3309
  16   2.0000     -11.252012      -306.1828
  17   2.0000     -11.252010      -306.1828
  18   2.0000     -11.251537      -306.1699
  19   2.0000     -11.251517      -306.1693
  20   2.0000     -11.250799      -306.1498
  21   2.0000     -11.250087      -306.1304
  22   2.0000     -11.248211      -306.0794
  23   2.0000     -11.246339      -306.0284
  24   2.0000     -11.244440      -305.9768
  25   2.0000     -11.240786      -305.8773
  26   2.0000     -11.240448      -305.8681
  27   2.0000     -11.239048      -305.8300
  28   2.0000     -11.237838      -305.7971
  29   2.0000     -11.236180      -305.7520
  30   2.0000     -11.235385      -305.7304
  31   2.0000     -11.225279      -305.4554
  32   2.0000     -11.224393      -305.4313
  33   2.0000     -11.224177      -305.4254
  34   2.0000     -11.222557      -305.3813
  35   2.0000     -11.217556      -305.2452
  36   2.0000     -11.216783      -305.2242
  37   2.0000     -11.216099      -305.2056
  38   2.0000     -11.215989      -305.2026
  39   2.0000     -11.215248      -305.1824
  40   2.0000     -11.214824      -305.1709
  41   2.0000     -11.213970      -305.1476
  42   2.0000     -11.211213      -305.0726
  43   2.0000      -1.386548       -37.7299
  44   2.0000      -1.276953       -34.7477
  45   2.0000      -1.257267       -34.2120
  46   2.0000      -1.255229       -34.1565
  47   2.0000      -1.227542       -33.4031
  48   2.0000      -1.222215       -33.2582
  49   2.0000      -1.178660       -32.0730
  50   2.0000      -1.163037       -31.6479
  51   2.0000      -1.147107       -31.2144
  52   2.0000      -1.117045       -30.3963
  53   2.0000      -1.116084       -30.3702
  54   2.0000      -1.108717       -30.1697
  55   2.0000      -1.062912       -28.9233
  56   2.0000      -1.061157       -28.8755
  57   2.0000      -1.050313       -28.5805
  58   2.0000      -1.049350       -28.5543
  59   2.0000      -1.006448       -27.3868
  60   2.0000      -1.005300       -27.3556
  61   2.0000      -1.001953       -27.2645
  62   2.0000      -0.998275       -27.1644
  63   2.0000      -0.987436       -26.8695
  64   2.0000      -0.981127       -26.6978
  65   2.0000      -0.901555       -24.5326
  66   2.0000      -0.899841       -24.4859
  67   2.0000      -0.889361       -24.2007
  68   2.0000      -0.881238       -23.9797
  69   2.0000      -0.878307       -23.9000
  70   2.0000      -0.864137       -23.5144
  71   2.0000      -0.835061       -22.7232
  72   2.0000      -0.831371       -22.6227
  73   2.0000      -0.824206       -22.4278
  74   2.0000      -0.821012       -22.3409
  75   2.0000      -0.818155       -22.2631
  76   2.0000      -0.808899       -22.0113
  77   2.0000      -0.783561       -21.3218
  78   2.0000      -0.770655       -20.9706
  79   2.0000      -0.768265       -20.9056
  80   2.0000      -0.761896       -20.7323
  81   2.0000      -0.756397       -20.5826
  82   2.0000      -0.753364       -20.5001
  83   2.0000      -0.741715       -20.1831
  84   2.0000      -0.711937       -19.3728
  85   2.0000      -0.699358       -19.0305
  86   2.0000      -0.693320       -18.8662
  87   2.0000      -0.687319       -18.7029
  88   2.0000      -0.672495       -18.2995
  89   2.0000      -0.669218       -18.2103
  90   2.0000      -0.666805       -18.1447
  91   2.0000      -0.659290       -17.9402
  92   2.0000      -0.651104       -17.7174
  93   2.0000      -0.644538       -17.5388
  94   2.0000      -0.641656       -17.4604
  95   2.0000      -0.634540       -17.2667
  96   2.0000      -0.630280       -17.1508
  97   2.0000      -0.629542       -17.1307
  98   2.0000      -0.626677       -17.0527
  99   2.0000      -0.623080       -16.9549
 100   2.0000      -0.617611       -16.8060
 101   2.0000      -0.607576       -16.5330
 102   2.0000      -0.605345       -16.4723
 103   2.0000      -0.600951       -16.3527
 104   2.0000      -0.598221       -16.2784
 105   2.0000      -0.596037       -16.2190
 106   2.0000      -0.589402       -16.0384
 107   2.0000      -0.588628       -16.0174
 108   2.0000      -0.577313       -15.7095
 109   2.0000      -0.576107       -15.6767
 110   2.0000      -0.563085       -15.3223
 111   2.0000      -0.560874       -15.2622
 112   2.0000      -0.559427       -15.2228
 113   2.0000      -0.555393       -15.1130
 114   2.0000      -0.550665       -14.9844
 115   2.0000      -0.543798       -14.7975
 116   2.0000      -0.541147       -14.7254
 117   2.0000      -0.538111       -14.6427
 118   2.0000      -0.530512       -14.4360
 119   2.0000      -0.529881       -14.4188
 120   2.0000      -0.527057       -14.3420
 121   2.0000      -0.516426       -14.0527
 122   2.0000      -0.513476       -13.9724
 123   2.0000      -0.506429       -13.7806
 124   2.0000      -0.503388       -13.6979
 125   2.0000      -0.496502       -13.5105
 126   2.0000      -0.492852       -13.4112
 127   2.0000      -0.492132       -13.3916
 128   2.0000      -0.490987       -13.3604
 129   2.0000      -0.487366       -13.2619
 130   2.0000      -0.482780       -13.1371
 131   2.0000      -0.473756       -12.8916
 132   2.0000      -0.471918       -12.8415
 133   2.0000      -0.468076       -12.7370
 134   2.0000      -0.465690       -12.6721
 135   2.0000      -0.461131       -12.5480
 136   2.0000      -0.460425       -12.5288
 137   2.0000      -0.458277       -12.4703
 138   2.0000      -0.456843       -12.4313
 139   2.0000      -0.454646       -12.3715
 140   2.0000      -0.438172       -11.9233
 141   2.0000      -0.429145       -11.6776
 142   2.0000      -0.426863       -11.6155
 143   2.0000      -0.416407       -11.3310
 144   2.0000      -0.410347       -11.1661
 145   2.0000      -0.409101       -11.1322
 146   2.0000      -0.405821       -11.0430
 147   2.0000      -0.398798       -10.8518
 148   2.0000      -0.397692       -10.8217
 149   2.0000      -0.385490       -10.4897
 150   2.0000      -0.376327       -10.2404
 151   2.0000      -0.343468        -9.3462
 152   2.0000      -0.328147        -8.9293
 153   2.0000      -0.324547        -8.8314
 154   2.0000      -0.316966        -8.6251
 155   0.0000       0.062206         1.6927
 156   0.0000       0.070234         1.9112
 157   0.0000       0.078304         2.1308
 158   0.0000       0.100342         2.7304
 159   0.0000       0.130889         3.5617

MULLIKEN ATOMIC CHARGES
-----------------------
   0 C :    0.168848
   1 C :   -0.106217
   2 C :   -0.199622
   3 C :    0.080000
   4 H :    0.164870
   5 C :   -0.215803
   6 C :    0.195923
   7 H :    0.173159
   8 C :   -0.196332
   9 C :   -0.090524
  10 H :    0.166736
  11 C :    0.173267
  12 H :    0.092073
  13 H :    0.103351
  14 C :    0.218731
  15 C :   -0.096291
  16 C :   -0.237942
  17 C :    0.181010
  18 H :    0.158246
  19 C :   -0.244681
  20 C :    0.046201
  21 H :    0.177957
  22 C :   -0.253315
  23 C :    0.076830
  24 H :    0.169321
  25 C :   -0.110739
  26 H :    0.099794
  27 C :    0.090951
  28 C :    0.095280
  29 N :   -0.297016
  30 H :    0.077728
  31 C :   -0.203352
  32 N :   -0.289311
  33 H :    0.078632
  34 C :   -0.204469
  35 C :   -0.206781
  36 C :   -0.204936
  37 O :   -0.366373
  38 C :    0.088030
  39 C :    0.097781
  40 N :   -0.294545
  41 H :    0.080029
  42 C :   -0.204157
  43 N :   -0.286777
  44 H :    0.077144
  45 C :   -0.204667
  46 C :   -0.206761
  47 C :   -0.204874
  48 C :    0.050378
  49 C :    0.034868
  50 N :   -0.287842
  51 H :    0.085008
  52 C :   -0.224302
  53 N :   -0.288735
  54 H :    0.092706
  55 C :   -0.222233
  56 C :   -0.204023
  57 C :   -0.202242
  58 H :    0.087923
  59 H :    0.092207
  60 H :    0.113539
  61 H :    0.107516
  62 H :    0.091458
  63 H :    0.112920
  64 H :    0.089437
  65 H :    0.112424
  66 H :    0.087741
  67 H :    0.109207
  68 H :    0.098493
  69 H :    0.108391
  70 H :    0.098603
  71 H :    0.122931
  72 H :    0.089402
  73 H :    0.114301
  74 H :    0.092623
  75 H :    0.113938
  76 H :    0.093525
  77 H :    0.089239
  78 H :    0.119585
  79 H :    0.095737
  80 H :    0.109847
  81 H :    0.099083
  82 H :    0.107187
  83 H :    0.112845
  84 H :    0.088748
  85 H :    0.112533
  86 H :    0.088625
Sum of atomic charges:   -0.0000000

LOEWDIN ATOMIC CHARGES
----------------------
   0 C :   -0.072808
   1 C :   -0.068304
   2 C :    0.102051
   3 C :   -0.094736
   4 H :   -0.015137
   5 C :    0.099538
   6 C :   -0.071393
   7 H :   -0.012008
   8 C :    0.106558
   9 C :   -0.065417
  10 H :   -0.018821
  11 C :   -0.148954
  12 H :   -0.032912
  13 H :   -0.034419
  14 C :   -0.076836
  15 C :   -0.064758
  16 C :    0.077703
  17 C :   -0.075988
  18 H :   -0.025414
  19 C :    0.082098
  20 C :   -0.052054
  21 H :   -0.015257
  22 C :    0.066576
  23 C :   -0.108013
  24 H :   -0.027265
  25 C :   -0.069732
  26 H :   -0.035813
  27 C :   -0.109469
  28 C :   -0.111010
  29 N :    0.229404
  30 H :   -0.032439
  31 C :    0.061529
  32 N :    0.223924
  33 H :   -0.030424
  34 C :    0.060062
  35 C :    0.058723
  36 C :    0.058885
  37 O :    0.136357
  38 C :   -0.107579
  39 C :   -0.112423
  40 N :    0.234477
  41 H :   -0.031357
  42 C :    0.061741
  43 N :    0.223039
  44 H :   -0.030926
  45 C :    0.060284
  46 C :    0.059025
  47 C :    0.058650
  48 C :   -0.105431
  49 C :   -0.106478
  50 N :    0.320189
  51 H :   -0.023026
  52 C :    0.064653
  53 N :    0.303089
  54 H :   -0.024428
  55 C :    0.064484
  56 C :    0.066458
  57 C :    0.066078
  58 H :   -0.034189
  59 H :   -0.114670
  60 H :   -0.027915
  61 H :   -0.116354
  62 H :   -0.034568
  63 H :   -0.025623
  64 H :   -0.025808
  65 H :   -0.025745
  66 H :   -0.026197
  67 H :   -0.024593
  68 H :   -0.023647
  69 H :   -0.025891
  70 H :   -0.024184
  71 H :   -0.023012
  72 H :   -0.026547
  73 H :   -0.025339
  74 H :   -0.025646
  75 H :   -0.025464
  76 H :   -0.025520
  77 H :   -0.026882
  78 H :   -0.024113
  79 H :   -0.024247
  80 H :   -0.024995
  81 H :   -0.024032
  82 H :   -0.026074
  83 H :   -0.025597
  84 H :   -0.026106
  85 H :   -0.025565
  86 H :   -0.026025

  Mayer bond orders larger than 0.100000
B(  0-C ,  1-C ) :   1.0082 B(  0-C ,  2-C ) :   1.2889 B(  0-C ,  8-C ) :   1.3760
B(  1-C , 13-H ) :   0.9881 B(  1-C , 32-N ) :   1.9625 B(  2-C ,  3-C ) :   1.3694
B(  2-C ,  4-H ) :   0.9591 B(  3-C ,  5-C ) :   1.2832 B(  3-C , 11-C ) :   0.9317
B(  5-C ,  6-C ) :   1.3845 B(  5-C ,  7-H ) :   0.9646 B(  6-C ,  8-C ) :   1.2845
B(  6-C ,  9-C ) :   0.9941 B(  8-C , 10-H ) :   0.9602 B(  9-C , 12-H ) :   0.9882
B(  9-C , 40-N ) :   1.9750 B( 11-C , 37-O ) :   2.0865 B( 11-C , 62-H ) :   1.0208
B( 14-C , 15-C ) :   0.9975 B( 14-C , 16-C ) :   1.3186 B( 14-C , 22-C ) :   1.3461
B( 15-C , 29-N ) :   1.9696 B( 15-C , 58-H ) :   0.9878 B( 16-C , 17-C ) :   1.3493
B( 16-C , 18-H ) :   0.9631 B( 17-C , 19-C ) :   1.2993 B( 17-C , 25-C ) :   1.0114
B( 19-C , 20-C ) :   1.3827 B( 19-C , 21-H ) :   0.9574 B( 20-C , 22-C ) :   1.3310
B( 20-C , 23-C ) :   1.0464 B( 22-C , 24-H ) :   0.9513 B( 23-C , 50-N ) :   1.0177
B( 23-C , 53-N ) :   1.0302 B( 23-C , 60-H ) :   0.9846 B( 25-C , 26-H ) :   0.9887
B( 25-C , 43-N ) :   1.9633 B( 27-C , 28-C ) :   0.9313 B( 27-C , 29-N ) :   0.9390
B( 27-C , 30-H ) :   0.9715 B( 27-C , 31-C ) :   0.9499 B( 28-C , 32-N ) :   0.9369
B( 28-C , 33-H ) :   0.9747 B( 28-C , 34-C ) :   0.9551 B( 31-C , 35-C ) :   0.9416
B( 31-C , 81-H ) :   0.9834 B( 31-C , 82-H ) :   0.9914 B( 34-C , 36-C ) :   0.9448
B( 34-C , 79-H ) :   0.9843 B( 34-C , 80-H ) :   0.9915 B( 35-C , 36-C ) :   0.9442
B( 35-C , 83-H ) :   0.9948 B( 35-C , 84-H ) :   0.9848 B( 36-C , 85-H ) :   0.9955
B( 36-C , 86-H ) :   0.9848 B( 38-C , 39-C ) :   0.9308 B( 38-C , 40-N ) :   0.9355
B( 38-C , 41-H ) :   0.9726 B( 38-C , 42-C ) :   0.9498 B( 39-C , 43-N ) :   0.9361
B( 39-C , 44-H ) :   0.9738 B( 39-C , 45-C ) :   0.9553 B( 42-C , 46-C ) :   0.9421
B( 42-C , 69-H ) :   0.9913 B( 42-C , 70-H ) :   0.9835 B( 45-C , 47-C ) :   0.9440
B( 45-C , 67-H ) :   0.9916 B( 45-C , 68-H ) :   0.9840 B( 46-C , 47-C ) :   0.9443
B( 46-C , 63-H ) :   0.9949 B( 46-C , 64-H ) :   0.9847 B( 47-C , 65-H ) :   0.9955
B( 47-C , 66-H ) :   0.9849 B( 48-C , 49-C ) :   0.9352 B( 48-C , 50-N ) :   0.9751
B( 48-C , 51-H ) :   0.9674 B( 48-C , 52-C ) :   0.9600 B( 49-C , 53-N ) :   1.0220
B( 49-C , 54-H ) :   0.9769 B( 49-C , 55-C ) :   0.9588 B( 50-N , 59-H ) :   0.9954
B( 52-C , 56-C ) :   0.9495 B( 52-C , 77-H ) :   0.9819 B( 52-C , 78-H ) :   0.9898
B( 53-N , 61-H ) :   0.9902 B( 55-C , 57-C ) :   0.9499 B( 55-C , 71-H ) :   0.9901
B( 55-C , 72-H ) :   0.9824 B( 56-C , 57-C ) :   0.9435 B( 56-C , 75-H ) :   0.9944
B( 56-C , 76-H ) :   0.9850 B( 57-C , 73-H ) :   0.9943 B( 57-C , 74-H ) :   0.9850

MP2 TOTAL ENERGY:    -1798.309414898 Eh
FINAL SINGLE POINT ENERGY     -1798.309414898295

DIPOLE MOMENT
-------------
                                X             Y             Z
Electronic contribution:    -15.31453     -24.58730      -9.32016
Nuclear contribution   :     16.10268      25.56186      10.27993
                        -----------------------------------------
Total Dipole Moment    :      0.78814       0.97456       0.95978
                        -----------------------------------------
Magnitude (a.u.)       :      1.57864
Magnitude (Debye)      :      4.01259

Rotational constants in cm-1:     0.002082     0.001859     0.001256
Rotational constants in MHz :    62.431341    55.743762    37.647349

                             ****ORCA TERMINATED NORMALLY****
TOTAL RUN TIME: 0 days 1 hours 1 minutes 46 seconds 61 msec
