                         Program Version 4.2.1 -  RELEASE  -
|  1> ! DFT COPT B97-3c TightSCF printbasis  Grid6 NOFINALGRID SlowConv
|  2>
|  3> %base "_o_2_alde1_3_ami1_1_opt_B97-3c"
|  4> %maxcore 3000
|  5> %scf
|  6>    MaxIter 2000
|  7> end
|  8> %pal
|  9>    nprocs 32
| 10> end
| 11>
| 12> * xyzfile 0 1 o_2_alde1_3_ami1_1_opt.xyz
| 13> # * xyzfile 0 1 _o_2_alde1_3_ami1_1_opt_B97-3c.xyz
| 14>
| 15>                          ****END OF INPUT****
 Total Charge           Charge          ....    0
 Multiplicity           Mult            ....    1
 Number of Electrons    NEL             ....  364
Dispersion correction           -0.319690420
FINAL SINGLE POINT ENERGY     -2040.541203178120
Dispersion correction            ... done
Dispersion correction           -0.319707492
FINAL SINGLE POINT ENERGY     -2040.542673302700
Dispersion correction            ... done
Dispersion correction           -0.319734836
FINAL SINGLE POINT ENERGY     -2040.543219967709
Dispersion correction            ... done
FINAL SINGLE POINT ENERGY     -2040.543521539550
FINAL SINGLE POINT ENERGY     -2040.543833169977
FINAL SINGLE POINT ENERGY     -2040.543999684478
FINAL SINGLE POINT ENERGY     -2040.544156020526
FINAL SINGLE POINT ENERGY     -2040.544299260240
FINAL SINGLE POINT ENERGY     -2040.544462094523
FINAL SINGLE POINT ENERGY     -2040.544590458869
FINAL SINGLE POINT ENERGY     -2040.545958351990
FINAL SINGLE POINT ENERGY     -2040.545968262168
FINAL SINGLE POINT ENERGY     -2040.545976881012
FINAL SINGLE POINT ENERGY     -2040.545983555044
FINAL SINGLE POINT ENERGY     -2040.545989799351
FINAL SINGLE POINT ENERGY     -2040.545995567498
FINAL SINGLE POINT ENERGY     -2040.546001364268
Dispersion correction            ... done
Dispersion correction           -0.317674869
FINAL SINGLE POINT ENERGY     -2040.546006718678
Dispersion correction            ... done
Dispersion correction           -0.317676480
FINAL SINGLE POINT ENERGY     -2040.546011762707
Dispersion correction            ... done
                    ***********************HURRAY********************

CARTESIAN COORDINATES (ANGSTROEM)
---------------------------------
  C     -5.853104   -2.301022    0.031881
  C     -4.728560   -2.608339    0.927188
  C     -7.056258   -2.992414    0.106516
  C     -8.097564   -2.684103   -0.770786
  H     -7.207558   -3.779915    0.833759
  C     -7.934226   -1.677068   -1.719947
  C     -6.738163   -0.966502   -1.795080
  H     -8.749358   -1.444871   -2.397469
  C     -5.709093   -1.290851   -0.918042
  C     -6.536526    0.111541   -2.772515
  H     -4.777486   -0.748119   -0.974477
  C     -9.372331   -3.409675   -0.709351
  H     -7.333464    0.264711   -3.517011
  H     -4.912662   -3.353529    1.715483
  C     -0.200851    1.330362   -0.107390
  C     -0.521108    0.481508    1.046689
  C     -1.107488    1.402744   -1.158139
  C     -0.854570    2.203466   -2.263479
  H     -2.022956    0.834586   -1.109027
  C      0.324094    2.948185   -2.312924
  C      1.243741    2.886149   -1.273717
  H      0.537529    3.596568   -3.152964
  C      0.979070    2.073247   -0.175644
  C      2.539484    3.648410   -1.356568
  H      1.696938    2.023731    0.635743
  C     -1.837343    2.263816   -3.348908
  H     -1.639395    2.985292   -4.157102
  C     -2.031840   -0.922392    2.220326
  C     -2.485053   -2.279979    1.614941
  N     -1.660808   -0.062878    1.134107
  H     -1.195556   -1.122753    2.907343
  C     -3.144013   -0.239774    3.042004
  N     -3.615951   -2.028109    0.766912
  H     -2.726289   -2.959368    2.446156
  C     -1.379051   -2.952554    0.776995
  H     -3.967721   -0.042116    2.354015
  C     -3.648916   -1.127555    4.170667
  C     -0.108869   -3.173723    1.585386
  C     -1.869871   -4.269807    0.192510
  O     -9.635867   -4.304135    0.069381
  C     -5.218835    1.867024   -3.666464
  C     -3.860356    1.557321   -4.353148
  N     -5.485068    0.812617   -2.730143
  H     -5.988349    1.938822   -4.449824
  C     -5.207189    3.209159   -2.906737
  N     -2.856341    1.513186   -3.330469
  H     -3.672824    2.346408   -5.097412
  C     -3.861736    0.211855   -5.104775
  H     -4.448646    3.120878   -2.127698
  C     -4.845499    4.375163   -3.814823
  H     -4.039621   -0.565013   -4.359351
  C     -4.956855    0.143602   -6.158910
  C      3.822996    5.097192   -2.719311
  C      4.599884    3.786982   -2.419636
  N      2.464983    4.807143   -2.250420
  H      3.785432    5.241960   -3.804429
  C      4.461656    6.362020   -2.124336
  C      5.378474    3.223869   -3.604009
  H      5.510219    6.347740   -2.434820
  C      3.830845    7.617204   -2.714398
  H      4.649203    3.034953   -4.401731
  C      6.405038    4.214509   -4.135819
  H      0.264859    0.352978    1.807095
  H    -10.122235   -3.074933   -1.456762
  C     -2.659006    1.092892    3.595150
  H     -1.157341   -2.275557   -0.049283
  C     -6.549754    3.459360   -2.233600
  C     -2.501060   -0.042822   -5.738681
  C      4.434882    6.413113   -0.602763
  C      6.055995    1.905803   -3.250027
  H     -1.086327   -4.740080   -0.400411
  H     -2.732801   -4.129365   -0.453237
  H     -2.150181   -4.971023    0.981559
  H     -2.834484   -1.432580    4.829882
  H     -4.139010   -2.028850    3.810589
  H     -4.374949   -0.588144    4.777706
  H     -1.800736    0.954042    4.256288
  H     -3.444552    1.576591    4.174453
  H     -2.364482    1.774500    2.801635
  H     -0.307331   -3.761146    2.483406
  H      0.358619   -2.242075    1.893883
  H      0.623481   -3.720175    0.992660
  H      2.776027    7.700625   -2.447315
  H      3.893420    7.618776   -3.802457
  H      4.326082    8.516054   -2.348766
  H      7.136371    4.468679   -3.367378
  H      5.951119    5.140249   -4.483406
  H      6.950300    3.783147   -4.974207
  H      4.900839    5.541793   -0.147143
  H      3.416465    6.481715   -0.218931
  H      4.968589    7.292803   -0.246171
  H      5.349684    1.165247   -2.884037
  H      6.802542    2.056781   -2.468987
  H      6.566566    1.491237   -4.118832
  H     -4.921373    5.314451   -3.268869
  H     -5.521221    4.437536   -4.669295
  H     -3.830679    4.308113   -4.198086
  H     -4.879521   -0.785418   -6.722428
  H     -4.871916    0.966000   -6.871097
  H     -5.955730    0.177834   -5.730505
  H     -2.494672   -0.995647   -6.266576
  H     -1.709699   -0.070471   -4.994409
  H     -2.254703    0.737030   -6.462740
  H     -7.356044    3.511492   -2.968668
  H     -6.536496    4.405874   -1.694462
  H     -6.795829    2.677275   -1.520000
  H      2.030840    5.603423   -1.803863
  N      3.604281    2.831021   -1.917531
  H      5.313922    3.977143   -1.612474
  H      2.844905    3.932194   -0.340178
  H      3.207586    2.332011   -2.708644

 Multiplicity           Mult            ....    1
 Number of Electrons    NEL             ....  364
 Basis Dimension        Dim             .... 1122

ORBITAL ENERGIES
----------------

  NO   OCC          E(Eh)            E(eV)
   0   2.0000     -18.737503      -509.8734
   1   2.0000     -13.977026      -380.3342
   2   2.0000     -13.976120      -380.3096
   3   2.0000     -13.975958      -380.3052
   4   2.0000     -13.972369      -380.2075
   5   2.0000     -13.970055      -380.1445
   6   2.0000     -13.969856      -380.1391
   7   2.0000      -9.974642      -271.4238
   8   2.0000      -9.945432      -270.6290
   9   2.0000      -9.935535      -270.3596
  10   2.0000      -9.933791      -270.3122
  11   2.0000      -9.928762      -270.1753
  12   2.0000      -9.927756      -270.1480
  13   2.0000      -9.920502      -269.9506
  14   2.0000      -9.919179      -269.9146
  15   2.0000      -9.918539      -269.8972
  16   2.0000      -9.918184      -269.8875
  17   2.0000      -9.918038      -269.8835
  18   2.0000      -9.916906      -269.8527
  19   2.0000      -9.915592      -269.8170
  20   2.0000      -9.913596      -269.7627
  21   2.0000      -9.912965      -269.7455
  22   2.0000      -9.912718      -269.7388
  23   2.0000      -9.912314      -269.7278
  24   2.0000      -9.902230      -269.4534
  25   2.0000      -9.900775      -269.4138
  26   2.0000      -9.900252      -269.3996
  27   2.0000      -9.899695      -269.3844
  28   2.0000      -9.899536      -269.3801
  29   2.0000      -9.898658      -269.3562
  30   2.0000      -9.898332      -269.3473
  31   2.0000      -9.894631      -269.2466
  32   2.0000      -9.890459      -269.1331
  33   2.0000      -9.889531      -269.1078
  34   2.0000      -9.889018      -269.0939
  35   2.0000      -9.888933      -269.0916
  36   2.0000      -9.884641      -268.9748
  37   2.0000      -9.884281      -268.9650
  38   2.0000      -9.884073      -268.9593
  39   2.0000      -9.883143      -268.9340
  40   2.0000      -9.877326      -268.7757
  41   2.0000      -9.877171      -268.7715
  42   2.0000      -9.876338      -268.7488
  43   2.0000      -9.875964      -268.7386
  44   2.0000      -9.875594      -268.7286
  45   2.0000      -9.872603      -268.6472
  46   2.0000      -9.871020      -268.6041
  47   2.0000      -9.870801      -268.5981
  48   2.0000      -9.870544      -268.5912
  49   2.0000      -0.960908       -26.1476
  50   2.0000      -0.889075       -24.1930
  51   2.0000      -0.865756       -23.5584
  52   2.0000      -0.863712       -23.5028
  53   2.0000      -0.846508       -23.0347
  54   2.0000      -0.842876       -22.9358
  55   2.0000      -0.805400       -21.9161
  56   2.0000      -0.791748       -21.5446
  57   2.0000      -0.789071       -21.4717
  58   2.0000      -0.751442       -20.4478
  59   2.0000      -0.749440       -20.3933
  60   2.0000      -0.741204       -20.1692
  61   2.0000      -0.729599       -19.8534
  62   2.0000      -0.727334       -19.7918
  63   2.0000      -0.722589       -19.6626
  64   2.0000      -0.711569       -19.3628
  65   2.0000      -0.709339       -19.3021
  66   2.0000      -0.700380       -19.0583
  67   2.0000      -0.698894       -19.0179
  68   2.0000      -0.661284       -17.9944
  69   2.0000      -0.657221       -17.8839
  70   2.0000      -0.647602       -17.6222
  71   2.0000      -0.630426       -17.1548
  72   2.0000      -0.625701       -17.0262
  73   2.0000      -0.622847       -16.9485
  74   2.0000      -0.621305       -16.9066
  75   2.0000      -0.620701       -16.8901
  76   2.0000      -0.619523       -16.8581
  77   2.0000      -0.608972       -16.5710
  78   2.0000      -0.606358       -16.4998
  79   2.0000      -0.600280       -16.3345
  80   2.0000      -0.585081       -15.9209
  81   2.0000      -0.574637       -15.6367
  82   2.0000      -0.570852       -15.5337
  83   2.0000      -0.565321       -15.3832
  84   2.0000      -0.556996       -15.1566
  85   2.0000      -0.554417       -15.0864
  86   2.0000      -0.528523       -14.3818
  87   2.0000      -0.515078       -14.0160
  88   2.0000      -0.512648       -13.9499
  89   2.0000      -0.509667       -13.8688
  90   2.0000      -0.508926       -13.8486
  91   2.0000      -0.507643       -13.8137
  92   2.0000      -0.503836       -13.7101
  93   2.0000      -0.500060       -13.6073
  94   2.0000      -0.496140       -13.5007
  95   2.0000      -0.479279       -13.0419
  96   2.0000      -0.472238       -12.8502
  97   2.0000      -0.467327       -12.7166
  98   2.0000      -0.460746       -12.5375
  99   2.0000      -0.457883       -12.4596
 100   2.0000      -0.445028       -12.1098
 101   2.0000      -0.438836       -11.9413
 102   2.0000      -0.437478       -11.9044
 103   2.0000      -0.428754       -11.6670
 104   2.0000      -0.428341       -11.6558
 105   2.0000      -0.423338       -11.5196
 106   2.0000      -0.421446       -11.4681
 107   2.0000      -0.419880       -11.4255
 108   2.0000      -0.415049       -11.2941
 109   2.0000      -0.413563       -11.2536
 110   2.0000      -0.408846       -11.1253
 111   2.0000      -0.406772       -11.0688
 112   2.0000      -0.406125       -11.0512
 113   2.0000      -0.399694       -10.8762
 114   2.0000      -0.396317       -10.7843
 115   2.0000      -0.393859       -10.7175
 116   2.0000      -0.391834       -10.6624
 117   2.0000      -0.389490       -10.5986
 118   2.0000      -0.387955       -10.5568
 119   2.0000      -0.386529       -10.5180
 120   2.0000      -0.377727       -10.2785
 121   2.0000      -0.377382       -10.2691
 122   2.0000      -0.375649       -10.2219
 123   2.0000      -0.374367       -10.1870
 124   2.0000      -0.371143       -10.0993
 125   2.0000      -0.366326        -9.9683
 126   2.0000      -0.362337        -9.8597
 127   2.0000      -0.359403        -9.7799
 128   2.0000      -0.358525        -9.7560
 129   2.0000      -0.357771        -9.7354
 130   2.0000      -0.356075        -9.6893
 131   2.0000      -0.354615        -9.6496
 132   2.0000      -0.351010        -9.5515
 133   2.0000      -0.347279        -9.4499
 134   2.0000      -0.344880        -9.3847
 135   2.0000      -0.343995        -9.3606
 136   2.0000      -0.342562        -9.3216
 137   2.0000      -0.340763        -9.2726
 138   2.0000      -0.340078        -9.2540
 139   2.0000      -0.338752        -9.2179
 140   2.0000      -0.337165        -9.1747
 141   2.0000      -0.335784        -9.1372
 142   2.0000      -0.332760        -9.0548
 143   2.0000      -0.330317        -8.9884
 144   2.0000      -0.328920        -8.9504
 145   2.0000      -0.325784        -8.8650
 146   2.0000      -0.323143        -8.7932
 147   2.0000      -0.320643        -8.7251
 148   2.0000      -0.319530        -8.6949
 149   2.0000      -0.315498        -8.5851
 150   2.0000      -0.314408        -8.5555
 151   2.0000      -0.310341        -8.4448
 152   2.0000      -0.307581        -8.3697
 153   2.0000      -0.301872        -8.2144
 154   2.0000      -0.301347        -8.2001
 155   2.0000      -0.299584        -8.1521
 156   2.0000      -0.297642        -8.0992
 157   2.0000      -0.297233        -8.0881
 158   2.0000      -0.296736        -8.0746
 159   2.0000      -0.293381        -7.9833
 160   2.0000      -0.290578        -7.9070
 161   2.0000      -0.289864        -7.8876
 162   2.0000      -0.288327        -7.8458
 163   2.0000      -0.287979        -7.8363
 164   2.0000      -0.286825        -7.8049
 165   2.0000      -0.277984        -7.5643
 166   2.0000      -0.275758        -7.5038
 167   2.0000      -0.274748        -7.4763
 168   2.0000      -0.271835        -7.3970
 169   2.0000      -0.270442        -7.3591
 170   2.0000      -0.257383        -7.0037
 171   2.0000      -0.228466        -6.2169
 172   2.0000      -0.226398        -6.1606
 173   2.0000      -0.220508        -6.0003
 174   2.0000      -0.219277        -5.9668
 175   2.0000      -0.214333        -5.8323
 176   2.0000      -0.212968        -5.7952
 177   2.0000      -0.211538        -5.7562
 178   2.0000      -0.200039        -5.4433
 179   2.0000      -0.195447        -5.3184
 180   2.0000      -0.194473        -5.2919
 181   2.0000      -0.186981        -5.0880
 182   0.0000      -0.100389        -2.7317
 183   0.0000      -0.082773        -2.2524
 184   0.0000      -0.072189        -1.9644
 185   0.0000      -0.071117        -1.9352
 186   0.0000      -0.059242        -1.6121

MULLIKEN ATOMIC CHARGES
-----------------------
   0 C :    0.273844
   1 C :   -0.408211
   2 C :   -0.144106
   3 C :    0.165162
   4 H :    0.217419
   5 C :   -0.133839
   6 C :    0.193877
   7 H :    0.211524
   8 C :   -0.052873
   9 C :   -0.418594
  10 H :    0.306948
  11 C :   -0.153245
  12 H :    0.106348
  13 H :    0.117605
  14 C :    0.267613
  15 C :   -0.437938
  16 C :   -0.062639
  17 C :    0.358746
  18 H :    0.298370
  19 C :   -0.204183
  20 C :    0.247461
  21 H :    0.201939
  22 C :   -0.219670
  23 C :   -0.569263
  24 H :    0.187449
  25 C :   -0.455366
  26 H :    0.111460
  27 C :   -0.190616
  28 C :   -0.194235
  29 N :   -0.036768
  30 H :    0.155760
  31 C :   -0.142646
  32 N :   -0.035987
  33 H :    0.157950
  34 C :   -0.143205
  35 H :    0.190667
  36 C :   -0.527707
  37 C :   -0.529569
  38 C :   -0.494686
  39 O :   -0.311592
  40 C :   -0.192772
  41 C :   -0.185398
  42 N :   -0.033199
  43 H :    0.154887
  44 C :   -0.144320
  45 N :   -0.029533
  46 H :    0.154322
  47 C :   -0.142729
  48 H :    0.196580
  49 C :   -0.528039
  50 H :    0.190413
  51 C :   -0.527153
  52 C :    0.119312
  53 C :   -0.186844
  54 N :   -0.323170
  55 H :    0.144074
  56 C :   -0.328067
  57 C :   -0.218218
  58 H :    0.175023
  59 C :   -0.455978
  60 H :    0.162241
  61 C :   -0.516303
  62 H :    0.108129
  63 H :    0.101196
  64 C :   -0.496140
  65 H :    0.195184
  66 C :   -0.496183
  67 C :   -0.495884
  68 C :   -0.520447
  69 C :   -0.454873
  70 H :    0.167810
  71 H :    0.187550
  72 H :    0.145396
  73 H :    0.157032
  74 H :    0.170759
  75 H :    0.171990
  76 H :    0.143579
  77 H :    0.166909
  78 H :    0.189544
  79 H :    0.157100
  80 H :    0.172305
  81 H :    0.171794
  82 H :    0.146353
  83 H :    0.168132
  84 H :    0.172756
  85 H :    0.162652
  86 H :    0.177913
  87 H :    0.174840
  88 H :    0.182070
  89 H :    0.148808
  90 H :    0.179470
  91 H :    0.179273
  92 H :    0.149726
  93 H :    0.167314
  94 H :    0.170994
  95 H :    0.156510
  96 H :    0.171732
  97 H :    0.171986
  98 H :    0.157108
  99 H :    0.168222
 100 H :    0.166895
 101 H :    0.190807
 102 H :    0.143444
 103 H :    0.143909
 104 H :    0.167866
 105 H :    0.188080
 106 H :    0.295883
 107 N :   -0.234852
 108 H :    0.141092
 109 H :    0.155635
 110 H :    0.304299
Sum of atomic charges:   -0.0000000

LOEWDIN ATOMIC CHARGES
----------------------
   0 C :   -0.077715
   1 C :   -0.036689
   2 C :   -0.086823
   3 C :   -0.071549
   4 H :    0.190633
   5 C :   -0.117463
   6 C :   -0.081369
   7 H :    0.172689
   8 C :   -0.074138
   9 C :   -0.038129
  10 H :    0.206929
  11 C :    0.208061
  12 H :    0.136141
  13 H :    0.138953
  14 C :   -0.083125
  15 C :   -0.034587
  16 C :   -0.097902
  17 C :   -0.084941
  18 H :    0.201608
  19 C :   -0.138389
  20 C :   -0.076877
  21 H :    0.180964
  22 C :   -0.126694
  23 C :   -0.030674
  24 H :    0.171437
  25 C :   -0.035209
  26 H :    0.135661
  27 C :   -0.114020
  28 C :   -0.114059
  29 N :   -0.161734
  30 H :    0.147665
  31 C :   -0.220436
  32 N :   -0.153196
  33 H :    0.148191
  34 C :   -0.220194
  35 H :    0.168527
  36 C :   -0.418595
  37 C :   -0.418258
  38 C :   -0.420486
  39 O :   -0.469706
  40 C :   -0.113684
  41 C :   -0.114317
  42 N :   -0.152745
  43 H :    0.147509
  44 C :   -0.220318
  45 N :   -0.161886
  46 H :    0.147351
  47 C :   -0.220794
  48 H :    0.170717
  49 C :   -0.418527
  50 H :    0.168430
  51 C :   -0.418820
  52 C :   -0.119988
  53 C :   -0.114685
  54 N :   -0.358752
  55 H :    0.150308
  56 C :   -0.234499
  57 C :   -0.220724
  58 H :    0.159961
  59 C :   -0.417693
  60 H :    0.153178
  61 C :   -0.420037
  62 H :    0.135352
  63 H :    0.149544
  64 C :   -0.420811
  65 H :    0.170396
  66 C :   -0.420639
  67 C :   -0.420711
  68 C :   -0.423758
  69 C :   -0.419028
  70 H :    0.154119
  71 H :    0.160841
  72 H :    0.151222
  73 H :    0.153433
  74 H :    0.150346
  75 H :    0.156758
  76 H :    0.150720
  77 H :    0.153511
  78 H :    0.161909
  79 H :    0.153306
  80 H :    0.151173
  81 H :    0.156835
  82 H :    0.149229
  83 H :    0.154757
  84 H :    0.154275
  85 H :    0.154356
  86 H :    0.153738
  87 H :    0.156391
  88 H :    0.154270
  89 H :    0.149161
  90 H :    0.157138
  91 H :    0.159655
  92 H :    0.155318
  93 H :    0.151859
  94 H :    0.156560
  95 H :    0.153196
  96 H :    0.150965
  97 H :    0.156618
  98 H :    0.153419
  99 H :    0.149349
 100 H :    0.153396
 101 H :    0.162483
 102 H :    0.150734
 103 H :    0.150545
 104 H :    0.154102
 105 H :    0.160970
 106 H :    0.263242
 107 N :   -0.335302
 108 H :    0.156757
 109 H :    0.142995
 110 H :    0.270821

  Mayer bond orders larger than 0.100000
B(  0-C ,  1-C ) :   0.9597 B(  0-C ,  2-C ) :   1.0672 B(  0-C ,  3-C ) :   0.1498
B(  0-C ,  6-C ) :   0.2308 B(  0-C ,  8-C ) :   1.1803 B(  0-C , 32-N ) :  -0.1573
B(  1-C , 13-H ) :   0.9037 B(  1-C , 32-N ) :   1.9079 B(  2-C ,  3-C ) :   1.2509
B(  2-C ,  4-H ) :   0.9192 B(  3-C ,  5-C ) :   1.2645 B(  3-C ,  6-C ) :   0.1384
B(  3-C , 11-C ) :   0.8841 B(  3-C , 39-O ) :  -0.1683 B(  3-C , 63-H ) :  -0.1019
B(  5-C ,  6-C ) :   1.2567 B(  5-C ,  7-H ) :   0.8688 B(  6-C ,  8-C ) :   1.2383
B(  6-C ,  9-C ) :   0.9359 B(  6-C , 42-N ) :  -0.1652 B(  8-C , 10-H ) :   0.8967
B(  8-C , 32-N ) :   0.1056 B(  8-C , 42-N ) :   0.1129 B(  9-C , 12-H ) :   0.9098
B(  9-C , 42-N ) :   1.9142 B( 11-C , 39-O ) :   2.0743 B( 11-C , 63-H ) :   0.9585
B( 14-C , 15-C ) :   0.9331 B( 14-C , 16-C ) :   1.2183 B( 14-C , 17-C ) :   0.2149
B( 14-C , 20-C ) :   0.1632 B( 14-C , 22-C ) :   1.1550 B( 14-C , 29-N ) :  -0.1648
B( 15-C , 29-N ) :   1.9057 B( 15-C , 62-H ) :   0.9065 B( 16-C , 17-C ) :   1.2252
B( 16-C , 18-H ) :   0.8993 B( 16-C , 29-N ) :   0.1139 B( 16-C , 45-N ) :   0.1076
B( 17-C , 19-C ) :   1.0273 B( 17-C , 20-C ) :   0.1469 B( 17-C , 25-C ) :   0.9252
B( 17-C , 45-N ) :  -0.1617 B( 19-C , 20-C ) :   1.3677 B( 19-C , 21-H ) :   0.9140
B( 20-C , 22-C ) :   1.3096 B( 20-C , 23-C ) :   0.6704 B( 22-C , 24-H ) :   0.9185
B( 23-C , 54-N ) :   0.9755 B( 23-C ,107-N ) :   1.2225 B( 23-C ,109-H ) :   0.9592
B( 25-C , 26-H ) :   0.9079 B( 25-C , 45-N ) :   1.9001 B( 27-C , 28-C ) :   0.8252
B( 27-C , 29-N ) :   0.9344 B( 27-C , 30-H ) :   0.9333 B( 27-C , 31-C ) :   0.8669
B( 28-C , 32-N ) :   0.9268 B( 28-C , 33-H ) :   0.9345 B( 28-C , 34-C ) :   0.8654
B( 31-C , 35-H ) :   0.9763 B( 31-C , 36-C ) :   0.9448 B( 31-C , 64-C ) :   0.9584
B( 34-C , 37-C ) :   0.9453 B( 34-C , 38-C ) :   0.9568 B( 34-C , 65-H ) :   0.9761
B( 36-C , 73-H ) :   0.9566 B( 36-C , 74-H ) :   0.9642 B( 36-C , 75-H ) :   0.9558
B( 37-C , 79-H ) :   0.9567 B( 37-C , 80-H ) :   0.9636 B( 37-C , 81-H ) :   0.9555
B( 38-C , 70-H ) :   0.9556 B( 38-C , 71-H ) :   0.9619 B( 38-C , 72-H ) :   0.9637
B( 40-C , 41-C ) :   0.8258 B( 40-C , 42-N ) :   0.9344 B( 40-C , 43-H ) :   0.9356
B( 40-C , 44-C ) :   0.8621 B( 41-C , 45-N ) :   0.9243 B( 41-C , 46-H ) :   0.9313
B( 41-C , 47-C ) :   0.8693 B( 44-C , 48-H ) :   0.9765 B( 44-C , 49-C ) :   0.9444
B( 44-C , 66-C ) :   0.9567 B( 47-C , 50-H ) :   0.9768 B( 47-C , 51-C ) :   0.9436
B( 47-C , 67-C ) :   0.9593 B( 49-C , 94-H ) :   0.9556 B( 49-C , 95-H ) :   0.9565
B( 49-C , 96-H ) :   0.9642 B( 51-C , 97-H ) :   0.9562 B( 51-C , 98-H ) :   0.9567
B( 51-C , 99-H ) :   0.9649 B( 52-C , 53-C ) :   0.7448 B( 52-C , 54-N ) :   0.9987
B( 52-C , 55-H ) :   0.9574 B( 52-C , 56-C ) :   0.8380 B( 52-C , 68-C ) :  -0.1322
B( 53-C , 57-C ) :   0.9551 B( 53-C ,107-N ) :   1.0770 B( 53-C ,108-H ) :   0.9384
B( 54-N ,106-H ) :   0.8558 B( 56-C , 58-H ) :   0.9482 B( 56-C , 59-C ) :   0.9893
B( 56-C , 68-C ) :   1.0267 B( 57-C , 60-H ) :   0.9455 B( 57-C , 61-C ) :   0.9673
B( 57-C , 69-C ) :   1.0047 B( 59-C , 82-H ) :   0.9539 B( 59-C , 83-H ) :   0.9580
B( 59-C , 84-H ) :   0.9604 B( 61-C , 85-H ) :   0.9626 B( 61-C , 86-H ) :   0.9531
B( 61-C , 87-H ) :   0.9559 B( 64-C , 76-H ) :   0.9639 B( 64-C , 77-H ) :   0.9555
B( 64-C , 78-H ) :   0.9615 B( 66-C ,103-H ) :   0.9640 B( 66-C ,104-H ) :   0.9558
B( 66-C ,105-H ) :   0.9618 B( 67-C ,100-H ) :   0.9555 B( 67-C ,101-H ) :   0.9613
B( 67-C ,102-H ) :   0.9636 B( 68-C , 88-H ) :   0.9585 B( 68-C , 89-H ) :   0.9521
B( 68-C , 90-H ) :   0.9543 B( 69-C , 91-H ) :   0.9501 B( 69-C , 92-H ) :   0.9566
B( 69-C , 93-H ) :   0.9596 B(107-N ,110-H ) :   0.8239

Dispersion correction           -0.317679424
FINAL SINGLE POINT ENERGY     -2040.546016362839

DIPOLE MOMENT
-------------
                                X             Y             Z
Electronic contribution:    -48.43310     -29.35249       9.53172
Nuclear contribution   :     49.90268      30.97748     -10.19492
                        -----------------------------------------
Total Dipole Moment    :      1.46958       1.62499      -0.66320
                        -----------------------------------------
Magnitude (a.u.)       :      2.28913
Magnitude (Debye)      :      5.81849

Rotational constants in cm-1:     0.002775     0.000974     0.000838
Rotational constants in MHz :    83.188758    29.199011    25.115663

                             ****ORCA TERMINATED NORMALLY****
TOTAL RUN TIME: 0 days 1 hours 3 minutes 0 seconds 641 msec
