                         Program Version 4.2.1 -  RELEASE  -
|  1> ! RI-MP2 cc-pVTZ cc-pVTZ/C TIGHTSCF printbasis Grid6 NOFINALGRID SlowConv
|  2>
|  3> %base "_o_2_alde1_3_ami1_1_opt_MP2"
|  4> %maxcore 3000
|  5> %pal
|  6>    nprocs 32
|  7> end
|  8>
|  9> * xyzfile 0 1 _o_2_alde1_3_ami1_1_opt_B97-3c.xyz
| 10>
| 11>                          ****END OF INPUT****

CARTESIAN COORDINATES (ANGSTROEM)
---------------------------------
  C     -5.853104   -2.301022    0.031881
  C     -4.728560   -2.608339    0.927188
  C     -7.056258   -2.992414    0.106516
  C     -8.097564   -2.684103   -0.770786
  H     -7.207558   -3.779915    0.833759
  C     -7.934226   -1.677068   -1.719947
  C     -6.738163   -0.966502   -1.795080
  H     -8.749358   -1.444871   -2.397469
  C     -5.709093   -1.290851   -0.918042
  C     -6.536526    0.111541   -2.772515
  H     -4.777486   -0.748119   -0.974477
  C     -9.372331   -3.409675   -0.709351
  H     -7.333464    0.264711   -3.517011
  H     -4.912662   -3.353529    1.715483
  C     -0.200851    1.330362   -0.107390
  C     -0.521108    0.481508    1.046689
  C     -1.107488    1.402744   -1.158139
  C     -0.854570    2.203466   -2.263479
  H     -2.022956    0.834586   -1.109027
  C      0.324094    2.948185   -2.312924
  C      1.243741    2.886149   -1.273717
  H      0.537529    3.596568   -3.152964
  C      0.979070    2.073247   -0.175644
  C      2.539484    3.648410   -1.356568
  H      1.696938    2.023731    0.635743
  C     -1.837343    2.263816   -3.348908
  H     -1.639395    2.985292   -4.157102
  C     -2.031840   -0.922392    2.220326
  C     -2.485053   -2.279979    1.614941
  N     -1.660808   -0.062878    1.134107
  H     -1.195556   -1.122753    2.907343
  C     -3.144013   -0.239774    3.042004
  N     -3.615951   -2.028109    0.766912
  H     -2.726289   -2.959368    2.446156
  C     -1.379051   -2.952554    0.776995
  H     -3.967721   -0.042116    2.354015
  C     -3.648916   -1.127555    4.170667
  C     -0.108869   -3.173723    1.585386
  C     -1.869871   -4.269807    0.192510
  O     -9.635867   -4.304135    0.069381
  C     -5.218835    1.867024   -3.666464
  C     -3.860356    1.557321   -4.353148
  N     -5.485068    0.812617   -2.730143
  H     -5.988349    1.938822   -4.449824
  C     -5.207189    3.209159   -2.906737
  N     -2.856341    1.513186   -3.330469
  H     -3.672824    2.346408   -5.097412
  C     -3.861736    0.211855   -5.104775
  H     -4.448646    3.120878   -2.127698
  C     -4.845499    4.375163   -3.814823
  H     -4.039621   -0.565013   -4.359351
  C     -4.956855    0.143602   -6.158910
  C      3.822996    5.097192   -2.719311
  C      4.599884    3.786982   -2.419636
  N      2.464983    4.807143   -2.250420
  H      3.785432    5.241960   -3.804429
  C      4.461656    6.362020   -2.124336
  C      5.378474    3.223869   -3.604009
  H      5.510219    6.347740   -2.434820
  C      3.830845    7.617204   -2.714398
  H      4.649203    3.034953   -4.401731
  C      6.405038    4.214509   -4.135819
  H      0.264859    0.352978    1.807095
  H    -10.122235   -3.074933   -1.456762
  C     -2.659006    1.092892    3.595150
  H     -1.157341   -2.275557   -0.049283
  C     -6.549754    3.459360   -2.233600
  C     -2.501060   -0.042822   -5.738681
  C      4.434882    6.413113   -0.602763
  C      6.055995    1.905803   -3.250027
  H     -1.086327   -4.740080   -0.400411
  H     -2.732801   -4.129365   -0.453237
  H     -2.150181   -4.971023    0.981559
  H     -2.834484   -1.432580    4.829882
  H     -4.139010   -2.028850    3.810589
  H     -4.374949   -0.588144    4.777706
  H     -1.800736    0.954042    4.256288
  H     -3.444552    1.576591    4.174453
  H     -2.364482    1.774500    2.801635
  H     -0.307331   -3.761146    2.483406
  H      0.358619   -2.242075    1.893883
  H      0.623481   -3.720175    0.992660
  H      2.776027    7.700625   -2.447315
  H      3.893420    7.618776   -3.802457
  H      4.326082    8.516054   -2.348766
  H      7.136371    4.468679   -3.367378
  H      5.951119    5.140249   -4.483406
  H      6.950300    3.783147   -4.974207
  H      4.900839    5.541793   -0.147143
  H      3.416465    6.481715   -0.218931
  H      4.968589    7.292803   -0.246171
  H      5.349684    1.165247   -2.884037
  H      6.802542    2.056781   -2.468987
  H      6.566566    1.491237   -4.118832
  H     -4.921373    5.314451   -3.268869
  H     -5.521221    4.437536   -4.669295
  H     -3.830679    4.308113   -4.198086
  H     -4.879521   -0.785418   -6.722428
  H     -4.871916    0.966000   -6.871097
  H     -5.955730    0.177834   -5.730505
  H     -2.494672   -0.995647   -6.266576
  H     -1.709699   -0.070471   -4.994409
  H     -2.254703    0.737030   -6.462740
  H     -7.356044    3.511492   -2.968668
  H     -6.536496    4.405874   -1.694462
  H     -6.795829    2.677275   -1.520000
  H      2.030840    5.603423   -1.803863
  N      3.604281    2.831021   -1.917531
  H      5.313922    3.977143   -1.612474
  H      2.844905    3.932194   -0.340178
  H      3.207586    2.332011   -2.708644

 Total Charge           Charge          ....    0
 Multiplicity           Mult            ....    1
 Number of Electrons    NEL             ....  364
 Basis Dimension        Dim             .... 2338

ORBITAL ENERGIES
----------------

  NO   OCC          E(Eh)            E(eV)
   0   2.0000     -20.549828      -559.1892
   1   2.0000     -15.548515      -423.0966
   2   2.0000     -15.547084      -423.0577
   3   2.0000     -15.541208      -422.8978
   4   2.0000     -15.541016      -422.8925
   5   2.0000     -15.540662      -422.8829
   6   2.0000     -15.539132      -422.8413
   7   2.0000     -11.331290      -308.3401
   8   2.0000     -11.283368      -307.0361
   9   2.0000     -11.279728      -306.9370
  10   2.0000     -11.277313      -306.8713
  11   2.0000     -11.272795      -306.7483
  12   2.0000     -11.271908      -306.7242
  13   2.0000     -11.261207      -306.4330
  14   2.0000     -11.254718      -306.2564
  15   2.0000     -11.251413      -306.1665
  16   2.0000     -11.249697      -306.1198
  17   2.0000     -11.249441      -306.1129
  18   2.0000     -11.249378      -306.1111
  19   2.0000     -11.248803      -306.0955
  20   2.0000     -11.248665      -306.0917
  21   2.0000     -11.247666      -306.0646
  22   2.0000     -11.247467      -306.0591
  23   2.0000     -11.246575      -306.0349
  24   2.0000     -11.242550      -305.9253
  25   2.0000     -11.237655      -305.7921
  26   2.0000     -11.233983      -305.6922
  27   2.0000     -11.233686      -305.6841
  28   2.0000     -11.232530      -305.6527
  29   2.0000     -11.231235      -305.6174
  30   2.0000     -11.230086      -305.5862
  31   2.0000     -11.229644      -305.5742
  32   2.0000     -11.221070      -305.3408
  33   2.0000     -11.218050      -305.2587
  34   2.0000     -11.217338      -305.2393
  35   2.0000     -11.217076      -305.2322
  36   2.0000     -11.216998      -305.2300
  37   2.0000     -11.216357      -305.2126
  38   2.0000     -11.216116      -305.2060
  39   2.0000     -11.215249      -305.1824
  40   2.0000     -11.208537      -304.9998
  41   2.0000     -11.208123      -304.9885
  42   2.0000     -11.207939      -304.9835
  43   2.0000     -11.206644      -304.9483
  44   2.0000     -11.206077      -304.9329
  45   2.0000     -11.202902      -304.8465
  46   2.0000     -11.201206      -304.8003
  47   2.0000     -11.200561      -304.7828
  48   2.0000     -11.200514      -304.7815
  49   2.0000      -1.384531       -37.6750
  50   2.0000      -1.276969       -34.7481
  51   2.0000      -1.252386       -34.0792
  52   2.0000      -1.249437       -33.9989
  53   2.0000      -1.228477       -33.4286
  54   2.0000      -1.223125       -33.2829
  55   2.0000      -1.173778       -31.9401
  56   2.0000      -1.157064       -31.4853
  57   2.0000      -1.149728       -31.2857
  58   2.0000      -1.101500       -29.9733
  59   2.0000      -1.098307       -29.8865
  60   2.0000      -1.088030       -29.6068
  61   2.0000      -1.073758       -29.2184
  62   2.0000      -1.070909       -29.1409
  63   2.0000      -1.064894       -28.9772
  64   2.0000      -1.050017       -28.5724
  65   2.0000      -1.046964       -28.4893
  66   2.0000      -1.035648       -28.1814
  67   2.0000      -1.033127       -28.1128
  68   2.0000      -0.977555       -26.6006
  69   2.0000      -0.972832       -26.4721
  70   2.0000      -0.962090       -26.1798
  71   2.0000      -0.940074       -25.5807
  72   2.0000      -0.933711       -25.4076
  73   2.0000      -0.929244       -25.2860
  74   2.0000      -0.927933       -25.2503
  75   2.0000      -0.927259       -25.2320
  76   2.0000      -0.926349       -25.2072
  77   2.0000      -0.906295       -24.6615
  78   2.0000      -0.902083       -24.5469
  79   2.0000      -0.894783       -24.3483
  80   2.0000      -0.872512       -23.7422
  81   2.0000      -0.858020       -23.3479
  82   2.0000      -0.854371       -23.2486
  83   2.0000      -0.843848       -22.9623
  84   2.0000      -0.835364       -22.7314
  85   2.0000      -0.829996       -22.5853
  86   2.0000      -0.788238       -21.4491
  87   2.0000      -0.776449       -21.1283
  88   2.0000      -0.772448       -21.0194
  89   2.0000      -0.771255       -20.9869
  90   2.0000      -0.769015       -20.9260
  91   2.0000      -0.764764       -20.8103
  92   2.0000      -0.763131       -20.7658
  93   2.0000      -0.754880       -20.5413
  94   2.0000      -0.748459       -20.3666
  95   2.0000      -0.728173       -19.8146
  96   2.0000      -0.709500       -19.3065
  97   2.0000      -0.699622       -19.0377
  98   2.0000      -0.694758       -18.9053
  99   2.0000      -0.687919       -18.7192
 100   2.0000      -0.674985       -18.3673
 101   2.0000      -0.666058       -18.1244
 102   2.0000      -0.660618       -17.9763
 103   2.0000      -0.653095       -17.7716
 104   2.0000      -0.649088       -17.6626
 105   2.0000      -0.642644       -17.4872
 106   2.0000      -0.639674       -17.4064
 107   2.0000      -0.634836       -17.2748
 108   2.0000      -0.631519       -17.1845
 109   2.0000      -0.627957       -17.0876
 110   2.0000      -0.625856       -17.0304
 111   2.0000      -0.619795       -16.8655
 112   2.0000      -0.615440       -16.7470
 113   2.0000      -0.614819       -16.7301
 114   2.0000      -0.609061       -16.5734
 115   2.0000      -0.608024       -16.5452
 116   2.0000      -0.602226       -16.3874
 117   2.0000      -0.598692       -16.2912
 118   2.0000      -0.592725       -16.1289
 119   2.0000      -0.591044       -16.0831
 120   2.0000      -0.589636       -16.0448
 121   2.0000      -0.586502       -15.9595
 122   2.0000      -0.579434       -15.7672
 123   2.0000      -0.569915       -15.5082
 124   2.0000      -0.567667       -15.4470
 125   2.0000      -0.564228       -15.3534
 126   2.0000      -0.560493       -15.2518
 127   2.0000      -0.557388       -15.1673
 128   2.0000      -0.555010       -15.1026
 129   2.0000      -0.553783       -15.0692
 130   2.0000      -0.549314       -14.9476
 131   2.0000      -0.547675       -14.9030
 132   2.0000      -0.544415       -14.8143
 133   2.0000      -0.539463       -14.6795
 134   2.0000      -0.536239       -14.5918
 135   2.0000      -0.533480       -14.5167
 136   2.0000      -0.532324       -14.4853
 137   2.0000      -0.530744       -14.4423
 138   2.0000      -0.529133       -14.3984
 139   2.0000      -0.526844       -14.3361
 140   2.0000      -0.525834       -14.3087
 141   2.0000      -0.525028       -14.2867
 142   2.0000      -0.522313       -14.2129
 143   2.0000      -0.518236       -14.1019
 144   2.0000      -0.516649       -14.0587
 145   2.0000      -0.512694       -13.9511
 146   2.0000      -0.510300       -13.8860
 147   2.0000      -0.503903       -13.7119
 148   2.0000      -0.502644       -13.6776
 149   2.0000      -0.496262       -13.5040
 150   2.0000      -0.493359       -13.4250
 151   2.0000      -0.488808       -13.3011
 152   2.0000      -0.481256       -13.0956
 153   2.0000      -0.480773       -13.0825
 154   2.0000      -0.478007       -13.0072
 155   2.0000      -0.475393       -12.9361
 156   2.0000      -0.473869       -12.8946
 157   2.0000      -0.470273       -12.7968
 158   2.0000      -0.468528       -12.7493
 159   2.0000      -0.465682       -12.6719
 160   2.0000      -0.465411       -12.6645
 161   2.0000      -0.463633       -12.6161
 162   2.0000      -0.463430       -12.6106
 163   2.0000      -0.459014       -12.4904
 164   2.0000      -0.453827       -12.3493
 165   2.0000      -0.444418       -12.0932
 166   2.0000      -0.443889       -12.0788
 167   2.0000      -0.440418       -11.9844
 168   2.0000      -0.426118       -11.5953
 169   2.0000      -0.421220       -11.4620
 170   2.0000      -0.419774       -11.4226
 171   2.0000      -0.411935       -11.2093
 172   2.0000      -0.407809       -11.0971
 173   2.0000      -0.393408       -10.7052
 174   2.0000      -0.385490       -10.4897
 175   2.0000      -0.380094       -10.3429
 176   2.0000      -0.378884       -10.3100
 177   2.0000      -0.368503       -10.0275
 178   2.0000      -0.332459        -9.0467
 179   2.0000      -0.328697        -8.9443
 180   2.0000      -0.314850        -8.5675
 181   2.0000      -0.313412        -8.5284
 182   0.0000       0.061657         1.6778
 183   0.0000       0.081319         2.2128
 184   0.0000       0.090884         2.4731
 185   0.0000       0.094796         2.5795
 186   0.0000       0.129516         3.5243

MULLIKEN ATOMIC CHARGES
-----------------------
   0 C :    0.172290
   1 C :   -0.151206
   2 C :   -0.206852
   3 C :    0.076517
   4 H :    0.172184
   5 C :   -0.225943
   6 C :    0.176264
   7 H :    0.144618
   8 C :   -0.171055
   9 C :   -0.158207
  10 H :    0.246839
  11 C :    0.169647
  12 H :    0.098408
  13 H :    0.105437
  14 C :    0.197273
  15 C :   -0.152505
  16 C :   -0.212582
  17 C :    0.186755
  18 H :    0.236152
  19 C :   -0.240235
  20 C :    0.082530
  21 H :    0.160840
  22 C :   -0.256023
  23 C :    0.066737
  24 H :    0.137375
  25 C :   -0.152640
  26 H :    0.098756
  27 C :    0.020972
  28 C :    0.019443
  29 N :   -0.228651
  30 H :    0.105653
  31 C :   -0.056800
  32 N :   -0.226451
  33 H :    0.108226
  34 C :   -0.058444
  35 H :    0.126355
  36 C :   -0.332809
  37 C :   -0.332844
  38 C :   -0.331820
  39 O :   -0.367607
  40 C :    0.020836
  41 C :    0.021348
  42 N :   -0.222290
  43 H :    0.106330
  44 C :   -0.058738
  45 N :   -0.228933
  46 H :    0.105437
  47 C :   -0.056598
  48 H :    0.131399
  49 C :   -0.333009
  50 H :    0.126499
  51 C :   -0.332474
  52 C :   -0.030493
  53 C :    0.010270
  54 N :   -0.297320
  55 H :    0.112916
  56 C :   -0.069791
  57 C :   -0.060235
  58 H :    0.112662
  59 C :   -0.306436
  60 H :    0.099282
  61 C :   -0.339063
  62 H :    0.100165
  63 H :    0.084492
  64 C :   -0.332691
  65 H :    0.130623
  66 C :   -0.332200
  67 C :   -0.332396
  68 C :   -0.343403
  69 C :   -0.298249
  70 H :    0.104644
  71 H :    0.114087
  72 H :    0.083171
  73 H :    0.091052
  74 H :    0.100965
  75 H :    0.108906
  76 H :    0.081678
  77 H :    0.104089
  78 H :    0.116138
  79 H :    0.090763
  80 H :    0.101516
  81 H :    0.108746
  82 H :    0.087448
  83 H :    0.101107
  84 H :    0.104071
  85 H :    0.094196
  86 H :    0.103641
  87 H :    0.115661
  88 H :    0.110701
  89 H :    0.088359
  90 H :    0.119942
  91 H :    0.113624
  92 H :    0.087164
  93 H :    0.097154
  94 H :    0.108273
  95 H :    0.090562
  96 H :    0.101812
  97 H :    0.108944
  98 H :    0.091229
  99 H :    0.098088
 100 H :    0.104116
 101 H :    0.117151
 102 H :    0.081522
 103 H :    0.081358
 104 H :    0.105026
 105 H :    0.114534
 106 H :    0.109746
 107 N :   -0.286783
 108 H :    0.109782
 109 H :    0.094742
 110 H :    0.106536
Sum of atomic charges:   -0.0000000

LOEWDIN ATOMIC CHARGES
----------------------
   0 C :   -0.073559
   1 C :   -0.071836
   2 C :    0.096261
   3 C :   -0.099097
   4 H :   -0.013361
   5 C :    0.073815
   6 C :   -0.077347
   7 H :   -0.020294
   8 C :    0.130459
   9 C :   -0.074913
  10 H :   -0.011626
  11 C :   -0.153643
  12 H :   -0.040082
  13 H :   -0.038067
  14 C :   -0.076757
  15 C :   -0.070011
  16 C :    0.102498
  17 C :   -0.079458
  18 H :   -0.018093
  19 C :    0.058958
  20 C :   -0.052735
  21 H :   -0.029636
  22 C :    0.063735
  23 C :   -0.161222
  24 H :   -0.022001
  25 C :   -0.070751
  26 H :   -0.039378
  27 C :   -0.102225
  28 C :   -0.099554
  29 N :    0.262455
  30 H :   -0.032463
  31 C :   -0.023171
  32 N :    0.266686
  33 H :   -0.032286
  34 C :   -0.022953
  35 H :   -0.022327
  36 C :    0.115068
  37 C :    0.115435
  38 C :    0.113322
  39 O :    0.134165
  40 C :   -0.099904
  41 C :   -0.103074
  42 N :    0.268321
  43 H :   -0.032887
  44 C :   -0.022671
  45 N :    0.261216
  46 H :   -0.032356
  47 C :   -0.023578
  48 H :   -0.020864
  49 C :    0.115311
  50 H :   -0.022159
  51 C :    0.114438
  52 C :   -0.068694
  53 C :   -0.066480
  54 N :    0.328538
  55 H :   -0.030407
  56 C :   -0.030403
  57 C :   -0.030518
  58 H :   -0.019719
  59 C :    0.116182
  60 H :   -0.023685
  61 C :    0.117408
  62 H :   -0.040086
  63 H :   -0.036666
  64 C :    0.113230
  65 H :   -0.021125
  66 C :    0.113068
  67 C :    0.113695
  68 C :    0.113901
  69 C :    0.119478
  70 H :   -0.028897
  71 H :   -0.031765
  72 H :   -0.032358
  73 H :   -0.030103
  74 H :   -0.036574
  75 H :   -0.026378
  76 H :   -0.032687
  77 H :   -0.029438
  78 H :   -0.031200
  79 H :   -0.030267
  80 H :   -0.036245
  81 H :   -0.026402
  82 H :   -0.031973
  83 H :   -0.028337
  84 H :   -0.027979
  85 H :   -0.029136
  86 H :   -0.032686
  87 H :   -0.025794
  88 H :   -0.033061
  89 H :   -0.033650
  90 H :   -0.025917
  91 H :   -0.029196
  92 H :   -0.027867
  93 H :   -0.029874
  94 H :   -0.026599
  95 H :   -0.030387
  96 H :   -0.036345
  97 H :   -0.026477
  98 H :   -0.030039
  99 H :   -0.037373
 100 H :   -0.029596
 101 H :   -0.030810
 102 H :   -0.032650
 103 H :   -0.032985
 104 H :   -0.028842
 105 H :   -0.031728
 106 H :   -0.121576
 107 N :    0.315223
 108 H :   -0.026349
 109 H :   -0.033073
 110 H :   -0.106134

  Mayer bond orders larger than 0.100000
B(  0-C ,  1-C ) :   1.0028 B(  0-C ,  2-C ) :   1.3551 B(  0-C ,  8-C ) :   1.3136
B(  1-C , 13-H ) :   0.9856 B(  1-C , 32-N ) :   1.9356 B(  2-C ,  3-C ) :   1.3181
B(  2-C ,  4-H ) :   0.9636 B(  3-C ,  5-C ) :   1.3557 B(  3-C , 11-C ) :   0.9300
B(  5-C ,  6-C ) :   1.3406 B(  5-C ,  7-H ) :   0.9729 B(  6-C ,  8-C ) :   1.3511
B(  6-C ,  9-C ) :   0.9936 B(  8-C , 10-H ) :   0.9169 B(  9-C , 12-H ) :   0.9878
B(  9-C , 42-N ) :   1.9379 B( 11-C , 39-O ) :   2.0866 B( 11-C , 63-H ) :   1.0232
B( 14-C , 15-C ) :   0.9933 B( 14-C , 16-C ) :   1.3390 B( 14-C , 22-C ) :   1.3474
B( 15-C , 29-N ) :   1.9351 B( 15-C , 62-H ) :   0.9854 B( 16-C , 17-C ) :   1.3443
B( 16-C , 18-H ) :   0.9227 B( 17-C , 19-C ) :   1.3350 B( 17-C , 25-C ) :   1.0031
B( 19-C , 20-C ) :   1.3542 B( 19-C , 21-H ) :   0.9534 B( 20-C , 22-C ) :   1.4080
B( 20-C , 23-C ) :   1.0440 B( 22-C , 24-H ) :   0.9743 B( 23-C , 54-N ) :   0.9930
B( 23-C ,107-N ) :   1.0268 B( 23-C ,109-H ) :   0.9816 B( 25-C , 26-H ) :   0.9857
B( 25-C , 45-N ) :   1.9315 B( 27-C , 28-C ) :   0.9596 B( 27-C , 29-N ) :   0.9492
B( 27-C , 30-H ) :   0.9760 B( 27-C , 31-C ) :   0.9600 B( 28-C , 32-N ) :   0.9446
B( 28-C , 33-H ) :   0.9772 B( 28-C , 34-C ) :   0.9606 B( 31-C , 35-H ) :   0.9709
B( 31-C , 36-C ) :   0.9396 B( 31-C , 64-C ) :   0.9472 B( 34-C , 37-C ) :   0.9400
B( 34-C , 38-C ) :   0.9467 B( 34-C , 65-H ) :   0.9698 B( 36-C , 73-H ) :   0.9794
B( 36-C , 74-H ) :   0.9841 B( 36-C , 75-H ) :   0.9883 B( 37-C , 79-H ) :   0.9795
B( 37-C , 80-H ) :   0.9839 B( 37-C , 81-H ) :   0.9884 B( 38-C , 70-H ) :   0.9895
B( 38-C , 71-H ) :   0.9847 B( 38-C , 72-H ) :   0.9807 B( 40-C , 41-C ) :   0.9600
B( 40-C , 42-N ) :   0.9436 B( 40-C , 43-H ) :   0.9772 B( 40-C , 44-C ) :   0.9605
B( 41-C , 45-N ) :   0.9483 B( 41-C , 46-H ) :   0.9760 B( 41-C , 47-C ) :   0.9607
B( 44-C , 48-H ) :   0.9696 B( 44-C , 49-C ) :   0.9400 B( 44-C , 66-C ) :   0.9466
B( 47-C , 50-H ) :   0.9711 B( 47-C , 51-C ) :   0.9393 B( 47-C , 67-C ) :   0.9479
B( 49-C , 94-H ) :   0.9885 B( 49-C , 95-H ) :   0.9796 B( 49-C , 96-H ) :   0.9839
B( 51-C , 97-H ) :   0.9885 B( 51-C , 98-H ) :   0.9794 B( 51-C , 99-H ) :   0.9846
B( 52-C , 53-C ) :   0.9619 B( 52-C , 54-N ) :   1.0280 B( 52-C , 55-H ) :   0.9869
B( 52-C , 56-C ) :   0.9400 B( 53-C , 57-C ) :   0.9723 B( 53-C ,107-N ) :   1.0044
B( 53-C ,108-H ) :   0.9668 B( 54-N ,106-H ) :   0.9931 B( 56-C , 58-H ) :   0.9759
B( 56-C , 59-C ) :   0.9596 B( 56-C , 68-C ) :   0.9409 B( 57-C , 60-H ) :   0.9752
B( 57-C , 61-C ) :   0.9459 B( 57-C , 69-C ) :   0.9671 B( 59-C , 82-H ) :   0.9788
B( 59-C , 83-H ) :   0.9860 B( 59-C , 84-H ) :   0.9865 B( 61-C , 85-H ) :   0.9788
B( 61-C , 86-H ) :   0.9838 B( 61-C , 87-H ) :   0.9865 B( 64-C , 76-H ) :   0.9810
B( 64-C , 77-H ) :   0.9896 B( 64-C , 78-H ) :   0.9843 B( 66-C ,103-H ) :   0.9809
B( 66-C ,104-H ) :   0.9896 B( 66-C ,105-H ) :   0.9846 B( 67-C ,100-H ) :   0.9894
B( 67-C ,101-H ) :   0.9840 B( 67-C ,102-H ) :   0.9809 B( 68-C , 88-H ) :   0.9837
B( 68-C , 89-H ) :   0.9770 B( 68-C , 90-H ) :   0.9842 B( 69-C , 91-H ) :   0.9788
B( 69-C , 92-H ) :   0.9795 B( 69-C , 93-H ) :   0.9878 B(107-N ,110-H ) :   0.9864

MP2 TOTAL ENERGY:    -2037.214419507 Eh
FINAL SINGLE POINT ENERGY     -2037.214419506820

DIPOLE MOMENT
-------------
                                X             Y             Z
Electronic contribution:    -48.54941     -29.27057       9.44303
Nuclear contribution   :     49.90268      30.97748     -10.19492
                        -----------------------------------------
Total Dipole Moment    :      1.35327       1.70691      -0.75189
                        -----------------------------------------
Magnitude (a.u.)       :      2.30439
Magnitude (Debye)      :      5.85729

Rotational constants in cm-1:     0.002775     0.000974     0.000838
Rotational constants in MHz :    83.188758    29.199011    25.115663

                             ****ORCA TERMINATED NORMALLY****
TOTAL RUN TIME: 0 days 2 hours 8 minutes 40 seconds 948 msec
