                         Program Version 4.2.1 -  RELEASE  -
|  1> ! RI-MP2 cc-pVTZ cc-pVTZ/C TIGHTSCF printbasis Grid6 NOFINALGRID SlowConv
|  2>
|  3> %base "_o_2_alde1_4_ami2_1_opt_MP2"
|  4> %maxcore 3000
|  5> %pal
|  6>    nprocs 32
|  7> end
|  8>
|  9> * xyzfile 0 1 _o_2_alde1_4_ami2_1_opt_B97-3c.xyz
| 10>
| 11>                          ****END OF INPUT****

CARTESIAN COORDINATES (ANGSTROEM)
---------------------------------
  C     -2.982933   -2.707952   -1.407406
  C     -2.269194   -2.713436   -0.126811
  C     -2.887916   -3.774811   -2.303628
  C     -3.564544   -3.739258   -3.515569
  H     -2.323800   -4.663802   -2.051824
  C     -4.303732   -2.609746   -3.849631
  C     -4.368835   -1.517056   -2.986599
  H     -4.810118   -2.570239   -4.807839
  C     -3.720934   -1.585278   -1.756514
  C     -5.070107   -0.291263   -3.375317
  H     -3.769406   -0.747008   -1.079186
  C     -3.448871   -4.874001   -4.497792
  H     -5.704483   -0.348347   -4.274656
  H     -1.315509   -3.264465   -0.099535
  C     -0.404284    1.941715    0.150983
  C     -0.604472    1.094328    1.331534
  C     -1.433480    2.153250   -0.764200
  C     -1.201574    2.876926   -1.926975
  H     -2.406195    1.719590   -0.589185
  C      0.074068    3.388101   -2.179305
  C      1.094754    3.227623   -1.253905
  H      0.288425    3.914700   -3.100602
  C      0.846210    2.507954   -0.090690
  C      2.441197    3.868606   -1.457484
  H      1.647305    2.363976    0.626231
  C     -2.268332    3.022729   -2.923980
  H     -1.921449    3.058367   -3.963610
  C     -1.878451   -0.503115    2.586313
  C     -1.886453   -1.955758    2.048505
  N     -1.630427    0.359626    1.441473
  N     -2.702795   -2.066346    0.872454
  C     -2.090048   -6.038347   -5.921800
  C     -2.431587   -7.028072   -4.779894
  N     -2.315603   -4.696584   -5.397137
  N     -3.222967   -6.179279   -3.859506
  C     -5.577273    1.990987   -3.100399
  C     -4.551464    3.047028   -3.594136
  N     -4.926408    0.776789   -2.708687
  N     -3.491056    3.055299   -2.592609
  C      3.592585    5.848663   -1.513668
  C      3.563595    5.352737   -2.978560
  N      2.492135    5.183311   -0.829790
  N      2.786179    4.095625   -2.871129
  H      0.199867    1.135214    2.077661
  H      1.619143    5.658455   -1.031421
  H      3.199447    3.245687   -0.961841
  H      3.300389    3.311453   -3.247565
  H     -4.095875   -6.620320   -3.603605
  H     -1.520270   -4.408830   -4.836857
  H     -4.352236   -4.882711   -5.125193
  H      3.504866    6.929188   -1.426603
  H      4.530256    5.551331   -1.038683
  H     -1.070670   -6.144613   -6.285169
  H     -2.762263   -6.199379   -6.767225
  H     -2.307323   -2.590969    2.832586
  H     -0.849667   -2.280736    1.877929
  H     -6.340417    1.850956   -3.880477
  H     -6.064604    2.398483   -2.213772
  C      2.809067    6.331823   -3.870985
  H      1.821488    6.537938   -3.460242
  H      2.666992    5.910414   -4.864605
  H      3.344461    7.276955   -3.971512
  C      4.961685    5.107400   -3.523834
  H      5.539321    6.030938   -3.553206
  H      4.926713    4.714750   -4.540434
  H      5.504072    4.395541   -2.901162
  C     -3.232888   -8.219840   -5.282743
  H     -2.660602   -8.806135   -6.001428
  H     -4.150348   -7.893842   -5.773101
  H     -3.502891   -8.886861   -4.463314
  C     -1.170664   -7.498763   -4.063919
  H     -0.556863   -8.131004   -4.706959
  H     -1.427308   -8.066241   -3.170829
  H     -0.572466   -6.645347   -3.747023
  C     -3.275787   -0.135546    3.085026
  H     -3.296097    0.901133    3.417583
  H     -3.566023   -0.770868    3.921770
  H     -3.997065   -0.255799    2.282887
  C     -0.872751   -0.416250    3.728104
  H      0.134644   -0.685834    3.411633
  H     -1.157177   -1.096390    4.529294
  H     -0.841328    0.588728    4.147375
  C     -5.227103    4.415979   -3.563176
  H     -6.136776    4.412700   -4.162975
  H     -4.558607    5.177827   -3.960996
  H     -5.482772    4.688409   -2.541790
  C     -4.121621    2.707427   -5.017380
  H     -4.993421    2.670102   -5.668492
  H     -3.624935    1.739793   -5.063450
  H     -3.446583    3.456351   -5.428375

 Total Charge           Charge          ....    0
 Multiplicity           Mult            ....    1
 Number of Electrons    NEL             ....  308
 Basis Dimension        Dim             .... 1932

ORBITAL ENERGIES
----------------

  NO   OCC          E(Eh)            E(eV)
   0   2.0000     -15.542963      -422.9455
   1   2.0000     -15.541627      -422.9092
   2   2.0000     -15.540563      -422.8802
   3   2.0000     -15.539871      -422.8614
   4   2.0000     -15.537446      -422.7954
   5   2.0000     -15.537053      -422.7847
   6   2.0000     -15.536388      -422.7666
   7   2.0000     -15.535876      -422.7527
   8   2.0000     -11.283188      -307.0312
   9   2.0000     -11.282264      -307.0060
  10   2.0000     -11.268551      -306.6329
  11   2.0000     -11.265184      -306.5412
  12   2.0000     -11.264760      -306.5297
  13   2.0000     -11.261206      -306.4330
  14   2.0000     -11.260360      -306.4100
  15   2.0000     -11.259507      -306.3868
  16   2.0000     -11.255992      -306.2911
  17   2.0000     -11.253767      -306.2306
  18   2.0000     -11.245271      -305.9994
  19   2.0000     -11.244010      -305.9651
  20   2.0000     -11.240852      -305.8791
  21   2.0000     -11.238050      -305.8029
  22   2.0000     -11.232528      -305.6526
  23   2.0000     -11.230027      -305.5846
  24   2.0000     -11.229910      -305.5814
  25   2.0000     -11.229574      -305.5722
  26   2.0000     -11.229025      -305.5573
  27   2.0000     -11.227959      -305.5283
  28   2.0000     -11.227608      -305.5187
  29   2.0000     -11.227563      -305.5175
  30   2.0000     -11.226979      -305.5016
  31   2.0000     -11.225032      -305.4487
  32   2.0000     -11.218697      -305.2763
  33   2.0000     -11.218406      -305.2684
  34   2.0000     -11.218225      -305.2634
  35   2.0000     -11.217694      -305.2490
  36   2.0000     -11.209711      -305.0317
  37   2.0000     -11.208600      -305.0015
  38   2.0000     -11.208427      -304.9968
  39   2.0000     -11.206964      -304.9570
  40   2.0000     -11.204673      -304.8947
  41   2.0000     -11.192327      -304.5587
  42   2.0000      -1.274911       -34.6921
  43   2.0000      -1.273522       -34.6543
  44   2.0000      -1.240313       -33.7506
  45   2.0000      -1.238191       -33.6929
  46   2.0000      -1.215621       -33.0787
  47   2.0000      -1.210726       -32.9455
  48   2.0000      -1.155441       -31.4412
  49   2.0000      -1.149485       -31.2791
  50   2.0000      -1.143705       -31.1218
  51   2.0000      -1.142813       -31.0975
  52   2.0000      -1.077157       -29.3109
  53   2.0000      -1.075374       -29.2624
  54   2.0000      -1.067114       -29.0376
  55   2.0000      -1.052216       -28.6322
  56   2.0000      -1.036207       -28.1966
  57   2.0000      -1.017317       -27.6826
  58   2.0000      -1.013062       -27.5668
  59   2.0000      -1.007166       -27.4064
  60   2.0000      -0.941472       -25.6188
  61   2.0000      -0.940831       -25.6013
  62   2.0000      -0.939945       -25.5772
  63   2.0000      -0.936535       -25.4844
  64   2.0000      -0.931007       -25.3340
  65   2.0000      -0.927667       -25.2431
  66   2.0000      -0.918364       -24.9900
  67   2.0000      -0.917511       -24.9667
  68   2.0000      -0.875605       -23.8264
  69   2.0000      -0.873295       -23.7636
  70   2.0000      -0.863858       -23.5068
  71   2.0000      -0.850938       -23.1552
  72   2.0000      -0.841095       -22.8873
  73   2.0000      -0.828708       -22.5503
  74   2.0000      -0.785055       -21.3624
  75   2.0000      -0.777421       -21.1547
  76   2.0000      -0.765045       -20.8179
  77   2.0000      -0.763781       -20.7835
  78   2.0000      -0.753188       -20.4953
  79   2.0000      -0.750074       -20.4105
  80   2.0000      -0.728059       -19.8115
  81   2.0000      -0.720483       -19.6053
  82   2.0000      -0.693896       -18.8819
  83   2.0000      -0.686669       -18.6852
  84   2.0000      -0.681171       -18.5356
  85   2.0000      -0.678523       -18.4635
  86   2.0000      -0.665657       -18.1135
  87   2.0000      -0.665449       -18.1078
  88   2.0000      -0.659369       -17.9423
  89   2.0000      -0.658218       -17.9110
  90   2.0000      -0.644767       -17.5450
  91   2.0000      -0.634346       -17.2614
  92   2.0000      -0.632859       -17.2210
  93   2.0000      -0.626765       -17.0551
  94   2.0000      -0.616944       -16.7879
  95   2.0000      -0.611103       -16.6290
  96   2.0000      -0.609995       -16.5988
  97   2.0000      -0.609416       -16.5831
  98   2.0000      -0.606859       -16.5135
  99   2.0000      -0.602667       -16.3994
 100   2.0000      -0.599675       -16.3180
 101   2.0000      -0.596205       -16.2236
 102   2.0000      -0.590738       -16.0748
 103   2.0000      -0.586859       -15.9692
 104   2.0000      -0.580901       -15.8071
 105   2.0000      -0.578066       -15.7300
 106   2.0000      -0.564342       -15.3565
 107   2.0000      -0.563306       -15.3283
 108   2.0000      -0.559319       -15.2199
 109   2.0000      -0.555292       -15.1103
 110   2.0000      -0.548877       -14.9357
 111   2.0000      -0.548395       -14.9226
 112   2.0000      -0.541881       -14.7453
 113   2.0000      -0.539189       -14.6721
 114   2.0000      -0.538018       -14.6402
 115   2.0000      -0.536917       -14.6102
 116   2.0000      -0.531989       -14.4762
 117   2.0000      -0.526898       -14.3376
 118   2.0000      -0.519802       -14.1445
 119   2.0000      -0.517846       -14.0913
 120   2.0000      -0.515812       -14.0359
 121   2.0000      -0.513371       -13.9695
 122   2.0000      -0.512322       -13.9410
 123   2.0000      -0.509685       -13.8692
 124   2.0000      -0.505796       -13.7634
 125   2.0000      -0.503444       -13.6994
 126   2.0000      -0.500938       -13.6312
 127   2.0000      -0.498902       -13.5758
 128   2.0000      -0.497169       -13.5287
 129   2.0000      -0.494489       -13.4557
 130   2.0000      -0.485716       -13.2170
 131   2.0000      -0.480185       -13.0665
 132   2.0000      -0.477122       -12.9832
 133   2.0000      -0.474763       -12.9190
 134   2.0000      -0.473004       -12.8711
 135   2.0000      -0.472625       -12.8608
 136   2.0000      -0.466858       -12.7039
 137   2.0000      -0.465176       -12.6581
 138   2.0000      -0.435096       -11.8396
 139   2.0000      -0.423974       -11.5369
 140   2.0000      -0.408352       -11.1118
 141   2.0000      -0.400477       -10.8975
 142   2.0000      -0.395956       -10.7745
 143   2.0000      -0.394240       -10.7278
 144   2.0000      -0.386861       -10.5270
 145   2.0000      -0.385301       -10.4846
 146   2.0000      -0.378157       -10.2902
 147   2.0000      -0.373970       -10.1762
 148   2.0000      -0.370198       -10.0736
 149   2.0000      -0.368897       -10.0382
 150   2.0000      -0.314674        -8.5627
 151   2.0000      -0.312736        -8.5100
 152   2.0000      -0.310789        -8.4570
 153   2.0000      -0.308095        -8.3837
 154   0.0000       0.094120         2.5611
 155   0.0000       0.097771         2.6605
 156   0.0000       0.105422         2.8687
 157   0.0000       0.110862         3.0167
 158   0.0000       0.130319         3.5462

MULLIKEN ATOMIC CHARGES
-----------------------
   0 C :    0.179823
   1 C :   -0.109848
   2 C :   -0.251068
   3 C :    0.088708
   4 H :    0.168125
   5 C :   -0.248383
   6 C :    0.174771
   7 H :    0.134667
   8 C :   -0.185415
   9 C :   -0.129611
  10 H :    0.203976
  11 C :    0.065704
  12 H :    0.094074
  13 H :    0.082030
  14 C :    0.178400
  15 C :   -0.128768
  16 C :   -0.186879
  17 C :    0.185635
  18 H :    0.195979
  19 C :   -0.260178
  20 C :    0.082841
  21 H :    0.166848
  22 C :   -0.251819
  23 C :    0.068749
  24 H :    0.132437
  25 C :   -0.119805
  26 H :    0.095741
  27 C :    0.199862
  28 C :   -0.038246
  29 N :   -0.265671
  30 N :   -0.236297
  31 C :   -0.101443
  32 C :    0.103711
  33 N :   -0.256163
  34 N :   -0.296376
  35 C :   -0.022933
  36 C :    0.165177
  37 N :   -0.229073
  38 N :   -0.250912
  39 C :   -0.099468
  40 C :    0.102536
  41 N :   -0.255393
  42 N :   -0.294527
  43 H :    0.098984
  44 H :    0.106037
  45 H :    0.090096
  46 H :    0.106883
  47 H :    0.108596
  48 H :    0.104350
  49 H :    0.089060
  50 H :    0.110583
  51 H :    0.092037
  52 H :    0.110362
  53 H :    0.093010
  54 H :    0.101991
  55 H :    0.063627
  56 H :    0.063656
  57 H :    0.106612
  58 C :   -0.292701
  59 H :    0.093170
  60 H :    0.098880
  61 H :    0.096617
  62 C :   -0.316977
  63 H :    0.101335
  64 H :    0.105274
  65 H :    0.097918
  66 C :   -0.316979
  67 H :    0.101021
  68 H :    0.099692
  69 H :    0.104107
  70 C :   -0.289110
  71 H :    0.094717
  72 H :    0.098998
  73 H :    0.090555
  74 C :   -0.295791
  75 H :    0.097524
  76 H :    0.080093
  77 H :    0.128559
  78 C :   -0.363398
  79 H :    0.099434
  80 H :    0.114703
  81 H :    0.110930
  82 C :   -0.299607
  83 H :    0.090135
  84 H :    0.097507
  85 H :    0.109700
  86 C :   -0.367262
  87 H :    0.109735
  88 H :    0.117688
  89 H :    0.106129
Sum of atomic charges:   -0.0000000

LOEWDIN ATOMIC CHARGES
----------------------
   0 C :   -0.072044
   1 C :   -0.072463
   2 C :    0.058648
   3 C :   -0.054233
   4 H :   -0.027723
   5 C :    0.059661
   6 C :   -0.076027
   7 H :   -0.022883
   8 C :    0.101432
   9 C :   -0.077145
  10 H :   -0.015399
  11 C :   -0.156028
  12 H :   -0.039983
  13 H :   -0.040885
  14 C :   -0.073601
  15 C :   -0.078126
  16 C :    0.100376
  17 C :   -0.070057
  18 H :   -0.015318
  19 C :    0.056794
  20 C :   -0.055698
  21 H :   -0.028596
  22 C :    0.058445
  23 C :   -0.152599
  24 H :   -0.023108
  25 C :   -0.072661
  26 H :   -0.038215
  27 C :   -0.207210
  28 C :   -0.031195
  29 N :    0.250630
  30 N :    0.240321
  31 C :    0.003651
  32 C :   -0.177457
  33 N :    0.308777
  34 N :    0.329452
  35 C :   -0.034464
  36 C :   -0.202730
  37 N :    0.238379
  38 N :    0.248534
  39 C :    0.001112
  40 C :   -0.178525
  41 N :    0.310349
  42 N :    0.329364
  43 H :   -0.037758
  44 H :   -0.110670
  45 H :   -0.031235
  46 H :   -0.119613
  47 H :   -0.117921
  48 H :   -0.111032
  49 H :   -0.030933
  50 H :   -0.028611
  51 H :   -0.029408
  52 H :   -0.029218
  53 H :   -0.029417
  54 H :   -0.025938
  55 H :   -0.038939
  56 H :   -0.038411
  57 H :   -0.023251
  58 C :    0.106626
  59 H :   -0.031386
  60 H :   -0.029200
  61 H :   -0.031015
  62 C :    0.110121
  63 H :   -0.023803
  64 H :   -0.027283
  65 H :   -0.030165
  66 C :    0.109429
  67 H :   -0.024379
  68 H :   -0.029922
  69 H :   -0.027462
  70 C :    0.106179
  71 H :   -0.031097
  72 H :   -0.028996
  73 H :   -0.031706
  74 C :    0.118048
  75 H :   -0.030686
  76 H :   -0.032120
  77 H :   -0.024086
  78 C :    0.109898
  79 H :   -0.032628
  80 H :   -0.022938
  81 H :   -0.026971
  82 C :    0.118123
  83 H :   -0.028581
  84 H :   -0.029313
  85 H :   -0.024851
  86 C :    0.106944
  87 H :   -0.025514
  88 H :   -0.028861
  89 H :   -0.031602

  Mayer bond orders larger than 0.100000
B(  0-C ,  1-C ) :   0.9735 B(  0-C ,  2-C ) :   1.3304 B(  0-C ,  8-C ) :   1.3694
B(  1-C , 13-H ) :   0.9810 B(  1-C , 30-N ) :   2.0077 B(  2-C ,  3-C ) :   1.3647
B(  2-C ,  4-H ) :   0.9554 B(  3-C ,  5-C ) :   1.3986 B(  3-C , 11-C ) :   1.0205
B(  5-C ,  6-C ) :   1.3517 B(  5-C ,  7-H ) :   0.9761 B(  6-C ,  8-C ) :   1.3155
B(  6-C ,  9-C ) :   0.9929 B(  8-C , 10-H ) :   0.9406 B(  9-C , 12-H ) :   0.9844
B(  9-C , 37-N ) :   1.9864 B( 11-C , 33-N ) :   1.0137 B( 11-C , 34-N ) :   1.0116
B( 11-C , 49-H ) :   0.9920 B( 14-C , 15-C ) :   1.0004 B( 14-C , 16-C ) :   1.3112
B( 14-C , 22-C ) :   1.3584 B( 15-C , 29-N ) :   1.9978 B( 15-C , 43-H ) :   0.9848
B( 16-C , 17-C ) :   1.3685 B( 16-C , 18-H ) :   0.9434 B( 17-C , 19-C ) :   1.3239
B( 17-C , 25-C ) :   0.9913 B( 19-C , 20-C ) :   1.3649 B( 19-C , 21-H ) :   0.9572
B( 20-C , 22-C ) :   1.3960 B( 20-C , 23-C ) :   1.0212 B( 22-C , 24-H ) :   0.9766
B( 23-C , 41-N ) :   1.0164 B( 23-C , 42-N ) :   1.0097 B( 23-C , 45-H ) :   0.9932
B( 25-C , 26-H ) :   0.9703 B( 25-C , 38-N ) :   1.9806 B( 27-C , 28-C ) :   0.9413
B( 27-C , 29-N ) :   0.9199 B( 27-C , 74-C ) :   0.9459 B( 27-C , 78-C ) :   0.9513
B( 28-C , 30-N ) :   0.9974 B( 28-C , 54-H ) :   0.9758 B( 28-C , 55-H ) :   0.9836
B( 31-C , 32-C ) :   0.9353 B( 31-C , 33-N ) :   1.0006 B( 31-C , 52-H ) :   0.9927
B( 31-C , 53-H ) :   0.9934 B( 32-C , 34-N ) :   0.9787 B( 32-C , 66-C ) :   0.9567
B( 32-C , 70-C ) :   0.9545 B( 33-N , 48-H ) :   0.9979 B( 34-N , 47-H ) :   0.9908
B( 35-C , 36-C ) :   0.9382 B( 35-C , 37-N ) :   0.9804 B( 35-C , 56-H ) :   0.9874
B( 35-C , 57-H ) :   0.9816 B( 36-C , 38-N ) :   0.9672 B( 36-C , 82-C ) :   0.9453
B( 36-C , 86-C ) :   0.9385 B( 39-C , 40-C ) :   0.9373 B( 39-C , 41-N ) :   1.0015
B( 39-C , 50-H ) :   0.9917 B( 39-C , 51-H ) :   0.9926 B( 40-C , 42-N ) :   0.9879
B( 40-C , 58-C ) :   0.9543 B( 40-C , 62-C ) :   0.9548 B( 41-N , 44-H ) :   0.9973
B( 42-N , 46-H ) :   0.9918 B( 58-C , 59-H ) :   0.9812 B( 58-C , 60-H ) :   0.9821
B( 58-C , 61-H ) :   0.9834 B( 62-C , 63-H ) :   0.9801 B( 62-C , 64-H ) :   0.9812
B( 62-C , 65-H ) :   0.9829 B( 66-C , 67-H ) :   0.9797 B( 66-C , 68-H ) :   0.9824
B( 66-C , 69-H ) :   0.9808 B( 70-C , 71-H ) :   0.9828 B( 70-C , 72-H ) :   0.9818
B( 70-C , 73-H ) :   0.9825 B( 74-C , 75-H ) :   0.9826 B( 74-C , 76-H ) :   0.9811
B( 74-C , 77-H ) :   0.9783 B( 78-C , 79-H ) :   0.9845 B( 78-C , 80-H ) :   0.9799
B( 78-C , 81-H ) :   0.9839 B( 82-C , 83-H ) :   0.9788 B( 82-C , 84-H ) :   0.9827
B( 82-C , 85-H ) :   0.9846 B( 86-C , 87-H ) :   0.9827 B( 86-C , 88-H ) :   0.9817
B( 86-C , 89-H ) :   0.9833

MP2 TOTAL ENERGY:    -1758.810006829 Eh
FINAL SINGLE POINT ENERGY     -1758.810006828959

DIPOLE MOMENT
-------------
                                X             Y             Z
Electronic contribution:    -11.56453      -0.27018       9.59636
Nuclear contribution   :     12.78103      -0.54282     -10.76217
                        -----------------------------------------
Total Dipole Moment    :      1.21650      -0.81301      -1.16581
                        -----------------------------------------
Magnitude (a.u.)       :      1.87082
Magnitude (Debye)      :      4.75524

Rotational constants in cm-1:     0.002873     0.001239     0.001201
Rotational constants in MHz :    86.136622    37.132438    35.993158

                             ****ORCA TERMINATED NORMALLY****
TOTAL RUN TIME: 0 days 1 hours 4 minutes 3 seconds 74 msec
