                         Program Version 4.2.1 -  RELEASE  -
|  1> ! DFT COPT B97-3c TightSCF printbasis  Grid6 NOFINALGRID SlowConv
|  2>
|  3> %base "_o_2_alde1_4_ami4_2_opt_B97-3c"
|  4> %maxcore 3000
|  5> %scf
|  6>    MaxIter 2000
|  7> end
|  8> %pal
|  9>    nprocs 32
| 10> end
| 11>
| 12> * xyzfile 0 1 o_2_alde1_4_ami4_2_opt.xyz
| 13> # * xyzfile 0 1 _o_2_alde1_4_ami4_2_opt_B97-3c.xyz
| 14>
| 15>                          ****END OF INPUT****
 Total Charge           Charge          ....    0
 Multiplicity           Mult            ....    1
 Number of Electrons    NEL             ....  244
Dispersion correction           -0.186813285
FINAL SINGLE POINT ENERGY     -1447.265614926535
Dispersion correction            ... done
Dispersion correction           -0.186757271
FINAL SINGLE POINT ENERGY     -1447.266656699100
Dispersion correction            ... done
Dispersion correction           -0.186722172
FINAL SINGLE POINT ENERGY     -1447.267128511798
Dispersion correction            ... done
FINAL SINGLE POINT ENERGY     -1447.267525290960
FINAL SINGLE POINT ENERGY     -1447.267837754107
FINAL SINGLE POINT ENERGY     -1447.268068531308
FINAL SINGLE POINT ENERGY     -1447.268229847602
FINAL SINGLE POINT ENERGY     -1447.268372394778
FINAL SINGLE POINT ENERGY     -1447.268536555473
FINAL SINGLE POINT ENERGY     -1447.268713333796
FINAL SINGLE POINT ENERGY     -1447.271142362438
FINAL SINGLE POINT ENERGY     -1447.271148896719
FINAL SINGLE POINT ENERGY     -1447.271154782761
FINAL SINGLE POINT ENERGY     -1447.271160033306
FINAL SINGLE POINT ENERGY     -1447.271164862897
FINAL SINGLE POINT ENERGY     -1447.271169438339
FINAL SINGLE POINT ENERGY     -1447.271174211859
Dispersion correction            ... done
Dispersion correction           -0.183845717
FINAL SINGLE POINT ENERGY     -1447.271178609188
Dispersion correction            ... done
Dispersion correction           -0.183841448
FINAL SINGLE POINT ENERGY     -1447.271182587553
Dispersion correction            ... done
                    ***********************HURRAY********************

CARTESIAN COORDINATES (ANGSTROEM)
---------------------------------
  C     -4.042428   -1.457813   -1.274182
  C     -4.734707   -1.047397   -0.056253
  C     -3.288736   -2.632842   -1.342550
  C     -2.543347   -2.930257   -2.475212
  H     -3.284330   -3.298885   -0.489759
  C     -2.512904   -2.015855   -3.534589
  C     -3.260107   -0.848530   -3.484413
  H     -1.888973   -2.234495   -4.391152
  C     -4.046249   -0.591640   -2.357535
  C     -3.132952    0.150420   -4.545480
  H     -4.614955    0.327325   -2.323119
  C     -1.786966   -4.179621   -2.527275
  H     -2.277262    0.011088   -5.221166
  H     -5.364318   -0.154785   -0.162795
  H     -1.822584   -4.789041   -1.612151
  C     -1.690596    1.573940    0.557306
  C     -2.289026    0.820217    1.657751
  C     -2.485818    2.136844   -0.438681
  C     -1.915292    2.719731   -1.566074
  H     -3.560366    2.060299   -0.345899
  C     -0.527905    2.799215   -1.671402
  C      0.283877    2.279116   -0.667671
  H     -0.077765    3.245991   -2.545768
  C     -0.306736    1.645934    0.428393
  C      1.743712    2.351123   -0.748542
  H      0.323956    1.198304    1.188581
  C     -2.805456    3.120074   -2.654853
  H      2.287454    1.873934    0.079542
  H     -3.875171    3.109641   -2.404705
  C     -4.053386   -0.079682    2.886704
  C     -5.141585   -0.929051    2.210270
  N     -3.529087    0.855654    1.925555
  N     -4.571537   -1.610131    1.071698
  C     -0.457175   -5.825828   -3.508411
  C     -0.964845   -6.738272   -4.630567
  N     -1.135112   -4.554593   -3.550302
  N     -0.787550   -6.246011   -5.986100
  C     -3.575828    2.183779   -5.593097
  C     -3.432316    3.514697   -4.838997
  N     -3.909067    1.149070   -4.648026
  N     -2.406087    3.377015   -3.833123
  C      4.316272    2.193855   -2.944216
  C      3.801774    2.895386   -1.696366
  N      3.903400    0.794880   -2.941119
  N      2.358483    2.920692   -1.702266
  H     -1.599200    0.166975    2.211087
  H     -1.188274   -5.318029   -6.046914
  H      0.200525   -6.134960   -6.181290
  H      2.897996    0.746995   -3.053455
  H      4.302782    0.315357   -3.737622
  H     -4.408524    3.776477   -4.412769
  H     -3.146179    4.287562   -5.552127
  H     -2.654854    1.971739   -6.149876
  H     -4.392866    2.293644   -6.308640
  H     -2.028676   -6.922090   -4.469685
  H     -0.465955   -7.704652   -4.539723
  H     -0.567855   -6.332844   -2.537655
  H      0.610031   -5.644633   -3.666070
  H     -5.971249   -0.268050    1.932376
  H     -5.507677   -1.660329    2.930772
  H     -3.281660   -0.734963    3.309352
  H     -4.524219    0.469823    3.704420
  H      5.406334    2.231985   -2.928866
  H      3.981265    2.759705   -3.823444
  H      4.160213    3.927553   -1.709178
  H      4.211281    2.398764   -0.806476

 Multiplicity           Mult            ....    1
 Number of Electrons    NEL             ....  244
 Basis Dimension        Dim             ....  742

ORBITAL ENERGIES
----------------

  NO   OCC          E(Eh)            E(eV)
   0   2.0000     -13.986156      -380.5826
   1   2.0000     -13.985324      -380.5600
   2   2.0000     -13.984534      -380.5385
   3   2.0000     -13.981818      -380.4646
   4   2.0000     -13.981703      -380.4615
   5   2.0000     -13.979567      -380.4034
   6   2.0000     -13.965452      -380.0193
   7   2.0000     -13.961523      -379.9124
   8   2.0000      -9.939557      -270.4691
   9   2.0000      -9.938563      -270.4421
  10   2.0000      -9.938090      -270.4292
  11   2.0000      -9.934759      -270.3385
  12   2.0000      -9.934571      -270.3334
  13   2.0000      -9.932567      -270.2789
  14   2.0000      -9.924132      -270.0493
  15   2.0000      -9.922372      -270.0015
  16   2.0000      -9.920794      -269.9585
  17   2.0000      -9.918889      -269.9067
  18   2.0000      -9.916626      -269.8451
  19   2.0000      -9.914336      -269.7828
  20   2.0000      -9.913774      -269.7675
  21   2.0000      -9.913772      -269.7675
  22   2.0000      -9.913312      -269.7549
  23   2.0000      -9.913034      -269.7474
  24   2.0000      -9.912729      -269.7391
  25   2.0000      -9.912585      -269.7351
  26   2.0000      -9.912030      -269.7201
  27   2.0000      -9.911872      -269.7157
  28   2.0000      -9.911387      -269.7025
  29   2.0000      -9.909547      -269.6525
  30   2.0000      -9.909494      -269.6511
  31   2.0000      -9.908966      -269.6367
  32   2.0000      -9.907962      -269.6094
  33   2.0000      -9.903375      -269.4845
  34   2.0000      -0.870121       -23.6772
  35   2.0000      -0.868062       -23.6212
  36   2.0000      -0.860679       -23.4203
  37   2.0000      -0.857478       -23.3332
  38   2.0000      -0.847630       -23.0652
  39   2.0000      -0.844061       -22.9681
  40   2.0000      -0.810020       -22.0418
  41   2.0000      -0.808711       -22.0062
  42   2.0000      -0.801755       -21.8169
  43   2.0000      -0.797767       -21.7083
  44   2.0000      -0.731697       -19.9105
  45   2.0000      -0.725830       -19.7508
  46   2.0000      -0.718911       -19.5626
  47   2.0000      -0.714303       -19.4372
  48   2.0000      -0.687794       -18.7158
  49   2.0000      -0.674541       -18.3552
  50   2.0000      -0.665606       -18.1121
  51   2.0000      -0.663977       -18.0677
  52   2.0000      -0.616137       -16.7659
  53   2.0000      -0.614539       -16.7225
  54   2.0000      -0.599135       -16.3033
  55   2.0000      -0.595658       -16.2087
  56   2.0000      -0.586879       -15.9698
  57   2.0000      -0.570835       -15.5332
  58   2.0000      -0.555390       -15.1129
  59   2.0000      -0.551517       -15.0075
  60   2.0000      -0.540894       -14.7185
  61   2.0000      -0.527397       -14.3512
  62   2.0000      -0.506766       -13.7898
  63   2.0000      -0.497334       -13.5331
  64   2.0000      -0.494930       -13.4677
  65   2.0000      -0.487289       -13.2598
  66   2.0000      -0.473336       -12.8801
  67   2.0000      -0.467178       -12.7126
  68   2.0000      -0.461473       -12.5573
  69   2.0000      -0.458249       -12.4696
  70   2.0000      -0.451611       -12.2890
  71   2.0000      -0.447671       -12.1818
  72   2.0000      -0.443318       -12.0633
  73   2.0000      -0.438524       -11.9328
  74   2.0000      -0.437496       -11.9049
  75   2.0000      -0.431423       -11.7396
  76   2.0000      -0.427043       -11.6204
  77   2.0000      -0.424135       -11.5413
  78   2.0000      -0.419396       -11.4123
  79   2.0000      -0.411640       -11.2013
  80   2.0000      -0.405782       -11.0419
  81   2.0000      -0.404224       -10.9995
  82   2.0000      -0.401313       -10.9203
  83   2.0000      -0.395376       -10.7587
  84   2.0000      -0.390280       -10.6201
  85   2.0000      -0.388305       -10.5663
  86   2.0000      -0.383974       -10.4485
  87   2.0000      -0.382838       -10.4175
  88   2.0000      -0.367314        -9.9951
  89   2.0000      -0.365760        -9.9528
  90   2.0000      -0.360853        -9.8193
  91   2.0000      -0.353468        -9.6183
  92   2.0000      -0.352767        -9.5993
  93   2.0000      -0.349894        -9.5211
  94   2.0000      -0.347464        -9.4550
  95   2.0000      -0.342616        -9.3231
  96   2.0000      -0.338221        -9.2035
  97   2.0000      -0.335934        -9.1412
  98   2.0000      -0.330367        -8.9898
  99   2.0000      -0.323101        -8.7920
 100   2.0000      -0.318352        -8.6628
 101   2.0000      -0.314333        -8.5534
 102   2.0000      -0.311188        -8.4678
 103   2.0000      -0.308080        -8.3833
 104   2.0000      -0.304722        -8.2919
 105   2.0000      -0.303584        -8.2609
 106   2.0000      -0.302238        -8.2243
 107   2.0000      -0.300387        -8.1739
 108   2.0000      -0.265977        -7.2376
 109   2.0000      -0.261177        -7.1070
 110   2.0000      -0.227971        -6.2034
 111   2.0000      -0.226626        -6.1668
 112   2.0000      -0.225121        -6.1259
 113   2.0000      -0.224561        -6.1106
 114   2.0000      -0.223191        -6.0733
 115   2.0000      -0.221940        -6.0393
 116   2.0000      -0.220153        -5.9907
 117   2.0000      -0.218663        -5.9501
 118   2.0000      -0.217878        -5.9288
 119   2.0000      -0.214778        -5.8444
 120   2.0000      -0.197944        -5.3863
 121   2.0000      -0.194223        -5.2851
 122   0.0000      -0.095179        -2.5899
 123   0.0000      -0.088419        -2.4060
 124   0.0000      -0.085318        -2.3216
 125   0.0000      -0.081158        -2.2084
 126   0.0000      -0.061263        -1.6670

MULLIKEN ATOMIC CHARGES
-----------------------
   0 C :    0.278494
   1 C :   -0.357789
   2 C :   -0.210281
   3 C :    0.265299
   4 H :    0.211193
   5 C :   -0.216427
   6 C :    0.229628
   7 H :    0.212537
   8 C :   -0.131268
   9 C :   -0.366603
  10 H :    0.211661
  11 C :   -0.385330
  12 H :    0.110455
  13 H :    0.111448
  14 H :    0.107998
  15 C :    0.197141
  16 C :   -0.372544
  17 C :   -0.133861
  18 C :    0.329678
  19 H :    0.209900
  20 C :   -0.173746
  21 C :    0.284698
  22 H :    0.217345
  23 C :   -0.253420
  24 C :   -0.408027
  25 H :    0.208783
  26 C :   -0.366489
  27 H :    0.107019
  28 H :    0.109857
  29 C :   -0.257882
  30 C :   -0.275350
  31 N :   -0.092746
  32 N :   -0.089558
  33 C :   -0.289696
  34 C :   -0.237378
  35 N :   -0.067052
  36 N :   -0.631590
  37 C :   -0.259514
  38 C :   -0.273254
  39 N :   -0.093714
  40 N :   -0.082282
  41 C :   -0.221229
  42 C :   -0.231050
  43 N :   -0.687951
  44 N :   -0.082168
  45 H :    0.105731
  46 H :    0.308893
  47 H :    0.292700
  48 H :    0.313164
  49 H :    0.304653
  50 H :    0.146356
  51 H :    0.179002
  52 H :    0.137383
  53 H :    0.179714
  54 H :    0.162971
  55 H :    0.168923
  56 H :    0.122014
  57 H :    0.170674
  58 H :    0.148468
  59 H :    0.178536
  60 H :    0.135570
  61 H :    0.179668
  62 H :    0.159300
  63 H :    0.153431
  64 H :    0.173884
  65 H :    0.124029
Sum of atomic charges:   -0.0000000

LOEWDIN ATOMIC CHARGES
----------------------
   0 C :   -0.078659
   1 C :   -0.038726
   2 C :   -0.105877
   3 C :   -0.080660
   4 H :    0.183053
   5 C :   -0.106282
   6 C :   -0.078263
   7 H :    0.181919
   8 C :   -0.104611
   9 C :   -0.030245
  10 H :    0.181464
  11 C :   -0.038656
  12 H :    0.141933
  13 H :    0.143283
  14 H :    0.140318
  15 C :   -0.081074
  16 C :   -0.030968
  17 C :   -0.105683
  18 C :   -0.077329
  19 H :    0.180693
  20 C :   -0.086707
  21 C :   -0.081109
  22 H :    0.193523
  23 C :   -0.123297
  24 C :   -0.042919
  25 H :    0.171884
  26 C :   -0.038941
  27 H :    0.140070
  28 H :    0.141884
  29 C :   -0.204885
  30 C :   -0.210781
  31 N :   -0.196962
  32 N :   -0.200674
  33 C :   -0.229652
  34 C :   -0.225354
  35 N :   -0.203090
  36 N :   -0.538284
  37 C :   -0.204995
  38 C :   -0.210340
  39 N :   -0.195772
  40 N :   -0.195294
  41 C :   -0.218789
  42 C :   -0.214618
  43 N :   -0.554177
  44 N :   -0.196369
  45 H :    0.140234
  46 H :    0.257410
  47 H :    0.252137
  48 H :    0.259724
  49 H :    0.255191
  50 H :    0.143103
  51 H :    0.155294
  52 H :    0.141422
  53 H :    0.159902
  54 H :    0.150583
  55 H :    0.150667
  56 H :    0.135028
  57 H :    0.151081
  58 H :    0.143897
  59 H :    0.154751
  60 H :    0.140585
  61 H :    0.159897
  62 H :    0.148845
  63 H :    0.133465
  64 H :    0.157352
  65 H :    0.139450

  Mayer bond orders larger than 0.100000
B(  0-C ,  1-C ) :   0.9671 B(  0-C ,  2-C ) :   1.3985 B(  0-C ,  3-C ) :   0.1190
B(  0-C ,  6-C ) :   0.1245 B(  0-C ,  8-C ) :   1.1662 B(  0-C , 32-N ) :  -0.2509
B(  1-C , 13-H ) :   0.8931 B(  1-C , 32-N ) :   2.0401 B(  2-C ,  3-C ) :   1.1873
B(  2-C ,  4-H ) :   0.8829 B(  2-C , 32-N ) :   0.1071 B(  3-C ,  5-C ) :   1.3672
B(  3-C ,  6-C ) :   0.1186 B(  3-C , 11-C ) :   0.9723 B(  3-C , 35-N ) :  -0.2588
B(  5-C ,  6-C ) :   1.1933 B(  5-C ,  7-H ) :   0.8953 B(  6-C ,  8-C ) :   1.4083
B(  6-C ,  9-C ) :   0.9608 B(  6-C , 39-N ) :  -0.2535 B(  8-C , 10-H ) :   0.8667
B(  9-C , 12-H ) :   0.9013 B(  9-C , 39-N ) :   2.0688 B( 11-C , 14-H ) :   0.9003
B( 11-C , 35-N ) :   2.0682 B( 15-C , 16-C ) :   0.9569 B( 15-C , 17-C ) :   1.4459
B( 15-C , 18-C ) :   0.1185 B( 15-C , 21-C ) :   0.1005 B( 15-C , 23-C ) :   1.2972
B( 15-C , 31-N ) :  -0.2566 B( 16-C , 31-N ) :   2.0716 B( 16-C , 45-H ) :   0.9009
B( 17-C , 18-C ) :   1.1376 B( 17-C , 19-H ) :   0.8655 B( 18-C , 20-C ) :   1.2712
B( 18-C , 21-C ) :   0.1367 B( 18-C , 26-C ) :   0.9544 B( 18-C , 40-N ) :  -0.2517
B( 20-C , 21-C ) :   1.3084 B( 20-C , 22-H ) :   0.8944 B( 20-C , 40-N ) :   0.1100
B( 21-C , 23-C ) :   1.2525 B( 21-C , 24-C ) :   0.9417 B( 21-C , 44-N ) :  -0.2724
B( 23-C , 25-H ) :   0.8850 B( 24-C , 27-H ) :   0.9031 B( 24-C , 44-N ) :   2.0735
B( 26-C , 28-H ) :   0.8941 B( 26-C , 40-N ) :   2.0486 B( 29-C , 30-C ) :   0.9094
B( 29-C , 31-N ) :   0.9209 B( 29-C , 60-H ) :   0.9270 B( 29-C , 61-H ) :   0.9348
B( 30-C , 32-N ) :   0.9254 B( 30-C , 58-H ) :   0.9314 B( 30-C , 59-H ) :   0.9430
B( 33-C , 34-C ) :   0.9195 B( 33-C , 35-N ) :   0.9270 B( 33-C , 56-H ) :   0.9142
B( 33-C , 57-H ) :   0.9447 B( 34-C , 36-N ) :   1.0564 B( 34-C , 54-H ) :   0.9418
B( 34-C , 55-H ) :   0.9521 B( 36-N , 46-H ) :   0.8730 B( 36-N , 47-H ) :   0.8794
B( 37-C , 38-C ) :   0.9091 B( 37-C , 39-N ) :   0.9200 B( 37-C , 52-H ) :   0.9275
B( 37-C , 53-H ) :   0.9348 B( 38-C , 40-N ) :   0.9267 B( 38-C , 50-H ) :   0.9310
B( 38-C , 51-H ) :   0.9424 B( 41-C , 42-C ) :   0.9066 B( 41-C , 43-N ) :   0.9933
B( 41-C , 62-H ) :   0.9481 B( 41-C , 63-H ) :   0.9512 B( 42-C , 44-N ) :   0.9327
B( 42-C , 64-H ) :   0.9413 B( 42-C , 65-H ) :   0.9184 B( 43-N , 48-H ) :   0.8670
B( 43-N , 49-H ) :   0.8745

Dispersion correction           -0.183839919
FINAL SINGLE POINT ENERGY     -1447.271185577604

DIPOLE MOMENT
-------------
                                X             Y             Z
Electronic contribution:    -14.22351      10.13783       8.17621
Nuclear contribution   :     14.63830     -10.06482      -7.60965
                        -----------------------------------------
Total Dipole Moment    :      0.41478       0.07301       0.56656
                        -----------------------------------------
Magnitude (a.u.)       :      0.70595
Magnitude (Debye)      :      1.79439

Rotational constants in cm-1:     0.003313     0.002732     0.002218
Rotational constants in MHz :    99.328975    81.904490    66.498897

                             ****ORCA TERMINATED NORMALLY****
TOTAL RUN TIME: 0 days 1 hours 4 minutes 41 seconds 803 msec
