                         Program Version 4.2.1 -  RELEASE  -
|  1> ! RI-MP2 cc-pVTZ cc-pVTZ/C TIGHTSCF printbasis Grid6 NOFINALGRID SlowConv
|  2>
|  3> %base "_o_2_alde1_3_ami1_2_opt_MP2"
|  4> %maxcore 3000
|  5> %pal
|  6>    nprocs 32
|  7> end
|  8>
|  9> * xyzfile 0 1 _o_2_alde1_3_ami1_2_opt_B97-3c.xyz
| 10>
| 11>                          ****END OF INPUT****

CARTESIAN COORDINATES (ANGSTROEM)
---------------------------------
  C     -3.392148    1.316960    0.519495
  C     -2.983775    0.435209    1.610807
  C     -2.927705    2.623204    0.498299
  C     -3.156041    3.439330   -0.612978
  H     -2.346400    3.018789    1.321047
  C     -3.836198    2.938021   -1.711764
  C     -4.297163    1.618554   -1.713982
  H     -3.971058    3.539057   -2.601515
  C     -4.087969    0.828771   -0.591863
  C     -4.806955    0.989882   -2.929592
  H     -4.399709   -0.207655   -0.588494
  C     -2.596208    4.796220   -0.668764
  H     -5.062564   -0.073669   -2.829877
  H     -2.288030    0.888250    2.329864
  C     -0.678604   -0.547845   -1.157499
  C     -1.158010   -1.560023   -0.223297
  C     -1.322151   -0.436502   -2.381041
  C     -1.051804    0.633127   -3.238739
  H     -2.092760   -1.142399   -2.660731
  C     -0.102451    1.572780   -2.864825
  C      0.577907    1.461615   -1.646980
  H      0.111115    2.423218   -3.498499
  C      0.281571    0.403981   -0.799445
  C      1.567123    2.458049   -1.237762
  H      0.762265    0.322533    0.166718
  C     -1.855943    0.860818   -4.436716
  H     -1.683650    1.824785   -4.935457
  C     -1.606398   -2.498280    1.839868
  C     -2.589389   -1.601836    2.646070
  N     -0.823132   -1.616407    1.000152
  H     -2.218695   -3.163260    1.218209
  C     -0.702294   -3.378199    2.711836
  N     -3.300584   -0.791821    1.679817
  H     -1.979980   -0.964367    3.298247
  C     -3.561825   -2.388846    3.536466
  H     -1.362526   -4.060276    3.252531
  C      0.198203   -4.224733    1.820063
  C     -4.461224   -1.423265    4.298288
  C     -4.390709   -3.419364    2.783108
  O     -1.894980    5.293214    0.191642
  C     -5.048944    0.740692   -5.217948
  C     -3.652777    0.526471   -5.873601
  N     -4.832990    1.574494   -4.055519
  H     -5.413309   -0.247831   -4.912075
  C     -6.093445    1.358009   -6.156534
  N     -2.762755    0.064856   -4.831142
  H     -3.321811    1.501267   -6.252262
  C     -3.667517   -0.454325   -7.056350
  H     -6.222737    0.654878   -6.982628
  C     -7.431461    1.464942   -5.435496
  H     -4.338482   -0.026593   -7.804851
  C     -2.279465   -0.532131   -7.679950
  C      2.341151    5.844542   -1.310746
  C      2.874522    4.378473   -1.467048
  N      0.968054    6.078736   -1.741848
  H      2.966189    6.471152   -1.950986
  C      2.534122    6.387856    0.112608
  N      1.832879    3.489390   -1.926022
  H      3.254028    4.034568   -0.496043
  C      4.065983    4.311613   -2.445619
  H      2.118124    7.398696    0.081986
  C      1.771835    5.612326    1.180636
  H      4.763582    5.079530   -2.098568
  C      4.777091    2.969467   -2.367066
  H     -1.929171   -2.227210   -0.632521
  H      0.805206    5.564176   -2.597812
  H      2.075813    2.253522   -0.284385
  H     -2.841103    5.362285   -1.590060
  C      0.120110   -2.599016    3.728250
  H     -2.946697   -2.912731    4.271687
  C     -5.679883    2.705079   -6.732401
  C     -4.174411   -1.842829   -6.692158
  C      4.007658    6.504771    0.477907
  C      3.674533    4.639200   -3.879667
  H      0.321339    5.683878   -1.070479
  H     -3.778360   -4.211970    2.357049
  H     -4.945497   -2.951294    1.972303
  H     -5.109102   -3.891150    3.452913
  H     -0.377856   -4.771220    1.072424
  H      0.754331   -4.952044    2.410306
  H      0.916835   -3.600798    1.290792
  H      0.800103   -3.266533    4.256720
  H     -0.499883   -2.111275    4.478533
  H      0.715776   -1.832915    3.235908
  H     -5.140910   -0.909685    3.620070
  H     -3.880494   -0.664679    4.824008
  H     -5.062220   -1.953625    5.036121
  H      2.142395    4.591528    1.280050
  H      0.703181    5.562359    0.984272
  H      1.894264    6.091996    2.151604
  H      4.132773    2.160416   -2.709351
  H      5.084728    2.740076   -1.346327
  H      5.670052    2.963995   -2.991777
  H      4.127138    6.995750    1.443221
  H      4.557241    7.087443   -0.261369
  H      4.488830    5.528840    0.553341
  H      3.174108    5.603288   -3.958555
  H      3.001763    3.883860   -4.280298
  H      4.557887    4.675593   -4.516563
  H     -7.740192    0.504663   -5.021370
  H     -8.212163    1.800957   -6.116635
  H     -7.375073    2.177729   -4.614120
  H     -1.569546   -0.991181   -6.993766
  H     -1.899434    0.456549   -7.939155
  H     -2.299077   -1.129813   -8.590320
  H     -5.219247   -1.836523   -6.386815
  H     -3.589327   -2.263435   -5.876780
  H     -4.092652   -2.513504   -7.546934
  H     -5.441200    3.407489   -5.936301
  H     -6.490970    3.129087   -7.323322
  H     -4.811488    2.629468   -7.384485

 Total Charge           Charge          ....    0
 Multiplicity           Mult            ....    1
 Number of Electrons    NEL             ....  364
 Basis Dimension        Dim             .... 2338

ORBITAL ENERGIES
----------------

  NO   OCC          E(Eh)            E(eV)
   0   2.0000     -20.559792      -559.4604
   1   2.0000     -15.556647      -423.3179
   2   2.0000     -15.556013      -423.3006
   3   2.0000     -15.554850      -423.2690
   4   2.0000     -15.554097      -423.2485
   5   2.0000     -15.553090      -423.2211
   6   2.0000     -15.512639      -422.1204
   7   2.0000     -11.340746      -308.5974
   8   2.0000     -11.286342      -307.1170
   9   2.0000     -11.286266      -307.1149
  10   2.0000     -11.284381      -307.0636
  11   2.0000     -11.282673      -307.0171
  12   2.0000     -11.281720      -306.9912
  13   2.0000     -11.266349      -306.5730
  14   2.0000     -11.263989      -306.5087
  15   2.0000     -11.263883      -306.5058
  16   2.0000     -11.257390      -306.3292
  17   2.0000     -11.257267      -306.3258
  18   2.0000     -11.256345      -306.3007
  19   2.0000     -11.256266      -306.2986
  20   2.0000     -11.255789      -306.2856
  21   2.0000     -11.255708      -306.2834
  22   2.0000     -11.254361      -306.2467
  23   2.0000     -11.253070      -306.2116
  24   2.0000     -11.252682      -306.2010
  25   2.0000     -11.252327      -306.1914
  26   2.0000     -11.250739      -306.1482
  27   2.0000     -11.250450      -306.1403
  28   2.0000     -11.249899      -306.1253
  29   2.0000     -11.244228      -305.9710
  30   2.0000     -11.236459      -305.7596
  31   2.0000     -11.227413      -305.5135
  32   2.0000     -11.227221      -305.5082
  33   2.0000     -11.227003      -305.5023
  34   2.0000     -11.225932      -305.4731
  35   2.0000     -11.220576      -305.3274
  36   2.0000     -11.211894      -305.0911
  37   2.0000     -11.208968      -305.0115
  38   2.0000     -11.208927      -305.0104
  39   2.0000     -11.208840      -305.0080
  40   2.0000     -11.208764      -305.0060
  41   2.0000     -11.208421      -304.9966
  42   2.0000     -11.208269      -304.9925
  43   2.0000     -11.207696      -304.9769
  44   2.0000     -11.207644      -304.9755
  45   2.0000     -11.205340      -304.9128
  46   2.0000     -11.203408      -304.8602
  47   2.0000     -11.201876      -304.8185
  48   2.0000     -11.197914      -304.7107
  49   2.0000      -1.394620       -37.9495
  50   2.0000      -1.265207       -34.4280
  51   2.0000      -1.262931       -34.3661
  52   2.0000      -1.245928       -33.9034
  53   2.0000      -1.232531       -33.5389
  54   2.0000      -1.227107       -33.3913
  55   2.0000      -1.186090       -32.2752
  56   2.0000      -1.175513       -31.9873
  57   2.0000      -1.163555       -31.6619
  58   2.0000      -1.110018       -30.2051
  59   2.0000      -1.101548       -29.9746
  60   2.0000      -1.083374       -29.4801
  61   2.0000      -1.079146       -29.3651
  62   2.0000      -1.073881       -29.2218
  63   2.0000      -1.063056       -28.9272
  64   2.0000      -1.057090       -28.7649
  65   2.0000      -1.056366       -28.7452
  66   2.0000      -1.048326       -28.5264
  67   2.0000      -1.047780       -28.5115
  68   2.0000      -0.980159       -26.6715
  69   2.0000      -0.974466       -26.5166
  70   2.0000      -0.953966       -25.9587
  71   2.0000      -0.934283       -25.4231
  72   2.0000      -0.934074       -25.4174
  73   2.0000      -0.930724       -25.3263
  74   2.0000      -0.930291       -25.3145
  75   2.0000      -0.926990       -25.2247
  76   2.0000      -0.923013       -25.1165
  77   2.0000      -0.913343       -24.8533
  78   2.0000      -0.910055       -24.7639
  79   2.0000      -0.902598       -24.5609
  80   2.0000      -0.885942       -24.1077
  81   2.0000      -0.885023       -24.0827
  82   2.0000      -0.861047       -23.4303
  83   2.0000      -0.851785       -23.1783
  84   2.0000      -0.844922       -22.9915
  85   2.0000      -0.832256       -22.6468
  86   2.0000      -0.796877       -21.6841
  87   2.0000      -0.790116       -21.5001
  88   2.0000      -0.776916       -21.1410
  89   2.0000      -0.772506       -21.0210
  90   2.0000      -0.767581       -20.8869
  91   2.0000      -0.755226       -20.5507
  92   2.0000      -0.750980       -20.4352
  93   2.0000      -0.744699       -20.2643
  94   2.0000      -0.737934       -20.0802
  95   2.0000      -0.734967       -19.9995
  96   2.0000      -0.717709       -19.5298
  97   2.0000      -0.709160       -19.2972
  98   2.0000      -0.695017       -18.9124
  99   2.0000      -0.688045       -18.7227
 100   2.0000      -0.677764       -18.4429
 101   2.0000      -0.672630       -18.3032
 102   2.0000      -0.667889       -18.1742
 103   2.0000      -0.660337       -17.9687
 104   2.0000      -0.657802       -17.8997
 105   2.0000      -0.648113       -17.6361
 106   2.0000      -0.642160       -17.4741
 107   2.0000      -0.641076       -17.4446
 108   2.0000      -0.637850       -17.3568
 109   2.0000      -0.635116       -17.2824
 110   2.0000      -0.629502       -17.1296
 111   2.0000      -0.628749       -17.1091
 112   2.0000      -0.623290       -16.9606
 113   2.0000      -0.616613       -16.7789
 114   2.0000      -0.609489       -16.5850
 115   2.0000      -0.605830       -16.4855
 116   2.0000      -0.603283       -16.4162
 117   2.0000      -0.598030       -16.2732
 118   2.0000      -0.595293       -16.1987
 119   2.0000      -0.590118       -16.0579
 120   2.0000      -0.588198       -16.0057
 121   2.0000      -0.585386       -15.9292
 122   2.0000      -0.583088       -15.8666
 123   2.0000      -0.581655       -15.8276
 124   2.0000      -0.576561       -15.6890
 125   2.0000      -0.572844       -15.5879
 126   2.0000      -0.569153       -15.4874
 127   2.0000      -0.568110       -15.4591
 128   2.0000      -0.565519       -15.3886
 129   2.0000      -0.551716       -15.0129
 130   2.0000      -0.548027       -14.9126
 131   2.0000      -0.546356       -14.8671
 132   2.0000      -0.545661       -14.8482
 133   2.0000      -0.542134       -14.7522
 134   2.0000      -0.539680       -14.6854
 135   2.0000      -0.536916       -14.6102
 136   2.0000      -0.535502       -14.5717
 137   2.0000      -0.533327       -14.5126
 138   2.0000      -0.532621       -14.4934
 139   2.0000      -0.530898       -14.4465
 140   2.0000      -0.530074       -14.4241
 141   2.0000      -0.527038       -14.3414
 142   2.0000      -0.525751       -14.3064
 143   2.0000      -0.524876       -14.2826
 144   2.0000      -0.521961       -14.2033
 145   2.0000      -0.518698       -14.1145
 146   2.0000      -0.512734       -13.9522
 147   2.0000      -0.509273       -13.8580
 148   2.0000      -0.502075       -13.6622
 149   2.0000      -0.498078       -13.5534
 150   2.0000      -0.485020       -13.1981
 151   2.0000      -0.483355       -13.1528
 152   2.0000      -0.481662       -13.1067
 153   2.0000      -0.481302       -13.0969
 154   2.0000      -0.480871       -13.0852
 155   2.0000      -0.475865       -12.9489
 156   2.0000      -0.474855       -12.9215
 157   2.0000      -0.473994       -12.8980
 158   2.0000      -0.472298       -12.8519
 159   2.0000      -0.463801       -12.6207
 160   2.0000      -0.461368       -12.5545
 161   2.0000      -0.460628       -12.5343
 162   2.0000      -0.460044       -12.5184
 163   2.0000      -0.458716       -12.4823
 164   2.0000      -0.453728       -12.3466
 165   2.0000      -0.449110       -12.2209
 166   2.0000      -0.446087       -12.1386
 167   2.0000      -0.436552       -11.8792
 168   2.0000      -0.436246       -11.8708
 169   2.0000      -0.430214       -11.7067
 170   2.0000      -0.420818       -11.4510
 171   2.0000      -0.412215       -11.2169
 172   2.0000      -0.410899       -11.1811
 173   2.0000      -0.405460       -11.0331
 174   2.0000      -0.403467       -10.9789
 175   2.0000      -0.402208       -10.9446
 176   2.0000      -0.392995       -10.6939
 177   2.0000      -0.368827       -10.0363
 178   2.0000      -0.350730        -9.5438
 179   2.0000      -0.336807        -9.1650
 180   2.0000      -0.323744        -8.8095
 181   2.0000      -0.322940        -8.7876
 182   0.0000       0.049187         1.3385
 183   0.0000       0.057596         1.5673
 184   0.0000       0.073553         2.0015
 185   0.0000       0.077860         2.1187
 186   0.0000       0.118358         3.2207

MULLIKEN ATOMIC CHARGES
-----------------------
   0 C :    0.187660
   1 C :   -0.071489
   2 C :   -0.214035
   3 C :    0.093478
   4 H :    0.176536
   5 C :   -0.224977
   6 C :    0.173609
   7 H :    0.177077
   8 C :   -0.212183
   9 C :   -0.071489
  10 H :    0.174962
  11 C :    0.173047
  12 H :    0.091598
  13 H :    0.091193
  14 C :    0.187033
  15 C :   -0.072192
  16 C :   -0.240015
  17 C :    0.196496
  18 H :    0.170664
  19 C :   -0.221062
  20 C :    0.189071
  21 H :    0.168530
  22 C :   -0.245461
  23 C :   -0.137250
  24 H :    0.166891
  25 C :   -0.081356
  26 H :    0.089060
  27 C :    0.046292
  28 C :    0.046126
  29 N :   -0.309340
  30 H :    0.109800
  31 C :   -0.065598
  32 N :   -0.309585
  33 H :    0.111884
  34 C :   -0.067150
  35 H :    0.115067
  36 C :   -0.326921
  37 C :   -0.327470
  38 C :   -0.322466
  39 O :   -0.377500
  40 C :    0.043653
  41 C :    0.045097
  42 N :   -0.305403
  43 H :    0.109516
  44 C :   -0.066228
  45 N :   -0.305034
  46 H :    0.111132
  47 C :   -0.066217
  48 H :    0.114020
  49 C :   -0.324604
  50 H :    0.114551
  51 C :   -0.327208
  52 C :   -0.021521
  53 C :    0.001971
  54 N :   -0.392702
  55 H :    0.126074
  56 C :   -0.039869
  57 N :   -0.263602
  58 H :    0.112754
  59 C :   -0.034918
  60 H :    0.114589
  61 C :   -0.344752
  62 H :    0.110594
  63 C :   -0.331902
  64 H :    0.089285
  65 H :    0.138230
  66 H :    0.094560
  67 H :    0.106531
  68 C :   -0.322871
  69 H :    0.115981
  70 C :   -0.321509
  71 C :   -0.320649
  72 C :   -0.333226
  73 C :   -0.320755
  74 H :    0.158771
  75 H :    0.096864
  76 H :    0.108313
  77 H :    0.107794
  78 H :    0.093998
  79 H :    0.107267
  80 H :    0.103794
  81 H :    0.107185
  82 H :    0.096207
  83 H :    0.109815
  84 H :    0.102460
  85 H :    0.095157
  86 H :    0.108311
  87 H :    0.072620
  88 H :    0.134597
  89 H :    0.107648
  90 H :    0.097458
  91 H :    0.095657
  92 H :    0.109695
  93 H :    0.111923
  94 H :    0.102273
  95 H :    0.083797
  96 H :    0.102771
  97 H :    0.101466
  98 H :    0.104952
  99 H :    0.094153
 100 H :    0.107368
 101 H :    0.102070
 102 H :    0.102763
 103 H :    0.095334
 104 H :    0.108672
 105 H :    0.095570
 106 H :    0.109349
 107 H :    0.107054
 108 H :    0.109118
 109 H :    0.107441
 110 H :    0.096212
Sum of atomic charges:   -0.0000000

LOEWDIN ATOMIC CHARGES
----------------------
   0 C :   -0.072202
   1 C :   -0.066443
   2 C :    0.103451
   3 C :   -0.093370
   4 H :   -0.011992
   5 C :    0.104216
   6 C :   -0.073825
   7 H :   -0.015236
   8 C :    0.108605
   9 C :   -0.069021
  10 H :   -0.016418
  11 C :   -0.142366
  12 H :   -0.033622
  13 H :   -0.032581
  14 C :   -0.076154
  15 C :   -0.069606
  16 C :    0.092658
  17 C :   -0.076164
  18 H :   -0.020724
  19 C :    0.092850
  20 C :   -0.074558
  21 H :   -0.019807
  22 C :    0.091600
  23 C :   -0.075391
  24 H :   -0.018325
  25 C :   -0.065712
  26 H :   -0.033791
  27 C :   -0.098314
  28 C :   -0.096016
  29 N :    0.229339
  30 H :   -0.031009
  31 C :   -0.026361
  32 N :    0.233547
  33 H :   -0.030761
  34 C :   -0.025733
  35 H :   -0.023744
  36 C :    0.116011
  37 C :    0.115812
  38 C :    0.116584
  39 O :    0.138063
  40 C :   -0.096915
  41 C :   -0.096196
  42 N :    0.232619
  43 H :   -0.031008
  44 C :   -0.025956
  45 N :    0.234462
  46 H :   -0.031538
  47 C :   -0.024974
  48 H :   -0.023723
  49 C :    0.116039
  50 H :   -0.023782
  51 C :    0.115882
  52 C :   -0.075004
  53 C :   -0.097518
  54 N :    0.338969
  55 H :   -0.026940
  56 C :   -0.025019
  57 N :    0.239915
  58 H :   -0.037375
  59 C :   -0.028071
  60 H :   -0.015717
  61 C :    0.115265
  62 H :   -0.020759
  63 C :    0.113183
  64 H :   -0.033786
  65 H :   -0.118080
  66 H :   -0.034482
  67 H :   -0.030960
  68 C :    0.116619
  69 H :   -0.023157
  70 C :    0.116875
  71 C :    0.116622
  72 C :    0.113586
  73 C :    0.115170
  74 H :   -0.116614
  75 H :   -0.035283
  76 H :   -0.029236
  77 H :   -0.027701
  78 H :   -0.030441
  79 H :   -0.030092
  80 H :   -0.029217
  81 H :   -0.027905
  82 H :   -0.035433
  83 H :   -0.028903
  84 H :   -0.029475
  85 H :   -0.030336
  86 H :   -0.029497
  87 H :   -0.039044
  88 H :   -0.029045
  89 H :   -0.027680
  90 H :   -0.031263
  91 H :   -0.031736
  92 H :   -0.028214
  93 H :   -0.027802
  94 H :   -0.030429
  95 H :   -0.034623
  96 H :   -0.030696
  97 H :   -0.032299
  98 H :   -0.029737
  99 H :   -0.030625
 100 H :   -0.029614
 101 H :   -0.029636
 102 H :   -0.029501
 103 H :   -0.030612
 104 H :   -0.029398
 105 H :   -0.035596
 106 H :   -0.029245
 107 H :   -0.028091
 108 H :   -0.029419
 109 H :   -0.028011
 110 H :   -0.035289

  Mayer bond orders larger than 0.100000
B(  0-C ,  1-C ) :   1.0172 B(  0-C ,  2-C ) :   1.3879 B(  0-C ,  8-C ) :   1.2787
B(  1-C , 13-H ) :   0.9897 B(  1-C , 32-N ) :   1.9399 B(  2-C ,  3-C ) :   1.2701
B(  2-C ,  4-H ) :   0.9614 B(  3-C ,  5-C ) :   1.3701 B(  3-C , 11-C ) :   0.9432
B(  5-C ,  6-C ) :   1.2812 B(  5-C ,  7-H ) :   0.9567 B(  6-C ,  8-C ) :   1.3813
B(  6-C ,  9-C ) :   1.0164 B(  8-C , 10-H ) :   0.9594 B(  9-C , 12-H ) :   0.9915
B(  9-C , 42-N ) :   1.9388 B( 11-C , 39-O ) :   2.0287 B( 11-C , 67-H ) :   1.0161
B( 14-C , 15-C ) :   1.0203 B( 14-C , 16-C ) :   1.3794 B( 14-C , 22-C ) :   1.2839
B( 15-C , 29-N ) :   1.9304 B( 15-C , 64-H ) :   0.9914 B( 16-C , 17-C ) :   1.2787
B( 16-C , 18-H ) :   0.9613 B( 17-C , 19-C ) :   1.3941 B( 17-C , 25-C ) :   1.0095
B( 19-C , 20-C ) :   1.2919 B( 19-C , 21-H ) :   0.9614 B( 20-C , 22-C ) :   1.3949
B( 20-C , 23-C ) :   1.0115 B( 22-C , 24-H ) :   0.9634 B( 23-C , 57-N ) :   1.9749
B( 23-C , 66-H ) :   0.9869 B( 25-C , 26-H ) :   0.9913 B( 25-C , 45-N ) :   1.9389
B( 27-C , 28-C ) :   0.9613 B( 27-C , 29-N ) :   0.9238 B( 27-C , 30-H ) :   0.9810
B( 27-C , 31-C ) :   0.9497 B( 28-C , 32-N ) :   0.9208 B( 28-C , 33-H ) :   0.9806
B( 28-C , 34-C ) :   0.9481 B( 31-C , 35-H ) :   0.9792 B( 31-C , 36-C ) :   0.9499
B( 31-C , 68-C ) :   0.9470 B( 34-C , 37-C ) :   0.9499 B( 34-C , 38-C ) :   0.9472
B( 34-C , 69-H ) :   0.9788 B( 36-C , 78-H ) :   0.9855 B( 36-C , 79-H ) :   0.9873
B( 36-C , 80-H ) :   0.9796 B( 37-C , 84-H ) :   0.9798 B( 37-C , 85-H ) :   0.9854
B( 37-C , 86-H ) :   0.9872 B( 38-C , 75-H ) :   0.9834 B( 38-C , 76-H ) :   0.9753
B( 38-C , 77-H ) :   0.9875 B( 40-C , 41-C ) :   0.9635 B( 40-C , 42-N ) :   0.9225
B( 40-C , 43-H ) :   0.9824 B( 40-C , 44-C ) :   0.9509 B( 41-C , 45-N ) :   0.9220
B( 41-C , 46-H ) :   0.9812 B( 41-C , 47-C ) :   0.9484 B( 44-C , 48-H ) :   0.9800
B( 44-C , 49-C ) :   0.9500 B( 44-C , 70-C ) :   0.9469 B( 47-C , 50-H ) :   0.9797
B( 47-C , 51-C ) :   0.9497 B( 47-C , 71-C ) :   0.9472 B( 49-C , 99-H ) :   0.9856
B( 49-C ,100-H ) :   0.9872 B( 49-C ,101-H ) :   0.9795 B( 51-C ,102-H ) :   0.9796
B( 51-C ,103-H ) :   0.9853 B( 51-C ,104-H ) :   0.9871 B( 52-C , 53-C ) :   0.9184
B( 52-C , 54-N ) :   1.0311 B( 52-C , 55-H ) :   1.0000 B( 52-C , 56-C ) :   0.9586
B( 53-C , 57-N ) :   0.9197 B( 53-C , 58-H ) :   0.9914 B( 53-C , 59-C ) :   0.9572
B( 54-N , 65-H ) :   0.9996 B( 54-N , 74-H ) :   0.9909 B( 56-C , 60-H ) :   0.9827
B( 56-C , 61-C ) :   0.9474 B( 56-C , 72-C ) :   0.9429 B( 59-C , 62-H ) :   0.9779
B( 59-C , 63-C ) :   0.9472 B( 59-C , 73-C ) :   0.9484 B( 61-C , 87-H ) :   0.9784
B( 61-C , 88-H ) :   0.9741 B( 61-C , 89-H ) :   0.9850 B( 63-C , 90-H ) :   0.9798
B( 63-C , 91-H ) :   0.9869 B( 63-C , 92-H ) :   0.9862 B( 68-C , 81-H ) :   0.9877
B( 68-C , 82-H ) :   0.9834 B( 68-C , 83-H ) :   0.9750 B( 70-C ,108-H ) :   0.9749
B( 70-C ,109-H ) :   0.9876 B( 70-C ,110-H ) :   0.9837 B( 71-C ,105-H ) :   0.9838
B( 71-C ,106-H ) :   0.9748 B( 71-C ,107-H ) :   0.9874 B( 72-C , 93-H ) :   0.9873
B( 72-C , 94-H ) :   0.9867 B( 72-C , 95-H ) :   0.9761 B( 73-C , 96-H ) :   0.9851
B( 73-C , 97-H ) :   0.9756 B( 73-C , 98-H ) :   0.9864

MP2 TOTAL ENERGY:    -2037.216836239 Eh
FINAL SINGLE POINT ENERGY     -2037.216836239380

DIPOLE MOMENT
-------------
                                X             Y             Z
Electronic contribution:    -15.51337       7.02972       3.58944
Nuclear contribution   :     15.04142      -8.42285      -3.80294
                        -----------------------------------------
Total Dipole Moment    :     -0.47195      -1.39313      -0.21350
                        -----------------------------------------
Magnitude (a.u.)       :      1.48631
Magnitude (Debye)      :      3.77790

Rotational constants in cm-1:     0.001757     0.001601     0.001097
Rotational constants in MHz :    52.684949    48.008073    32.893913

                             ****ORCA TERMINATED NORMALLY****
TOTAL RUN TIME: 0 days 2 hours 9 minutes 29 seconds 926 msec
