                         Program Version 4.2.1 -  RELEASE  -
|  1> ! DFT COPT B97-3c TightSCF printbasis  Grid6 NOFINALGRID SlowConv
|  2>
|  3> %base "_o_2_alde1_3_ami3_2_opt_B97-3c"
|  4> %maxcore 3000
|  5> %scf
|  6>    MaxIter 2000
|  7> end
|  8> %pal
|  9>    nprocs 32
| 10> end
| 11>
| 12> * xyzfile 0 1 o_2_alde1_3_ami3_2_opt.xyz
| 13> # * xyzfile 0 1 _o_2_alde1_3_ami3_2_opt_B97-3c.xyz
| 14>
| 15>                          ****END OF INPUT****
 Total Charge           Charge          ....    0
 Multiplicity           Mult            ....    1
 Number of Electrons    NEL             ....  310
Dispersion correction           -0.259779292
FINAL SINGLE POINT ENERGY     -1801.179918523660
Dispersion correction            ... done
Dispersion correction           -0.259773674
FINAL SINGLE POINT ENERGY     -1801.181291756875
Dispersion correction            ... done
Dispersion correction           -0.259785888
FINAL SINGLE POINT ENERGY     -1801.181846175362
Dispersion correction            ... done
FINAL SINGLE POINT ENERGY     -1801.182350815440
FINAL SINGLE POINT ENERGY     -1801.182635829178
FINAL SINGLE POINT ENERGY     -1801.182790859108
FINAL SINGLE POINT ENERGY     -1801.182908703123
FINAL SINGLE POINT ENERGY     -1801.183036078844
FINAL SINGLE POINT ENERGY     -1801.183171395636
FINAL SINGLE POINT ENERGY     -1801.183292780127
FINAL SINGLE POINT ENERGY     -1801.184999913114
FINAL SINGLE POINT ENERGY     -1801.185007832179
FINAL SINGLE POINT ENERGY     -1801.185015443341
FINAL SINGLE POINT ENERGY     -1801.185022510658
FINAL SINGLE POINT ENERGY     -1801.185029153848
FINAL SINGLE POINT ENERGY     -1801.185036078327
FINAL SINGLE POINT ENERGY     -1801.185042557112
Dispersion correction            ... done
Dispersion correction           -0.256803232
FINAL SINGLE POINT ENERGY     -1801.185047731647
Dispersion correction            ... done
Dispersion correction           -0.256801936
FINAL SINGLE POINT ENERGY     -1801.185051935854
Dispersion correction            ... done
                    ***********************HURRAY********************

CARTESIAN COORDINATES (ANGSTROEM)
---------------------------------
  C     -3.579622   -1.777604   -0.770315
  C     -3.855083   -1.386097    0.609961
  C     -2.713461   -2.827110   -1.086238
  C     -2.364223   -3.071852   -2.406143
  H     -2.301380   -3.425094   -0.283513
  C     -2.851826   -2.246843   -3.424322
  C     -3.723239   -1.209487   -3.128202
  H     -2.525941   -2.429223   -4.440423
  C     -4.098216   -1.000653   -1.796950
  C     -4.141750   -0.275066   -4.174030
  H     -4.762012   -0.175826   -1.575805
  C     -1.446507   -4.178967   -2.714658
  H     -3.565537   -0.329033   -5.107806
  H     -4.617160   -0.604975    0.727167
  C     -1.270724    1.728519    0.050490
  C     -1.287793    0.952970    1.289290
  C     -2.462132    2.086817   -0.586733
  C     -2.447753    2.679817   -1.841061
  H     -3.399159    1.841104   -0.105538
  C     -1.220728    2.983060   -2.440194
  C     -0.027663    2.674462   -1.800741
  H     -1.219764    3.439345   -3.421577
  C     -0.062758    2.020565   -0.564071
  C      1.246487    3.011674   -2.435013
  H      0.875418    1.744810   -0.101037
  C     -3.721007    2.847411   -2.536972
  H     -4.610168    2.675158   -1.915560
  C     -2.285713   -0.155122    3.080846
  C     -3.420058   -1.184375    2.874285
  N     -2.335101    0.782206    1.985640
  H     -1.335915   -0.709758    3.093793
  C     -2.460841    0.550024    4.420455
  N     -3.203188   -1.835752    1.602884
  H     -4.358639   -0.610980    2.873146
  C     -3.445059   -2.185774    4.016648
  H     -3.381169    1.136775    4.390357
  C     -2.504736   -0.447141    5.568679
  H     -2.521615   -2.768076    3.991730
  C     -3.594296   -1.489067    5.360333
  H     -2.654657    0.079999    6.512312
  H     -1.537096   -0.950927    5.647091
  H     -3.575383   -2.224552    6.165723
  H     -4.572246   -1.001997    5.410094
  O     -1.059561   -4.474727   -3.827190
  C     -5.264937    1.585098   -5.021366
  C     -5.139509    2.977064   -4.361808
  N     -5.054796    0.588333   -3.999293
  H     -4.497358    1.523656   -5.806312
  C     -6.638814    1.432071   -5.663300
  N     -3.818971    3.078291   -3.782582
  H     -5.919822    3.023767   -3.587575
  C     -5.386438    4.070027   -5.388910
  H     -7.397344    1.448748   -4.878038
  C     -6.901091    2.536356   -6.676337
  H     -4.595809    4.027019   -6.140714
  C     -6.747997    3.914493   -6.049180
  H     -6.195415    2.440830   -7.506388
  H     -7.897608    2.417740   -7.104692
  H     -6.889412    4.692071   -6.801474
  H     -7.534375    4.060402   -5.302967
  C      4.347907    1.812779   -3.017277
  C      3.575554    3.074171   -2.620011
  N      3.544015    1.034492   -3.955124
  H      4.559336    1.268678   -2.084446
  C      5.673383    2.189687   -3.659758
  N      2.366464    2.692205   -1.927700
  H      3.349670    3.618214   -3.549603
  C      4.419119    3.959806   -1.706214
  H      5.466474    2.705095   -4.600711
  C      6.517840    3.071628   -2.753293
  H      4.581482    3.427548   -0.766877
  C      5.752499    4.319671   -2.340498
  H      7.448774    3.341653   -3.254352
  H      6.799972    2.509045   -1.858849
  H      6.343701    4.919300   -1.646329
  H      5.582591    4.945579   -3.220716
  H     -0.336154    0.469601    1.551428
  H      2.717985    0.687107   -3.483838
  H      1.177383    3.563033   -3.382421
  H     -1.110739   -4.756041   -1.828539
  H     -1.642619    1.258846    4.554618
  H     -4.261559   -2.889739    3.851836
  H     -6.699265    0.451091   -6.136562
  H     -5.299366    5.041370   -4.901311
  H      6.218432    1.277889   -3.917867
  H      3.851229    4.857710   -1.460231
  H      4.064886    0.218895   -4.253916

 Multiplicity           Mult            ....    1
 Number of Electrons    NEL             ....  310
 Basis Dimension        Dim             ....  954

ORBITAL ENERGIES
----------------

  NO   OCC          E(Eh)            E(eV)
   0   2.0000     -18.741352      -509.9781
   1   2.0000     -13.985888      -380.5754
   2   2.0000     -13.983151      -380.5009
   3   2.0000     -13.982836      -380.4923
   4   2.0000     -13.979972      -380.4144
   5   2.0000     -13.979511      -380.4018
   6   2.0000     -13.961934      -379.9235
   7   2.0000      -9.977914      -271.5128
   8   2.0000      -9.940113      -270.4842
   9   2.0000      -9.937133      -270.4031
  10   2.0000      -9.936948      -270.3981
  11   2.0000      -9.933422      -270.3022
  12   2.0000      -9.933361      -270.3005
  13   2.0000      -9.924105      -270.0486
  14   2.0000      -9.924055      -270.0473
  15   2.0000      -9.922021      -269.9919
  16   2.0000      -9.920927      -269.9622
  17   2.0000      -9.919818      -269.9320
  18   2.0000      -9.919077      -269.9118
  19   2.0000      -9.918098      -269.8852
  20   2.0000      -9.917093      -269.8578
  21   2.0000      -9.916765      -269.8489
  22   2.0000      -9.916467      -269.8408
  23   2.0000      -9.913035      -269.7474
  24   2.0000      -9.912160      -269.7236
  25   2.0000      -9.912009      -269.7195
  26   2.0000      -9.911927      -269.7172
  27   2.0000      -9.911832      -269.7147
  28   2.0000      -9.907708      -269.6024
  29   2.0000      -9.907635      -269.6005
  30   2.0000      -9.906747      -269.5763
  31   2.0000      -9.890160      -269.1249
  32   2.0000      -9.890149      -269.1246
  33   2.0000      -9.889296      -269.1014
  34   2.0000      -9.888740      -269.0863
  35   2.0000      -9.888452      -269.0785
  36   2.0000      -9.887722      -269.0586
  37   2.0000      -9.886809      -269.0338
  38   2.0000      -9.885636      -269.0018
  39   2.0000      -9.883487      -268.9434
  40   2.0000      -9.883286      -268.9379
  41   2.0000      -9.882696      -268.9218
  42   2.0000      -9.881721      -268.8953
  43   2.0000      -0.964797       -26.2535
  44   2.0000      -0.873406       -23.7666
  45   2.0000      -0.872023       -23.7290
  46   2.0000      -0.859626       -23.3916
  47   2.0000      -0.849539       -23.1171
  48   2.0000      -0.845983       -23.0204
  49   2.0000      -0.813390       -22.1335
  50   2.0000      -0.810645       -22.0588
  51   2.0000      -0.799364       -21.7518
  52   2.0000      -0.766289       -20.8518
  53   2.0000      -0.761476       -20.7208
  54   2.0000      -0.748891       -20.3784
  55   2.0000      -0.723990       -19.7008
  56   2.0000      -0.723152       -19.6780
  57   2.0000      -0.718049       -19.5391
  58   2.0000      -0.717172       -19.5153
  59   2.0000      -0.683196       -18.5907
  60   2.0000      -0.679710       -18.4958
  61   2.0000      -0.679205       -18.4821
  62   2.0000      -0.672065       -18.2878
  63   2.0000      -0.670473       -18.2445
  64   2.0000      -0.657296       -17.8859
  65   2.0000      -0.609871       -16.5954
  66   2.0000      -0.607269       -16.5246
  67   2.0000      -0.601795       -16.3757
  68   2.0000      -0.596294       -16.2260
  69   2.0000      -0.593741       -16.1565
  70   2.0000      -0.582949       -15.8628
  71   2.0000      -0.557969       -15.1831
  72   2.0000      -0.554158       -15.0794
  73   2.0000      -0.552188       -15.0258
  74   2.0000      -0.548165       -14.9163
  75   2.0000      -0.543478       -14.7888
  76   2.0000      -0.535550       -14.5731
  77   2.0000      -0.513834       -13.9821
  78   2.0000      -0.512472       -13.9451
  79   2.0000      -0.503181       -13.6922
  80   2.0000      -0.500942       -13.6313
  81   2.0000      -0.498304       -13.5595
  82   2.0000      -0.492865       -13.4115
  83   2.0000      -0.491590       -13.3768
  84   2.0000      -0.475555       -12.9405
  85   2.0000      -0.468391       -12.7456
  86   2.0000      -0.462894       -12.5960
  87   2.0000      -0.460249       -12.5240
  88   2.0000      -0.450626       -12.2622
  89   2.0000      -0.442580       -12.0432
  90   2.0000      -0.438484       -11.9318
  91   2.0000      -0.434822       -11.8321
  92   2.0000      -0.432841       -11.7782
  93   2.0000      -0.428447       -11.6586
  94   2.0000      -0.426722       -11.6117
  95   2.0000      -0.418852       -11.3976
  96   2.0000      -0.415772       -11.3137
  97   2.0000      -0.413198       -11.2437
  98   2.0000      -0.408792       -11.1238
  99   2.0000      -0.405197       -11.0260
 100   2.0000      -0.401916       -10.9367
 101   2.0000      -0.400130       -10.8881
 102   2.0000      -0.395628       -10.7656
 103   2.0000      -0.394334       -10.7304
 104   2.0000      -0.389648       -10.6029
 105   2.0000      -0.387056       -10.5323
 106   2.0000      -0.384113       -10.4522
 107   2.0000      -0.382174       -10.3995
 108   2.0000      -0.381674       -10.3859
 109   2.0000      -0.379480       -10.3262
 110   2.0000      -0.375208       -10.2099
 111   2.0000      -0.367384        -9.9970
 112   2.0000      -0.366403        -9.9703
 113   2.0000      -0.361818        -9.8456
 114   2.0000      -0.357945        -9.7402
 115   2.0000      -0.350571        -9.5395
 116   2.0000      -0.348672        -9.4878
 117   2.0000      -0.347214        -9.4482
 118   2.0000      -0.343076        -9.3356
 119   2.0000      -0.341228        -9.2853
 120   2.0000      -0.335598        -9.1321
 121   2.0000      -0.335181        -9.1207
 122   2.0000      -0.327833        -8.9208
 123   2.0000      -0.326750        -8.8913
 124   2.0000      -0.319104        -8.6833
 125   2.0000      -0.314594        -8.5605
 126   2.0000      -0.312920        -8.5150
 127   2.0000      -0.312264        -8.4971
 128   2.0000      -0.312141        -8.4938
 129   2.0000      -0.309710        -8.4276
 130   2.0000      -0.309451        -8.4206
 131   2.0000      -0.307164        -8.3584
 132   2.0000      -0.305629        -8.3166
 133   2.0000      -0.296971        -8.0810
 134   2.0000      -0.293182        -7.9779
 135   2.0000      -0.289651        -7.8818
 136   2.0000      -0.287262        -7.8168
 137   2.0000      -0.283566        -7.7162
 138   2.0000      -0.280799        -7.6409
 139   2.0000      -0.277525        -7.5518
 140   2.0000      -0.274876        -7.4798
 141   2.0000      -0.270510        -7.3609
 142   2.0000      -0.268227        -7.2988
 143   2.0000      -0.252790        -6.8788
 144   2.0000      -0.237060        -6.4507
 145   2.0000      -0.229608        -6.2479
 146   2.0000      -0.226641        -6.1672
 147   2.0000      -0.225278        -6.1301
 148   2.0000      -0.221980        -6.0404
 149   2.0000      -0.220296        -5.9946
 150   2.0000      -0.219738        -5.9794
 151   2.0000      -0.217786        -5.9263
 152   2.0000      -0.216215        -5.8835
 153   2.0000      -0.215292        -5.8584
 154   2.0000      -0.195990        -5.3332
 155   0.0000      -0.102367        -2.7856
 156   0.0000      -0.093935        -2.5561
 157   0.0000      -0.085970        -2.3394
 158   0.0000      -0.084591        -2.3018
 159   0.0000      -0.065358        -1.7785

MULLIKEN ATOMIC CHARGES
-----------------------
   0 C :    0.248220
   1 C :   -0.299056
   2 C :   -0.163422
   3 C :    0.213041
   4 H :    0.217946
   5 C :   -0.196707
   6 C :    0.249070
   7 H :    0.227222
   8 C :   -0.136977
   9 C :   -0.329474
  10 H :    0.212216
  11 C :   -0.145253
  12 H :    0.115559
  13 H :    0.117357
  14 C :    0.272190
  15 C :   -0.349212
  16 C :   -0.145687
  17 C :    0.291840
  18 H :    0.207476
  19 C :   -0.223948
  20 C :    0.286189
  21 H :    0.209787
  22 C :   -0.249191
  23 C :   -0.356517
  24 H :    0.214516
  25 C :   -0.318495
  26 H :    0.113797
  27 C :   -0.232081
  28 C :   -0.244646
  29 N :   -0.046463
  30 H :    0.125092
  31 C :   -0.261302
  32 N :   -0.049107
  33 H :    0.127131
  34 C :   -0.270211
  35 H :    0.157470
  36 C :   -0.280351
  37 H :    0.156258
  38 C :   -0.293745
  39 H :    0.176488
  40 H :    0.140029
  41 H :    0.177289
  42 H :    0.140304
  43 O :   -0.311443
  44 C :   -0.239853
  45 C :   -0.237282
  46 N :   -0.047125
  47 H :    0.128423
  48 C :   -0.259840
  49 N :   -0.047133
  50 H :    0.124805
  51 C :   -0.272974
  52 H :    0.157019
  53 C :   -0.280954
  54 H :    0.157541
  55 C :   -0.292790
  56 H :    0.140658
  57 H :    0.176658
  58 H :    0.177208
  59 H :    0.139682
  60 C :   -0.092221
  61 C :   -0.215788
  62 N :   -0.649824
  63 H :    0.143212
  64 C :   -0.320387
  65 N :   -0.061734
  66 H :    0.116961
  67 C :   -0.266797
  68 H :    0.162050
  69 C :   -0.287036
  70 H :    0.154408
  71 C :   -0.294262
  72 H :    0.175185
  73 H :    0.139242
  74 H :    0.171938
  75 H :    0.141168
  76 H :    0.110543
  77 H :    0.314716
  78 H :    0.119577
  79 H :    0.110546
  80 H :    0.170043
  81 H :    0.171234
  82 H :    0.169790
  83 H :    0.171746
  84 H :    0.156056
  85 H :    0.167318
  86 H :    0.305075
Sum of atomic charges:   -0.0000000

LOEWDIN ATOMIC CHARGES
----------------------
   0 C :   -0.077523
   1 C :   -0.034721
   2 C :   -0.094120
   3 C :   -0.068475
   4 H :    0.185936
   5 C :   -0.084669
   6 C :   -0.075549
   7 H :    0.192416
   8 C :   -0.093730
   9 C :   -0.026945
  10 H :    0.183011
  11 C :    0.211305
  12 H :    0.144743
  13 H :    0.144580
  14 C :   -0.079768
  15 C :   -0.026050
  16 C :   -0.108620
  17 C :   -0.078670
  18 H :    0.179949
  19 C :   -0.106412
  20 C :   -0.080398
  21 H :    0.183544
  22 C :   -0.107960
  23 C :   -0.036812
  24 H :    0.183787
  25 C :   -0.034463
  26 H :    0.142474
  27 C :   -0.121059
  28 C :   -0.124953
  29 N :   -0.176106
  30 H :    0.148061
  31 C :   -0.286722
  32 N :   -0.174158
  33 H :    0.149782
  34 C :   -0.290994
  35 H :    0.161449
  36 C :   -0.296219
  37 H :    0.160714
  38 C :   -0.296595
  39 H :    0.156079
  40 H :    0.153619
  41 H :    0.155939
  42 H :    0.153454
  43 O :   -0.467027
  44 C :   -0.121458
  45 C :   -0.124369
  46 N :   -0.171113
  47 H :    0.149068
  48 C :   -0.286500
  49 N :   -0.177365
  50 H :    0.148827
  51 C :   -0.290994
  52 H :    0.161363
  53 C :   -0.296188
  54 H :    0.161116
  55 C :   -0.296541
  56 H :    0.153914
  57 H :    0.156056
  58 H :    0.155882
  59 H :    0.153237
  60 C :   -0.128812
  61 C :   -0.131297
  62 N :   -0.528698
  63 H :    0.140670
  64 C :   -0.297552
  65 N :   -0.179875
  66 H :    0.147741
  67 C :   -0.289013
  68 H :    0.160915
  69 C :   -0.296781
  70 H :    0.160358
  71 C :   -0.296728
  72 H :    0.154429
  73 H :    0.152590
  74 H :    0.154909
  75 H :    0.153167
  76 H :    0.142802
  77 H :    0.261157
  78 H :    0.145146
  79 H :    0.153204
  80 H :    0.159190
  81 H :    0.159681
  82 H :    0.159058
  83 H :    0.159811
  84 H :    0.152605
  85 H :    0.157567
  86 H :    0.256696

  Mayer bond orders larger than 0.100000
B(  0-C ,  1-C ) :   0.9515 B(  0-C ,  2-C ) :   1.4098 B(  0-C ,  3-C ) :   0.1020
B(  0-C ,  6-C ) :   0.1285 B(  0-C ,  8-C ) :   1.1524 B(  0-C , 32-N ) :  -0.1734
B(  1-C , 13-H ) :   0.8964 B(  1-C , 32-N ) :   1.9334 B(  2-C ,  3-C ) :   1.2314
B(  2-C ,  4-H ) :   0.8610 B(  2-C , 32-N ) :   0.1042 B(  3-C ,  5-C ) :   1.2585
B(  3-C , 11-C ) :   0.9008 B(  3-C , 43-O ) :  -0.1638 B(  5-C ,  6-C ) :   1.1652
B(  5-C ,  7-H ) :   0.9078 B(  6-C ,  8-C ) :   1.3808 B(  6-C ,  9-C ) :   0.9449
B(  6-C , 46-N ) :  -0.1816 B(  8-C , 10-H ) :   0.8744 B(  9-C , 12-H ) :   0.9062
B(  9-C , 46-N ) :   1.9655 B( 11-C , 43-O ) :   2.0710 B( 11-C , 79-H ) :   0.9551
B( 14-C , 15-C ) :   0.9303 B( 14-C , 16-C ) :   1.3934 B( 14-C , 17-C ) :   0.1246
B( 14-C , 20-C ) :   0.1110 B( 14-C , 22-C ) :   1.1460 B( 14-C , 29-N ) :  -0.1865
B( 15-C , 29-N ) :   1.9614 B( 15-C , 76-H ) :   0.9081 B( 16-C , 17-C ) :   1.1370
B( 16-C , 18-H ) :   0.8760 B( 17-C , 19-C ) :   1.3639 B( 17-C , 20-C ) :   0.1204
B( 17-C , 25-C ) :   0.9479 B( 17-C , 49-N ) :  -0.1760 B( 19-C , 20-C ) :   1.1852
B( 19-C , 21-H ) :   0.8921 B( 19-C , 49-N ) :   0.1067 B( 20-C , 22-C ) :   1.3579
B( 20-C , 23-C ) :   0.9506 B( 20-C , 65-N ) :  -0.1909 B( 22-C , 24-H ) :   0.8979
B( 23-C , 65-N ) :   1.9339 B( 23-C , 78-H ) :   0.8989 B( 25-C , 26-H ) :   0.8931
B( 25-C , 49-N ) :   1.9334 B( 27-C , 28-C ) :   0.8671 B( 27-C , 29-N ) :   0.9259
B( 27-C , 30-H ) :   0.9260 B( 27-C , 31-C ) :   0.9669 B( 28-C , 32-N ) :   0.9767
B( 28-C , 33-H ) :   0.9283 B( 28-C , 34-C ) :   0.9532 B( 31-C , 35-H ) :   0.9496
B( 31-C , 36-C ) :   0.9836 B( 31-C , 80-H ) :   0.9284 B( 32-N , 34-C ) :  -0.1137
B( 34-C , 37-H ) :   0.9559 B( 34-C , 38-C ) :   0.9803 B( 34-C , 81-H ) :   0.9367
B( 36-C , 38-C ) :   0.9954 B( 36-C , 39-H ) :   0.9383 B( 36-C , 40-H ) :   0.9461
B( 38-C , 41-H ) :   0.9397 B( 38-C , 42-H ) :   0.9472 B( 44-C , 45-C ) :   0.8675
B( 44-C , 46-N ) :   0.9242 B( 44-C , 47-H ) :   0.9274 B( 44-C , 48-C ) :   0.9661
B( 45-C , 49-N ) :   0.9779 B( 45-C , 50-H ) :   0.9263 B( 45-C , 51-C ) :   0.9545
B( 48-C , 52-H ) :   0.9489 B( 48-C , 53-C ) :   0.9858 B( 48-C , 82-H ) :   0.9284
B( 49-N , 51-C ) :  -0.1138 B( 51-C , 54-H ) :   0.9567 B( 51-C , 55-C ) :   0.9793
B( 51-C , 83-H ) :   0.9358 B( 53-C , 55-C ) :   0.9954 B( 53-C , 56-H ) :   0.9462
B( 53-C , 57-H ) :   0.9381 B( 55-C , 58-H ) :   0.9395 B( 55-C , 59-H ) :   0.9474
B( 60-C , 61-C ) :   0.8727 B( 60-C , 62-N ) :   1.0049 B( 60-C , 63-H ) :   0.9694
B( 60-C , 64-C ) :   0.9532 B( 61-C , 65-N ) :   0.9592 B( 61-C , 66-H ) :   0.9103
B( 61-C , 67-C ) :   0.9567 B( 62-N , 77-H ) :   0.8567 B( 62-N , 86-H ) :   0.8608
B( 64-C , 68-H ) :   0.9494 B( 64-C , 69-C ) :   0.9963 B( 64-C , 84-H ) :   0.9350
B( 67-C , 70-H ) :   0.9531 B( 67-C , 71-C ) :   0.9845 B( 67-C , 85-H ) :   0.9316
B( 69-C , 71-C ) :   0.9884 B( 69-C , 72-H ) :   0.9421 B( 69-C , 73-H ) :   0.9472
B( 71-C , 74-H ) :   0.9394 B( 71-C , 75-H ) :   0.9515

Dispersion correction           -0.256804159
FINAL SINGLE POINT ENERGY     -1801.185055829947

DIPOLE MOMENT
-------------
                                X             Y             Z
Electronic contribution:    -14.32797     -18.30086      -2.92168
Nuclear contribution   :     13.98073      18.99629       3.74023
                        -----------------------------------------
Total Dipole Moment    :     -0.34724       0.69543       0.81855
                        -----------------------------------------
Magnitude (a.u.)       :      1.12881
Magnitude (Debye)      :      2.86922

Rotational constants in cm-1:     0.002022     0.001712     0.001224
Rotational constants in MHz :    60.613430    51.336460    36.706348

                             ****ORCA TERMINATED NORMALLY****
TOTAL RUN TIME: 0 days 1 hours 24 minutes 6 seconds 513 msec
