                         Program Version 4.2.1 -  RELEASE  -
|  1> ! RI-MP2 cc-pVTZ cc-pVTZ/C TIGHTSCF printbasis Grid6 NOFINALGRID SlowConv
|  2>
|  3> %base "_o_2_alde1_4_ami3_2_opt_MP2"
|  4> %maxcore 3000
|  5> %pal
|  6>    nprocs 32
|  7> end
|  8>
|  9> * xyzfile 0 1 _o_2_alde1_4_ami3_2_opt_B97-3c.xyz
| 10>
| 11>                          ****END OF INPUT****

CARTESIAN COORDINATES (ANGSTROEM)
---------------------------------
  C     -0.814215   -3.440654   -2.097269
  C      0.016484   -3.532935   -0.896964
  C     -2.178754   -3.672070   -2.014634
  C     -3.002975   -3.503520   -3.133198
  H     -2.629815   -3.993169   -1.085061
  C     -2.450482   -3.040067   -4.319918
  C     -1.077751   -2.790057   -4.416460
  H     -3.074815   -2.852841   -5.183882
  C     -0.267021   -3.027624   -3.315772
  C     -0.475856   -2.189247   -5.604776
  H      0.797242   -2.844257   -3.368046
  C     -4.432860   -3.803971   -3.065140
  H      0.621661   -2.183664   -5.617208
  H     -0.533089   -3.552408    0.055235
  H     -4.996445   -3.657629   -3.997031
  C      1.374677    0.375435   -1.719820
  C      2.226032   -0.723805   -1.270919
  C      1.055395    0.450901   -3.067985
  C      0.117287    1.376956   -3.533437
  H      1.488013   -0.244759   -3.773248
  C     -0.445580    2.273404   -2.637996
  C     -0.086521    2.256658   -1.285905
  H     -1.175352    3.000994   -2.967795
  C      0.797676    1.287626   -0.830276
  C     -0.635474    3.237899   -0.347151
  H      1.049713    1.220609    0.220328
  C     -0.347958    1.338695   -4.919417
  H     -0.377591    3.061398    0.702850
  H     -1.290548    1.870270   -5.113538
  C      3.042667   -2.315148    0.197452
  C      2.012170   -3.459637    0.310029
  N      2.328259   -1.083785   -0.056483
  N      1.284718   -3.529107   -0.933992
  C     -6.405784   -4.521154   -2.036354
  C     -7.128571   -3.653247   -1.004137
  N     -4.993322   -4.220958   -2.003900
  N     -6.976102   -2.249575   -1.373006
  C     -0.402825   -0.904588   -7.528762
  C     -0.378848    0.585550   -7.125857
  N     -1.149702   -1.633656   -6.527811
  N      0.249805    0.689829   -5.831153
  C     -1.355139    6.604716   -0.343615
  C     -1.839024    5.225004    0.173273
  N     -1.650236    6.868840   -1.742940
  N     -1.340777    4.218041   -0.740200
  H      2.729209   -1.276821   -2.074322
  H     -5.997289   -1.995277   -1.323380
  H     -7.459026   -1.668111   -0.699129
  H     -1.406764    6.045172   -2.280035
  H     -2.652122    6.985230   -1.852205
  C     -1.916805    7.726012    0.515840
  C     -8.603821   -4.015950   -0.948409
  C      0.384963    1.395660   -8.167388
  C      3.876619   -2.220855    1.464636
  H     -6.677004   -3.888881   -0.028339
  C     -8.817784   -5.491182   -0.650625
  H     -9.057657   -3.755756   -1.907525
  H     -9.100068   -3.399635   -0.193835
  C     -8.086519   -6.361544   -1.661547
  H     -9.884272   -5.721559   -0.649137
  H     -8.450653   -5.718295    0.354219
  C     -6.611204   -6.002922   -1.733906
  H     -8.542072   -6.229251   -2.646816
  H     -8.198252   -7.416798   -1.408190
  H     -6.104373   -6.592609   -2.498809
  H     -6.119776   -6.235261   -0.786939
  H     -6.843394   -4.289723   -3.019519
  H     -0.264940    6.605046   -0.236397
  C     -1.631246    7.535196    1.995733
  H     -3.001111    7.772185    0.361930
  H     -1.513922    8.672778    0.155488
  C     -2.127568    6.182336    2.479680
  H     -2.091421    8.339543    2.572114
  H     -0.553833    7.607103    2.170305
  C     -1.528862    5.053768    1.654238
  H     -3.218383    6.149531    2.404423
  H     -1.887805    6.039319    3.534436
  H     -2.929418    5.223751    0.045519
  H     -1.901601    4.090448    2.008483
  H     -0.445139    5.042374    1.802440
  H     -1.419378    0.940151   -7.097034
  C     -0.214608    1.220519   -9.554413
  H      1.429502    1.077022   -8.162174
  H      0.377475    2.446039   -7.871947
  C     -0.277753   -0.247085   -9.952024
  H      0.366320    1.788575  -10.282757
  H     -1.223652    1.642356   -9.568465
  C     -1.015337   -1.073889   -8.909745
  H      0.647871   -1.228280   -7.556016
  H     -2.065085   -0.776464   -8.863748
  H     -1.004840   -2.131360   -9.177539
  H      0.739731   -0.631172  -10.068533
  H     -0.760058   -0.356753  -10.924450
  H      3.696118   -2.578926   -0.646895
  C      4.570764   -3.538710    1.773351
  H      3.223015   -1.933986    2.291171
  H      4.605688   -1.417038    1.353055
  C      3.573912   -4.685766    1.855100
  H      5.131577   -3.455944    2.705531
  H      5.304459   -3.755501    0.991625
  C      2.725168   -4.776729    0.596011
  H      2.921894   -4.536560    2.720599
  H      4.092726   -5.631228    2.020885
  H      1.979940   -5.568486    0.687697
  H      3.347240   -5.031581   -0.264601
  H      1.346297   -3.227840    1.154190

 Total Charge           Charge          ....    0
 Multiplicity           Mult            ....    1
 Number of Electrons    NEL             ....  364
 Basis Dimension        Dim             .... 2284

ORBITAL ENERGIES
----------------

  NO   OCC          E(Eh)            E(eV)
   0   2.0000     -15.554792      -423.2674
   1   2.0000     -15.552299      -423.1996
   2   2.0000     -15.552299      -423.1996
   3   2.0000     -15.551992      -423.1912
   4   2.0000     -15.548588      -423.0986
   5   2.0000     -15.547937      -423.0809
   6   2.0000     -15.528926      -422.5636
   7   2.0000     -15.522624      -422.3921
   8   2.0000     -11.281010      -306.9719
   9   2.0000     -11.280315      -306.9530
  10   2.0000     -11.279805      -306.9391
  11   2.0000     -11.279614      -306.9339
  12   2.0000     -11.276719      -306.8551
  13   2.0000     -11.276069      -306.8374
  14   2.0000     -11.251462      -306.1678
  15   2.0000     -11.250632      -306.1453
  16   2.0000     -11.250579      -306.1438
  17   2.0000     -11.248791      -306.0952
  18   2.0000     -11.248039      -306.0747
  19   2.0000     -11.247311      -306.0549
  20   2.0000     -11.246957      -306.0453
  21   2.0000     -11.246635      -306.0365
  22   2.0000     -11.246535      -306.0338
  23   2.0000     -11.246292      -306.0272
  24   2.0000     -11.246061      -306.0209
  25   2.0000     -11.245183      -305.9970
  26   2.0000     -11.245125      -305.9954
  27   2.0000     -11.244823      -305.9872
  28   2.0000     -11.244680      -305.9833
  29   2.0000     -11.244380      -305.9751
  30   2.0000     -11.244264      -305.9720
  31   2.0000     -11.243942      -305.9632
  32   2.0000     -11.243691      -305.9564
  33   2.0000     -11.243116      -305.9408
  34   2.0000     -11.220092      -305.3142
  35   2.0000     -11.219156      -305.2888
  36   2.0000     -11.216751      -305.2233
  37   2.0000     -11.215809      -305.1977
  38   2.0000     -11.215705      -305.1949
  39   2.0000     -11.215692      -305.1945
  40   2.0000     -11.215575      -305.1913
  41   2.0000     -11.214856      -305.1717
  42   2.0000     -11.214593      -305.1646
  43   2.0000     -11.214055      -305.1500
  44   2.0000     -11.213397      -305.1320
  45   2.0000     -11.212378      -305.1043
  46   2.0000     -11.211542      -305.0816
  47   2.0000     -11.211439      -305.0788
  48   2.0000     -11.211422      -305.0783
  49   2.0000     -11.211228      -305.0730
  50   2.0000      -1.255583       -34.1661
  51   2.0000      -1.253467       -34.1086
  52   2.0000      -1.244328       -33.8599
  53   2.0000      -1.243273       -33.8312
  54   2.0000      -1.226203       -33.3667
  55   2.0000      -1.221483       -33.2383
  56   2.0000      -1.181839       -32.1595
  57   2.0000      -1.179889       -32.1064
  58   2.0000      -1.167240       -31.7622
  59   2.0000      -1.160397       -31.5760
  60   2.0000      -1.115190       -30.3459
  61   2.0000      -1.109288       -30.1853
  62   2.0000      -1.099737       -29.9254
  63   2.0000      -1.098152       -29.8822
  64   2.0000      -1.055525       -28.7223
  65   2.0000      -1.055406       -28.7190
  66   2.0000      -1.053891       -28.6778
  67   2.0000      -1.053208       -28.6592
  68   2.0000      -1.006489       -27.3880
  69   2.0000      -1.003025       -27.2937
  70   2.0000      -1.000939       -27.2369
  71   2.0000      -0.998442       -27.1690
  72   2.0000      -0.993561       -27.0362
  73   2.0000      -0.986948       -26.8562
  74   2.0000      -0.974943       -26.5296
  75   2.0000      -0.974578       -26.5196
  76   2.0000      -0.897783       -24.4299
  77   2.0000      -0.894195       -24.3323
  78   2.0000      -0.890504       -24.2319
  79   2.0000      -0.882271       -24.0078
  80   2.0000      -0.880146       -23.9500
  81   2.0000      -0.865048       -23.5391
  82   2.0000      -0.835396       -22.7323
  83   2.0000      -0.830957       -22.6115
  84   2.0000      -0.829153       -22.5624
  85   2.0000      -0.821605       -22.3570
  86   2.0000      -0.818700       -22.2779
  87   2.0000      -0.816413       -22.2157
  88   2.0000      -0.806715       -21.9518
  89   2.0000      -0.800059       -21.7707
  90   2.0000      -0.772520       -21.0213
  91   2.0000      -0.766715       -20.8634
  92   2.0000      -0.764559       -20.8047
  93   2.0000      -0.759425       -20.6650
  94   2.0000      -0.750225       -20.4147
  95   2.0000      -0.746188       -20.3048
  96   2.0000      -0.741610       -20.1802
  97   2.0000      -0.734199       -19.9786
  98   2.0000      -0.704198       -19.1622
  99   2.0000      -0.698337       -19.0027
 100   2.0000      -0.691287       -18.8109
 101   2.0000      -0.687907       -18.7189
 102   2.0000      -0.669726       -18.2242
 103   2.0000      -0.668094       -18.1798
 104   2.0000      -0.661337       -17.9959
 105   2.0000      -0.654829       -17.8188
 106   2.0000      -0.653786       -17.7904
 107   2.0000      -0.650085       -17.6897
 108   2.0000      -0.646253       -17.5854
 109   2.0000      -0.644563       -17.5394
 110   2.0000      -0.640684       -17.4339
 111   2.0000      -0.633617       -17.2416
 112   2.0000      -0.627163       -17.0660
 113   2.0000      -0.624243       -16.9865
 114   2.0000      -0.622733       -16.9454
 115   2.0000      -0.619991       -16.8708
 116   2.0000      -0.615646       -16.7526
 117   2.0000      -0.612277       -16.6609
 118   2.0000      -0.608038       -16.5456
 119   2.0000      -0.604744       -16.4559
 120   2.0000      -0.598934       -16.2978
 121   2.0000      -0.597693       -16.2641
 122   2.0000      -0.592484       -16.1223
 123   2.0000      -0.590792       -16.0763
 124   2.0000      -0.589536       -16.0421
 125   2.0000      -0.577231       -15.7073
 126   2.0000      -0.575294       -15.6545
 127   2.0000      -0.573802       -15.6139
 128   2.0000      -0.567246       -15.4356
 129   2.0000      -0.560933       -15.2638
 130   2.0000      -0.559728       -15.2310
 131   2.0000      -0.556215       -15.1354
 132   2.0000      -0.553776       -15.0690
 133   2.0000      -0.543538       -14.7904
 134   2.0000      -0.540088       -14.6965
 135   2.0000      -0.538083       -14.6420
 136   2.0000      -0.535845       -14.5811
 137   2.0000      -0.531045       -14.4505
 138   2.0000      -0.526038       -14.3142
 139   2.0000      -0.523809       -14.2536
 140   2.0000      -0.522440       -14.2163
 141   2.0000      -0.519870       -14.1464
 142   2.0000      -0.514967       -14.0130
 143   2.0000      -0.513551       -13.9744
 144   2.0000      -0.500270       -13.6130
 145   2.0000      -0.497727       -13.5438
 146   2.0000      -0.493186       -13.4203
 147   2.0000      -0.490430       -13.3453
 148   2.0000      -0.489015       -13.3068
 149   2.0000      -0.486529       -13.2391
 150   2.0000      -0.485921       -13.2226
 151   2.0000      -0.484728       -13.1901
 152   2.0000      -0.472762       -12.8645
 153   2.0000      -0.471868       -12.8402
 154   2.0000      -0.470780       -12.8106
 155   2.0000      -0.468188       -12.7400
 156   2.0000      -0.466677       -12.6989
 157   2.0000      -0.462736       -12.5917
 158   2.0000      -0.460254       -12.5242
 159   2.0000      -0.459934       -12.5154
 160   2.0000      -0.459110       -12.4930
 161   2.0000      -0.455353       -12.3908
 162   2.0000      -0.450545       -12.2600
 163   2.0000      -0.443095       -12.0572
 164   2.0000      -0.439319       -11.9545
 165   2.0000      -0.435866       -11.8605
 166   2.0000      -0.429735       -11.6937
 167   2.0000      -0.425390       -11.5755
 168   2.0000      -0.410703       -11.1758
 169   2.0000      -0.408472       -11.1151
 170   2.0000      -0.406611       -11.0644
 171   2.0000      -0.405450       -11.0328
 172   2.0000      -0.400532       -10.8990
 173   2.0000      -0.395387       -10.7590
 174   2.0000      -0.393461       -10.7066
 175   2.0000      -0.391318       -10.6483
 176   2.0000      -0.383420       -10.4334
 177   2.0000      -0.374272       -10.1844
 178   2.0000      -0.324609        -8.8331
 179   2.0000      -0.322425        -8.7736
 180   2.0000      -0.321573        -8.7504
 181   2.0000      -0.317556        -8.6411
 182   0.0000       0.071406         1.9431
 183   0.0000       0.075343         2.0502
 184   0.0000       0.078518         2.1366
 185   0.0000       0.083550         2.2735
 186   0.0000       0.130201         3.5429

MULLIKEN ATOMIC CHARGES
-----------------------
   0 C :    0.205616
   1 C :   -0.093253
   2 C :   -0.216291
   3 C :    0.161667
   4 H :    0.157465
   5 C :   -0.211762
   6 C :    0.180528
   7 H :    0.156886
   8 C :   -0.224110
   9 C :   -0.109899
  10 H :    0.161259
  11 C :   -0.090071
  12 H :    0.103922
  13 H :    0.088659
  14 H :    0.096497
  15 C :    0.174780
  16 C :   -0.107433
  17 C :   -0.220981
  18 C :    0.204549
  19 H :    0.161462
  20 C :   -0.214426
  21 C :    0.170663
  22 H :    0.157492
  23 C :   -0.215115
  24 C :   -0.104084
  25 H :    0.153354
  26 C :   -0.095797
  27 H :    0.106814
  28 H :    0.089259
  29 C :    0.095102
  30 C :    0.086555
  31 N :   -0.288677
  32 N :   -0.292857
  33 C :    0.097246
  34 C :    0.038612
  35 N :   -0.298452
  36 N :   -0.390284
  37 C :    0.093905
  38 C :    0.085987
  39 N :   -0.286930
  40 N :   -0.292880
  41 C :    0.035801
  42 C :    0.074981
  43 N :   -0.379410
  44 N :   -0.284481
  45 H :    0.104026
  46 H :    0.147147
  47 H :    0.132983
  48 H :    0.150686
  49 H :    0.123752
  50 C :   -0.201202
  51 C :   -0.206520
  52 C :   -0.202783
  53 C :   -0.203530
  54 H :    0.087156
  55 C :   -0.200129
  56 H :    0.096130
  57 H :    0.100947
  58 C :   -0.208439
  59 H :    0.111626
  60 H :    0.086079
  61 C :   -0.200489
  62 H :    0.089964
  63 H :    0.111605
  64 H :    0.106821
  65 H :    0.095970
  66 H :    0.078634
  67 H :    0.102256
  68 C :   -0.203986
  69 H :    0.078477
  70 H :    0.122021
  71 C :   -0.199431
  72 H :    0.112115
  73 H :    0.091442
  74 C :   -0.253863
  75 H :    0.089382
  76 H :    0.113915
  77 H :    0.097583
  78 H :    0.114843
  79 H :    0.095014
  80 H :    0.080332
  81 C :   -0.206758
  82 H :    0.099455
  83 H :    0.108316
  84 C :   -0.204854
  85 H :    0.113028
  86 H :    0.089139
  87 C :   -0.203857
  88 H :    0.079364
  89 H :    0.095868
  90 H :    0.109208
  91 H :    0.088326
  92 H :    0.112198
  93 H :    0.079322
  94 C :   -0.205014
  95 H :    0.094757
  96 H :    0.109484
  97 C :   -0.206515
  98 H :    0.112150
  99 H :    0.088652
 100 C :   -0.202754
 101 H :    0.088491
 102 H :    0.112977
 103 H :    0.107729
 104 H :    0.099709
 105 H :    0.079174
Sum of atomic charges:   -0.0000000

LOEWDIN ATOMIC CHARGES
----------------------
   0 C :   -0.074828
   1 C :   -0.065179
   2 C :    0.090930
   3 C :   -0.077082
   4 H :   -0.020200
   5 C :    0.092375
   6 C :   -0.073568
   7 H :   -0.017749
   8 C :    0.091421
   9 C :   -0.068671
  10 H :   -0.022878
  11 C :   -0.067029
  12 H :   -0.035284
  13 H :   -0.033742
  14 H :   -0.032845
  15 C :   -0.073516
  16 C :   -0.068394
  17 C :    0.091459
  18 C :   -0.073925
  19 H :   -0.022869
  20 C :    0.089888
  21 C :   -0.075161
  22 H :   -0.020794
  23 C :    0.090281
  24 C :   -0.071986
  25 H :   -0.018834
  26 C :   -0.065246
  27 H :   -0.033584
  28 H :   -0.033548
  29 C :   -0.111334
  30 C :   -0.108000
  31 N :    0.220559
  32 N :    0.232739
  33 C :   -0.111694
  34 C :   -0.091752
  35 N :    0.230919
  36 N :    0.336059
  37 C :   -0.111128
  38 C :   -0.107925
  39 N :    0.221442
  40 N :    0.233066
  41 C :   -0.090872
  42 C :   -0.113069
  43 N :    0.335985
  44 N :    0.229677
  45 H :   -0.035076
  46 H :   -0.110714
  47 H :   -0.109445
  48 H :   -0.112202
  49 H :   -0.110237
  50 C :    0.058075
  51 C :    0.058145
  52 C :    0.061786
  53 C :    0.059612
  54 H :   -0.036460
  55 C :    0.058363
  56 H :   -0.023324
  57 H :   -0.027611
  58 C :    0.058282
  59 H :   -0.026219
  60 H :   -0.026570
  61 C :    0.061182
  62 H :   -0.026116
  63 H :   -0.026169
  64 H :   -0.026319
  65 H :   -0.024469
  66 H :   -0.030654
  67 H :   -0.026749
  68 C :    0.057803
  69 H :   -0.027873
  70 H :   -0.020533
  71 C :    0.060147
  72 H :   -0.025319
  73 H :   -0.025265
  74 C :    0.051449
  75 H :   -0.025584
  76 H :   -0.025434
  77 H :   -0.025124
  78 H :   -0.026238
  79 H :   -0.026080
  80 H :   -0.031685
  81 C :    0.058777
  82 H :   -0.023921
  83 H :   -0.025723
  84 C :    0.058554
  85 H :   -0.025551
  86 H :   -0.026019
  87 C :    0.059820
  88 H :   -0.030412
  89 H :   -0.024089
  90 H :   -0.024878
  91 H :   -0.026203
  92 H :   -0.025757
  93 H :   -0.030272
  94 C :    0.058594
  95 H :   -0.024428
  96 H :   -0.024780
  97 C :    0.058643
  98 H :   -0.025807
  99 H :   -0.026077
 100 C :    0.061681
 101 H :   -0.026160
 102 H :   -0.025640
 103 H :   -0.025915
 104 H :   -0.023858
 105 H :   -0.032071

  Mayer bond orders larger than 0.100000
B(  0-C ,  1-C ) :   0.9891 B(  0-C ,  2-C ) :   1.3886 B(  0-C ,  8-C ) :   1.2882
B(  1-C , 13-H ) :   0.9864 B(  1-C , 32-N ) :   1.9758 B(  2-C ,  3-C ) :   1.2936
B(  2-C ,  4-H ) :   0.9641 B(  3-C ,  5-C ) :   1.3891 B(  3-C , 11-C ) :   1.0002
B(  5-C ,  6-C ) :   1.3002 B(  5-C ,  7-H ) :   0.9634 B(  6-C ,  8-C ) :   1.3762
B(  6-C ,  9-C ) :   1.0007 B(  8-C , 10-H ) :   0.9629 B(  9-C , 12-H ) :   0.9874
B(  9-C , 39-N ) :   1.9639 B( 11-C , 14-H ) :   0.9891 B( 11-C , 35-N ) :   1.9663
B( 15-C , 16-C ) :   1.0026 B( 15-C , 17-C ) :   1.3763 B( 15-C , 23-C ) :   1.3031
B( 16-C , 31-N ) :   1.9614 B( 16-C , 45-H ) :   0.9870 B( 17-C , 18-C ) :   1.2885
B( 17-C , 19-H ) :   0.9630 B( 18-C , 20-C ) :   1.3933 B( 18-C , 26-C ) :   0.9860
B( 20-C , 21-C ) :   1.3012 B( 20-C , 22-H ) :   0.9666 B( 21-C , 23-C ) :   1.3922
B( 21-C , 24-C ) :   1.0136 B( 23-C , 25-H ) :   0.9647 B( 24-C , 27-H ) :   0.9835
B( 24-C , 44-N ) :   1.9780 B( 26-C , 28-H ) :   0.9877 B( 26-C , 40-N ) :   1.9747
B( 29-C , 30-C ) :   0.9358 B( 29-C , 31-N ) :   0.9373 B( 29-C , 53-C ) :   0.9557
B( 29-C , 93-H ) :   0.9744 B( 30-C , 32-N ) :   0.9372 B( 30-C ,100-C ) :   0.9491
B( 30-C ,105-H ) :   0.9714 B( 33-C , 34-C ) :   0.9276 B( 33-C , 35-N ) :   0.9312
B( 33-C , 61-C ) :   0.9566 B( 33-C , 66-H ) :   0.9710 B( 34-C , 36-N ) :   0.9924
B( 34-C , 51-C ) :   0.9443 B( 34-C , 54-H ) :   0.9937 B( 36-N , 46-H ) :   0.9798
B( 36-N , 47-H ) :   0.9884 B( 37-C , 38-C ) :   0.9359 B( 37-C , 39-N ) :   0.9379
B( 37-C , 87-C ) :   0.9560 B( 37-C , 88-H ) :   0.9748 B( 38-C , 40-N ) :   0.9362
B( 38-C , 52-C ) :   0.9490 B( 38-C , 80-H ) :   0.9715 B( 41-C , 42-C ) :   0.9675
B( 41-C , 43-N ) :   1.0145 B( 41-C , 50-C ) :   0.9568 B( 41-C , 67-H ) :   0.9691
B( 42-C , 44-N ) :   0.9917 B( 42-C , 74-C ) :   0.9447 B( 42-C , 77-H ) :   0.9624
B( 43-N , 48-H ) :   0.9924 B( 43-N , 49-H ) :   1.0006 B( 50-C , 68-C ) :   0.9488
B( 50-C , 69-H ) :   0.9800 B( 50-C , 70-H ) :   0.9894 B( 51-C , 55-C ) :   0.9505
B( 51-C , 56-H ) :   0.9796 B( 51-C , 57-H ) :   0.9943 B( 52-C , 81-C ) :   0.9417
B( 52-C , 82-H ) :   0.9827 B( 52-C , 83-H ) :   0.9910 B( 53-C , 94-C ) :   0.9448
B( 53-C , 95-H ) :   0.9842 B( 53-C , 96-H ) :   0.9916 B( 55-C , 58-C ) :   0.9424
B( 55-C , 59-H ) :   0.9961 B( 55-C , 60-H ) :   0.9838 B( 58-C , 61-C ) :   0.9431
B( 58-C , 62-H ) :   0.9855 B( 58-C , 63-H ) :   0.9953 B( 61-C , 64-H ) :   0.9913
B( 61-C , 65-H ) :   0.9828 B( 68-C , 71-C ) :   0.9417 B( 68-C , 72-H ) :   0.9953
B( 68-C , 73-H ) :   0.9857 B( 71-C , 74-C ) :   0.9599 B( 71-C , 75-H ) :   0.9870
B( 71-C , 76-H ) :   0.9958 B( 74-C , 78-H ) :   0.9898 B( 74-C , 79-H ) :   0.9776
B( 81-C , 84-C ) :   0.9440 B( 81-C , 85-H ) :   0.9948 B( 81-C , 86-H ) :   0.9848
B( 84-C , 87-C ) :   0.9447 B( 84-C , 91-H ) :   0.9849 B( 84-C , 92-H ) :   0.9956
B( 87-C , 89-H ) :   0.9841 B( 87-C , 90-H ) :   0.9916 B( 94-C , 97-C ) :   0.9441
B( 94-C , 98-H ) :   0.9956 B( 94-C , 99-H ) :   0.9848 B( 97-C ,100-C ) :   0.9417
B( 97-C ,101-H ) :   0.9849 B( 97-C ,102-H ) :   0.9948 B(100-C ,103-H ) :   0.9911
B(100-C ,104-H ) :   0.9827

MP2 TOTAL ENERGY:    -2067.840750128 Eh
FINAL SINGLE POINT ENERGY     -2067.840750128099

DIPOLE MOMENT
-------------
                                X             Y             Z
Electronic contribution:     17.05274      -7.82107     -12.38464
Nuclear contribution   :    -17.33127       7.35230      13.13373
                        -----------------------------------------
Total Dipole Moment    :     -0.27853      -0.46878       0.74909
                        -----------------------------------------
Magnitude (a.u.)       :      0.92654
Magnitude (Debye)      :      2.35507

Rotational constants in cm-1:     0.001320     0.000997     0.000980
Rotational constants in MHz :    39.572034    29.876851    29.373946

                             ****ORCA TERMINATED NORMALLY****
TOTAL RUN TIME: 0 days 1 hours 52 minutes 48 seconds 328 msec
