                         Program Version 4.2.1 -  RELEASE  -
|  1> ! DFT COPT B97-3c TightSCF printbasis  Grid6 NOFINALGRID SlowConv
|  2>
|  3> %base "_o_2_alde1_3_ami4_1_opt_B97-3c"
|  4> %maxcore 3000
|  5> %scf
|  6>    MaxIter 2000
|  7> end
|  8> %pal
|  9>    nprocs 32
| 10> end
| 11>
| 12> * xyzfile 0 1 o_2_alde1_3_ami4_1_opt.xyz
| 13> # * xyzfile 0 1 _o_2_alde1_3_ami4_1_opt_B97-3c.xyz
| 14>
| 15>                          ****END OF INPUT****
 Total Charge           Charge          ....    0
 Multiplicity           Mult            ....    1
 Number of Electrons    NEL             ....  220
Dispersion correction           -0.178867930
FINAL SINGLE POINT ENERGY     -1333.233230418760
Dispersion correction            ... done
Dispersion correction           -0.178798159
FINAL SINGLE POINT ENERGY     -1333.234064712535
Dispersion correction            ... done
Dispersion correction           -0.178746394
FINAL SINGLE POINT ENERGY     -1333.234441940708
Dispersion correction            ... done
FINAL SINGLE POINT ENERGY     -1333.234923275166
FINAL SINGLE POINT ENERGY     -1333.235234388152
FINAL SINGLE POINT ENERGY     -1333.235574798119
FINAL SINGLE POINT ENERGY     -1333.235788460216
FINAL SINGLE POINT ENERGY     -1333.235953626780
FINAL SINGLE POINT ENERGY     -1333.236093920269
FINAL SINGLE POINT ENERGY     -1333.236226089587
FINAL SINGLE POINT ENERGY     -1333.237974931870
FINAL SINGLE POINT ENERGY     -1333.237980145219
FINAL SINGLE POINT ENERGY     -1333.237984731730
FINAL SINGLE POINT ENERGY     -1333.237989178326
FINAL SINGLE POINT ENERGY     -1333.237993489529
FINAL SINGLE POINT ENERGY     -1333.237998008692
FINAL SINGLE POINT ENERGY     -1333.238001757363
Dispersion correction            ... done
Dispersion correction           -0.173856750
FINAL SINGLE POINT ENERGY     -1333.238004998270
Dispersion correction            ... done
Dispersion correction           -0.173849544
FINAL SINGLE POINT ENERGY     -1333.238007843572
Dispersion correction            ... done
                    ***********************HURRAY********************

CARTESIAN COORDINATES (ANGSTROEM)
---------------------------------
  C     -3.740846   -1.075660   -0.283398
  C     -3.101038   -0.715063    0.983650
  C     -4.232993   -2.355193   -0.511901
  C     -4.726416   -2.700111   -1.768574
  H     -4.218570   -3.088835    0.280890
  C     -4.699080   -1.777688   -2.807907
  C     -4.207732   -0.491107   -2.597401
  H     -5.042126   -2.048302   -3.797976
  C     -3.758774   -0.144430   -1.324962
  C     -4.047650    0.454435   -3.701163
  H     -3.359837    0.848992   -1.154084
  C     -5.247155   -4.053416   -2.029751
  H     -3.765856    1.476463   -3.417538
  H     -2.873606    0.350617    1.117001
  C     -0.011148    0.140887   -0.762089
  C     -0.161697   -0.802216    0.343356
  C     -0.442207   -0.226552   -2.034856
  C     -0.455943    0.698394   -3.078365
  H     -0.825551   -1.226495   -2.201507
  C      0.033089    1.983693   -2.851225
  C      0.491791    2.354764   -1.594597
  H      0.057089    2.693905   -3.664792
  C      0.453526    1.440488   -0.553569
  C      0.933841    3.770319   -1.344208
  H      0.771422    1.725103    0.440425
  C     -1.095378    0.338268   -4.342686
  H     -1.320072   -0.728459   -4.477111
  C     -0.454770   -1.405544    2.565582
  C     -1.934189   -1.168158    2.939598
  N     -0.068366   -0.448131    1.562745
  H     -0.342870   -2.446195    2.240132
  N     -2.759818   -1.591121    1.839576
  H     -2.061063   -0.111051    3.199951
  O     -5.300181   -4.950782   -1.214879
  C     -3.756934    1.038380   -5.930156
  C     -2.278300    0.781706   -6.294365
  N     -4.154861    0.096636   -4.917109
  H     -4.359423    0.881205   -6.823853
  N     -1.450409    1.211050   -5.198738
  H     -2.043383    1.375620   -7.176970
  C      0.353483    5.988000   -1.464507
  C      1.504304    5.782126   -2.468593
  N     -0.210244    4.661504   -1.218553
  H     -0.415682    6.668586   -1.820661
  N      1.727450    4.329028   -2.452455
  H      2.389804    6.351630   -2.173552
  H     -0.424046   -1.829430    0.057969
  H      1.481204    3.804627   -0.392479
  H      2.706183    4.096725   -2.356895
  H     -5.601155   -4.211237   -3.070177
  H      0.146266   -1.252619    3.461009
  H     -2.163359   -1.775729    3.813929
  H     -3.858522    2.083599   -5.616283
  H     -2.160350   -0.279469   -6.543813
  H      0.736101    6.384267   -0.523395
  H      1.226261    6.107802   -3.473260
  H     -0.857217    4.429439   -1.964506

 Multiplicity           Mult            ....    1
 Number of Electrons    NEL             ....  220
 Basis Dimension        Dim             ....  672

ORBITAL ENERGIES
----------------

  NO   OCC          E(Eh)            E(eV)
   0   2.0000     -18.741394      -509.9793
   1   2.0000     -13.989387      -380.6706
   2   2.0000     -13.986767      -380.5993
   3   2.0000     -13.984802      -380.5458
   4   2.0000     -13.984292      -380.5319
   5   2.0000     -13.983399      -380.5076
   6   2.0000     -13.977008      -380.3337
   7   2.0000      -9.977989      -271.5149
   8   2.0000      -9.950954      -270.7792
   9   2.0000      -9.943681      -270.5813
  10   2.0000      -9.940968      -270.5075
  11   2.0000      -9.939354      -270.4636
  12   2.0000      -9.937773      -270.4206
  13   2.0000      -9.926812      -270.1223
  14   2.0000      -9.925755      -270.0935
  15   2.0000      -9.923996      -270.0457
  16   2.0000      -9.923507      -270.0324
  17   2.0000      -9.923414      -270.0298
  18   2.0000      -9.922400      -270.0022
  19   2.0000      -9.921553      -269.9792
  20   2.0000      -9.919501      -269.9233
  21   2.0000      -9.918946      -269.9082
  22   2.0000      -9.917314      -269.8638
  23   2.0000      -9.916889      -269.8523
  24   2.0000      -9.914312      -269.7822
  25   2.0000      -9.912812      -269.7413
  26   2.0000      -9.912656      -269.7371
  27   2.0000      -9.911641      -269.7095
  28   2.0000      -9.908807      -269.6324
  29   2.0000      -9.904158      -269.5059
  30   2.0000      -9.902133      -269.4507
  31   2.0000      -0.964979       -26.2584
  32   2.0000      -0.891618       -24.2621
  33   2.0000      -0.875182       -23.8149
  34   2.0000      -0.872781       -23.7496
  35   2.0000      -0.850820       -23.1520
  36   2.0000      -0.846967       -23.0471
  37   2.0000      -0.812688       -22.1144
  38   2.0000      -0.801274       -21.8038
  39   2.0000      -0.784670       -21.3520
  40   2.0000      -0.736259       -20.0346
  41   2.0000      -0.730447       -19.8765
  42   2.0000      -0.724005       -19.7012
  43   2.0000      -0.715263       -19.4633
  44   2.0000      -0.692472       -18.8431
  45   2.0000      -0.672521       -18.3002
  46   2.0000      -0.668459       -18.1897
  47   2.0000      -0.621026       -16.8990
  48   2.0000      -0.618874       -16.8404
  49   2.0000      -0.606562       -16.5054
  50   2.0000      -0.599249       -16.3064
  51   2.0000      -0.584771       -15.9124
  52   2.0000      -0.565666       -15.3925
  53   2.0000      -0.561909       -15.2903
  54   2.0000      -0.556984       -15.1563
  55   2.0000      -0.532431       -14.4882
  56   2.0000      -0.525533       -14.3005
  57   2.0000      -0.517535       -14.0828
  58   2.0000      -0.500241       -13.6122
  59   2.0000      -0.493479       -13.4282
  60   2.0000      -0.478861       -13.0305
  61   2.0000      -0.472229       -12.8500
  62   2.0000      -0.468576       -12.7506
  63   2.0000      -0.465240       -12.6598
  64   2.0000      -0.455176       -12.3860
  65   2.0000      -0.450808       -12.2671
  66   2.0000      -0.445273       -12.1165
  67   2.0000      -0.442137       -12.0312
  68   2.0000      -0.430699       -11.7199
  69   2.0000      -0.419157       -11.4058
  70   2.0000      -0.416238       -11.3264
  71   2.0000      -0.412859       -11.2345
  72   2.0000      -0.409915       -11.1543
  73   2.0000      -0.405576       -11.0363
  74   2.0000      -0.405363       -11.0305
  75   2.0000      -0.398543       -10.8449
  76   2.0000      -0.392893       -10.6912
  77   2.0000      -0.387667       -10.5490
  78   2.0000      -0.385975       -10.5029
  79   2.0000      -0.379685       -10.3318
  80   2.0000      -0.378392       -10.2966
  81   2.0000      -0.367807       -10.0085
  82   2.0000      -0.357309        -9.7229
  83   2.0000      -0.354677        -9.6513
  84   2.0000      -0.351172        -9.5559
  85   2.0000      -0.349901        -9.5213
  86   2.0000      -0.347231        -9.4486
  87   2.0000      -0.346027        -9.4159
  88   2.0000      -0.343145        -9.3374
  89   2.0000      -0.340260        -9.2589
  90   2.0000      -0.329787        -8.9740
  91   2.0000      -0.322523        -8.7763
  92   2.0000      -0.318818        -8.6755
  93   2.0000      -0.315710        -8.5909
  94   2.0000      -0.309656        -8.4262
  95   2.0000      -0.307880        -8.3778
  96   2.0000      -0.304910        -8.2970
  97   2.0000      -0.284782        -7.7493
  98   2.0000      -0.276646        -7.5279
  99   2.0000      -0.244349        -6.6491
 100   2.0000      -0.233770        -6.3612
 101   2.0000      -0.232972        -6.3395
 102   2.0000      -0.228395        -6.2149
 103   2.0000      -0.225599        -6.1388
 104   2.0000      -0.220967        -6.0128
 105   2.0000      -0.219750        -5.9797
 106   2.0000      -0.216117        -5.8808
 107   2.0000      -0.215517        -5.8645
 108   2.0000      -0.209163        -5.6916
 109   2.0000      -0.190955        -5.1961
 110   0.0000      -0.102692        -2.7944
 111   0.0000      -0.096883        -2.6363
 112   0.0000      -0.092155        -2.5077
 113   0.0000      -0.068383        -1.8608
 114   0.0000      -0.063972        -1.7408

MULLIKEN ATOMIC CHARGES
-----------------------
   0 C :    0.264054
   1 C :   -0.372631
   2 C :   -0.147225
   3 C :    0.250786
   4 H :    0.232613
   5 C :   -0.181190
   6 C :    0.191897
   7 H :    0.223134
   8 C :   -0.144740
   9 C :   -0.362819
  10 H :    0.221378
  11 C :   -0.146716
  12 H :    0.112979
  13 H :    0.120835
  14 C :    0.227054
  15 C :   -0.387148
  16 C :   -0.174429
  17 C :    0.312328
  18 H :    0.212142
  19 C :   -0.183112
  20 C :    0.458179
  21 H :    0.207218
  22 C :   -0.247220
  23 C :   -0.717804
  24 H :    0.203740
  25 C :   -0.384074
  26 H :    0.112852
  27 C :   -0.304934
  28 C :   -0.300859
  29 N :   -0.083094
  30 H :    0.156214
  31 N :   -0.081294
  32 H :    0.154535
  33 O :   -0.303694
  34 C :   -0.299399
  35 C :   -0.302733
  36 N :   -0.085626
  37 H :    0.188542
  38 N :   -0.088111
  39 H :    0.188481
  40 C :   -0.283899
  41 C :   -0.243797
  42 N :   -0.294004
  43 H :    0.190617
  44 N :   -0.275948
  45 H :    0.153596
  46 H :    0.116208
  47 H :    0.178360
  48 H :    0.296999
  49 H :    0.110436
  50 H :    0.188151
  51 H :    0.189720
  52 H :    0.152803
  53 H :    0.152718
  54 H :    0.166476
  55 H :    0.154129
  56 H :    0.307325
Sum of atomic charges:   -0.0000000

LOEWDIN ATOMIC CHARGES
----------------------
   0 C :   -0.081320
   1 C :   -0.040919
   2 C :   -0.067106
   3 C :   -0.068962
   4 H :    0.202486
   5 C :   -0.099591
   6 C :   -0.084537
   7 H :    0.186566
   8 C :   -0.108991
   9 C :   -0.040169
  10 H :    0.180074
  11 C :    0.211817
  12 H :    0.148137
  13 H :    0.149303
  14 C :   -0.086607
  15 C :   -0.040465
  16 C :   -0.129460
  17 C :   -0.087156
  18 H :    0.175566
  19 C :   -0.113116
  20 C :   -0.070259
  21 H :    0.190017
  22 C :   -0.109852
  23 C :   -0.037746
  24 H :    0.183984
  25 C :   -0.038679
  26 H :    0.145864
  27 C :   -0.206882
  28 C :   -0.206802
  29 N :   -0.203196
  30 H :    0.148394
  31 N :   -0.193011
  32 H :    0.148222
  33 O :   -0.459394
  34 C :   -0.207566
  35 C :   -0.206694
  36 N :   -0.199189
  37 H :    0.157434
  38 N :   -0.203335
  39 H :    0.157704
  40 C :   -0.213117
  41 C :   -0.217273
  42 N :   -0.354583
  43 H :    0.156464
  44 N :   -0.387953
  45 H :    0.141313
  46 H :    0.147405
  47 H :    0.144658
  48 H :    0.264921
  49 H :    0.152505
  50 H :    0.157285
  51 H :    0.158473
  52 H :    0.147543
  53 H :    0.146939
  54 H :    0.151111
  55 H :    0.141869
  56 H :    0.267875

  Mayer bond orders larger than 0.100000
B(  0-C ,  1-C ) :   0.9397 B(  0-C ,  2-C ) :   1.3032 B(  0-C ,  3-C ) :   0.1097
B(  0-C ,  8-C ) :   1.2614 B(  0-C , 31-N ) :  -0.2481 B(  1-C , 13-H ) :   0.8909
B(  1-C , 31-N ) :   2.0613 B(  2-C ,  3-C ) :   1.1849 B(  2-C ,  4-H ) :   0.9035
B(  2-C , 31-N ) :   0.1067 B(  3-C ,  5-C ) :   1.1991 B(  3-C , 11-C ) :   0.8962
B(  3-C , 33-O ) :  -0.1587 B(  5-C ,  6-C ) :   1.4522 B(  5-C ,  7-H ) :   0.8586
B(  5-C , 36-N ) :   0.1071 B(  6-C ,  8-C ) :   1.3060 B(  6-C ,  9-C ) :   0.9499
B(  6-C , 36-N ) :  -0.2530 B(  8-C , 10-H ) :   0.8604 B(  9-C , 12-H ) :   0.8882
B(  9-C , 36-N ) :   2.0564 B( 11-C , 33-O ) :   2.0808 B( 11-C , 49-H ) :   0.9573
B( 14-C , 15-C ) :   0.9441 B( 14-C , 16-C ) :   1.3008 B( 14-C , 22-C ) :   1.4332
B( 14-C , 29-N ) :  -0.2591 B( 15-C , 29-N ) :   2.0537 B( 15-C , 46-H ) :   0.8868
B( 16-C , 17-C ) :   1.2814 B( 16-C , 18-H ) :   0.8584 B( 17-C , 19-C ) :   1.3110
B( 17-C , 20-C ) :   0.1052 B( 17-C , 25-C ) :   0.9451 B( 17-C , 38-N ) :  -0.2567
B( 19-C , 20-C ) :   1.2556 B( 19-C , 21-H ) :   0.9110 B( 19-C , 38-N ) :   0.1112
B( 20-C , 22-C ) :   1.2713 B( 20-C , 23-C ) :   0.5761 B( 20-C , 42-N ) :  -0.1209
B( 20-C , 44-N ) :  -0.1286 B( 22-C , 24-H ) :   0.8827 B( 22-C , 29-N ) :   0.1067
B( 23-C , 42-N ) :   1.2063 B( 23-C , 44-N ) :   1.0985 B( 23-C , 47-H ) :   0.9624
B( 25-C , 26-H ) :   0.8880 B( 25-C , 38-N ) :   2.0544 B( 27-C , 28-C ) :   0.9200
B( 27-C , 29-N ) :   0.9270 B( 27-C , 30-H ) :   0.9297 B( 27-C , 50-H ) :   0.9341
B( 28-C , 31-N ) :   0.9275 B( 28-C , 32-H ) :   0.9300 B( 28-C , 51-H ) :   0.9330
B( 34-C , 35-C ) :   0.9187 B( 34-C , 36-N ) :   0.9255 B( 34-C , 37-H ) :   0.9341
B( 34-C , 52-H ) :   0.9308 B( 35-C , 38-N ) :   0.9324 B( 35-C , 39-H ) :   0.9343
B( 35-C , 53-H ) :   0.9296 B( 40-C , 41-C ) :   0.9360 B( 40-C , 42-N ) :   0.9995
B( 40-C , 43-H ) :   0.9488 B( 40-C , 54-H ) :   0.9505 B( 41-C , 44-N ) :   1.0299
B( 41-C , 45-H ) :   0.9528 B( 41-C , 55-H ) :   0.9417 B( 42-N , 56-H ) :   0.8506
B( 44-N , 48-H ) :   0.8646

Dispersion correction           -0.173840754
FINAL SINGLE POINT ENERGY     -1333.238010987264

DIPOLE MOMENT
-------------
                                X             Y             Z
Electronic contribution:     -9.52215     -17.16432       1.33434
Nuclear contribution   :     10.37651      18.86682      -1.83442
                        -----------------------------------------
Total Dipole Moment    :      0.85435       1.70250      -0.50008
                        -----------------------------------------
Magnitude (a.u.)       :      1.96939
Magnitude (Debye)      :      5.00579

Rotational constants in cm-1:     0.006013     0.003608     0.002510
Rotational constants in MHz :   180.270982   108.164342    75.238619

                             ****ORCA TERMINATED NORMALLY****
TOTAL RUN TIME: 0 days 0 hours 49 minutes 59 seconds 335 msec
