                         Program Version 4.2.1 -  RELEASE  -
|  1> ! RI-MP2 cc-pVTZ cc-pVTZ/C TIGHTSCF printbasis Grid6 NOFINALGRID SlowConv
|  2>
|  3> %base "_o_2_alde1_3_ami3_2_opt_MP2"
|  4> %maxcore 3000
|  5> %pal
|  6>    nprocs 32
|  7> end
|  8>
|  9> * xyzfile 0 1 _o_2_alde1_3_ami3_2_opt_B97-3c.xyz
| 10>
| 11>                          ****END OF INPUT****

CARTESIAN COORDINATES (ANGSTROEM)
---------------------------------
  C     -3.579622   -1.777604   -0.770315
  C     -3.855083   -1.386097    0.609961
  C     -2.713461   -2.827110   -1.086238
  C     -2.364223   -3.071852   -2.406143
  H     -2.301380   -3.425094   -0.283513
  C     -2.851826   -2.246843   -3.424322
  C     -3.723239   -1.209487   -3.128202
  H     -2.525941   -2.429223   -4.440423
  C     -4.098216   -1.000653   -1.796950
  C     -4.141750   -0.275066   -4.174030
  H     -4.762012   -0.175826   -1.575805
  C     -1.446507   -4.178967   -2.714658
  H     -3.565537   -0.329033   -5.107806
  H     -4.617160   -0.604975    0.727167
  C     -1.270724    1.728519    0.050490
  C     -1.287793    0.952970    1.289290
  C     -2.462132    2.086817   -0.586733
  C     -2.447753    2.679817   -1.841061
  H     -3.399159    1.841104   -0.105538
  C     -1.220728    2.983060   -2.440194
  C     -0.027663    2.674462   -1.800741
  H     -1.219764    3.439345   -3.421577
  C     -0.062758    2.020565   -0.564071
  C      1.246487    3.011674   -2.435013
  H      0.875418    1.744810   -0.101037
  C     -3.721007    2.847411   -2.536972
  H     -4.610168    2.675158   -1.915560
  C     -2.285713   -0.155122    3.080846
  C     -3.420058   -1.184375    2.874285
  N     -2.335101    0.782206    1.985640
  H     -1.335915   -0.709758    3.093793
  C     -2.460841    0.550024    4.420455
  N     -3.203188   -1.835752    1.602884
  H     -4.358639   -0.610980    2.873146
  C     -3.445059   -2.185774    4.016648
  H     -3.381169    1.136775    4.390357
  C     -2.504736   -0.447141    5.568679
  H     -2.521615   -2.768076    3.991730
  C     -3.594296   -1.489067    5.360333
  H     -2.654657    0.079999    6.512312
  H     -1.537096   -0.950927    5.647091
  H     -3.575383   -2.224552    6.165723
  H     -4.572246   -1.001997    5.410094
  O     -1.059561   -4.474727   -3.827190
  C     -5.264937    1.585098   -5.021366
  C     -5.139509    2.977064   -4.361808
  N     -5.054796    0.588333   -3.999293
  H     -4.497358    1.523656   -5.806312
  C     -6.638814    1.432071   -5.663300
  N     -3.818971    3.078291   -3.782582
  H     -5.919822    3.023767   -3.587575
  C     -5.386438    4.070027   -5.388910
  H     -7.397344    1.448748   -4.878038
  C     -6.901091    2.536356   -6.676337
  H     -4.595809    4.027019   -6.140714
  C     -6.747997    3.914493   -6.049180
  H     -6.195415    2.440830   -7.506388
  H     -7.897608    2.417740   -7.104692
  H     -6.889412    4.692071   -6.801474
  H     -7.534375    4.060402   -5.302967
  C      4.347907    1.812779   -3.017277
  C      3.575554    3.074171   -2.620011
  N      3.544015    1.034492   -3.955124
  H      4.559336    1.268678   -2.084446
  C      5.673383    2.189687   -3.659758
  N      2.366464    2.692205   -1.927700
  H      3.349670    3.618214   -3.549603
  C      4.419119    3.959806   -1.706214
  H      5.466474    2.705095   -4.600711
  C      6.517840    3.071628   -2.753293
  H      4.581482    3.427548   -0.766877
  C      5.752499    4.319671   -2.340498
  H      7.448774    3.341653   -3.254352
  H      6.799972    2.509045   -1.858849
  H      6.343701    4.919300   -1.646329
  H      5.582591    4.945579   -3.220716
  H     -0.336154    0.469601    1.551428
  H      2.717985    0.687107   -3.483838
  H      1.177383    3.563033   -3.382421
  H     -1.110739   -4.756041   -1.828539
  H     -1.642619    1.258846    4.554618
  H     -4.261559   -2.889739    3.851836
  H     -6.699265    0.451091   -6.136562
  H     -5.299366    5.041370   -4.901311
  H      6.218432    1.277889   -3.917867
  H      3.851229    4.857710   -1.460231
  H      4.064886    0.218895   -4.253916

 Total Charge           Charge          ....    0
 Multiplicity           Mult            ....    1
 Number of Electrons    NEL             ....  310
 Basis Dimension        Dim             .... 1906

ORBITAL ENERGIES
----------------

  NO   OCC          E(Eh)            E(eV)
   0   2.0000     -20.554361      -559.3126
   1   2.0000     -15.558057      -423.3562
   2   2.0000     -15.555429      -423.2847
   3   2.0000     -15.555391      -423.2837
   4   2.0000     -15.553715      -423.2381
   5   2.0000     -15.552000      -423.1914
   6   2.0000     -15.528938      -422.5639
   7   2.0000     -11.334707      -308.4331
   8   2.0000     -11.285785      -307.1018
   9   2.0000     -11.283742      -307.0462
  10   2.0000     -11.283442      -307.0381
  11   2.0000     -11.280620      -306.9613
  12   2.0000     -11.280308      -306.9528
  13   2.0000     -11.262506      -306.4684
  14   2.0000     -11.260576      -306.4159
  15   2.0000     -11.260124      -306.4035
  16   2.0000     -11.254987      -306.2638
  17   2.0000     -11.254974      -306.2634
  18   2.0000     -11.254800      -306.2587
  19   2.0000     -11.254358      -306.2466
  20   2.0000     -11.253457      -306.2221
  21   2.0000     -11.253055      -306.2112
  22   2.0000     -11.252322      -306.1913
  23   2.0000     -11.250086      -306.1304
  24   2.0000     -11.249766      -306.1217
  25   2.0000     -11.249019      -306.1014
  26   2.0000     -11.247714      -306.0659
  27   2.0000     -11.247535      -306.0610
  28   2.0000     -11.247091      -306.0489
  29   2.0000     -11.245780      -306.0132
  30   2.0000     -11.243604      -305.9540
  31   2.0000     -11.219321      -305.2932
  32   2.0000     -11.218606      -305.2738
  33   2.0000     -11.218488      -305.2706
  34   2.0000     -11.218197      -305.2627
  35   2.0000     -11.217969      -305.2565
  36   2.0000     -11.217497      -305.2436
  37   2.0000     -11.215957      -305.2017
  38   2.0000     -11.214604      -305.1649
  39   2.0000     -11.214224      -305.1545
  40   2.0000     -11.213599      -305.1375
  41   2.0000     -11.211902      -305.0914
  42   2.0000     -11.211476      -305.0798
  43   2.0000      -1.389029       -37.7974
  44   2.0000      -1.260895       -34.3107
  45   2.0000      -1.258648       -34.2496
  46   2.0000      -1.245419       -33.8896
  47   2.0000      -1.231592       -33.5133
  48   2.0000      -1.226283       -33.3689
  49   2.0000      -1.183604       -32.2075
  50   2.0000      -1.179582       -32.0981
  51   2.0000      -1.165727       -31.7210
  52   2.0000      -1.119273       -30.4570
  53   2.0000      -1.113117       -30.2895
  54   2.0000      -1.098569       -29.8936
  55   2.0000      -1.065688       -28.9988
  56   2.0000      -1.063891       -28.9500
  57   2.0000      -1.057578       -28.7782
  58   2.0000      -1.057106       -28.7653
  59   2.0000      -1.009242       -27.4629
  60   2.0000      -1.005081       -27.3496
  61   2.0000      -1.002830       -27.2884
  62   2.0000      -0.996315       -27.1111
  63   2.0000      -0.991600       -26.9828
  64   2.0000      -0.975536       -26.5457
  65   2.0000      -0.905017       -24.6268
  66   2.0000      -0.903083       -24.5741
  67   2.0000      -0.894074       -24.3290
  68   2.0000      -0.887278       -24.1441
  69   2.0000      -0.882992       -24.0274
  70   2.0000      -0.867284       -23.6000
  71   2.0000      -0.834875       -22.7181
  72   2.0000      -0.830929       -22.6107
  73   2.0000      -0.826624       -22.4936
  74   2.0000      -0.820946       -22.3391
  75   2.0000      -0.815638       -22.1946
  76   2.0000      -0.804349       -21.8874
  77   2.0000      -0.772073       -21.0092
  78   2.0000      -0.770529       -20.9672
  79   2.0000      -0.761871       -20.7316
  80   2.0000      -0.760378       -20.6910
  81   2.0000      -0.756102       -20.5746
  82   2.0000      -0.748069       -20.3560
  83   2.0000      -0.746299       -20.3078
  84   2.0000      -0.714912       -19.4537
  85   2.0000      -0.703426       -19.1412
  86   2.0000      -0.697519       -18.9805
  87   2.0000      -0.690946       -18.8016
  88   2.0000      -0.673033       -18.3141
  89   2.0000      -0.669770       -18.2254
  90   2.0000      -0.664445       -18.0805
  91   2.0000      -0.657623       -17.8948
  92   2.0000      -0.654815       -17.8184
  93   2.0000      -0.647285       -17.6135
  94   2.0000      -0.645998       -17.5785
  95   2.0000      -0.640886       -17.4394
  96   2.0000      -0.633305       -17.2331
  97   2.0000      -0.629848       -17.1390
  98   2.0000      -0.627725       -17.0813
  99   2.0000      -0.624791       -17.0014
 100   2.0000      -0.617519       -16.8035
 101   2.0000      -0.613354       -16.6902
 102   2.0000      -0.608837       -16.5673
 103   2.0000      -0.604351       -16.4452
 104   2.0000      -0.601527       -16.3684
 105   2.0000      -0.594617       -16.1803
 106   2.0000      -0.593913       -16.1612
 107   2.0000      -0.592091       -16.1116
 108   2.0000      -0.580356       -15.7923
 109   2.0000      -0.579860       -15.7788
 110   2.0000      -0.565447       -15.3866
 111   2.0000      -0.563659       -15.3380
 112   2.0000      -0.558639       -15.2014
 113   2.0000      -0.554506       -15.0889
 114   2.0000      -0.544821       -14.8253
 115   2.0000      -0.544028       -14.8038
 116   2.0000      -0.540845       -14.7171
 117   2.0000      -0.534232       -14.5372
 118   2.0000      -0.531555       -14.4643
 119   2.0000      -0.530440       -14.4340
 120   2.0000      -0.523850       -14.2547
 121   2.0000      -0.521896       -14.2015
 122   2.0000      -0.519210       -14.1284
 123   2.0000      -0.517771       -14.0893
 124   2.0000      -0.501005       -13.6330
 125   2.0000      -0.496473       -13.5097
 126   2.0000      -0.494281       -13.4501
 127   2.0000      -0.492391       -13.3986
 128   2.0000      -0.488794       -13.3008
 129   2.0000      -0.487107       -13.2549
 130   2.0000      -0.476983       -12.9794
 131   2.0000      -0.475736       -12.9454
 132   2.0000      -0.473409       -12.8821
 133   2.0000      -0.467728       -12.7275
 134   2.0000      -0.463617       -12.6157
 135   2.0000      -0.462626       -12.5887
 136   2.0000      -0.459969       -12.5164
 137   2.0000      -0.456588       -12.4244
 138   2.0000      -0.441615       -12.0170
 139   2.0000      -0.440182       -11.9780
 140   2.0000      -0.432733       -11.7753
 141   2.0000      -0.431329       -11.7371
 142   2.0000      -0.428195       -11.6518
 143   2.0000      -0.417491       -11.3605
 144   2.0000      -0.414260       -11.2726
 145   2.0000      -0.412509       -11.2249
 146   2.0000      -0.408056       -11.1038
 147   2.0000      -0.406142       -11.0517
 148   2.0000      -0.402650       -10.9567
 149   2.0000      -0.393938       -10.7196
 150   2.0000      -0.384065       -10.4509
 151   2.0000      -0.346063        -9.4168
 152   2.0000      -0.330932        -9.0051
 153   2.0000      -0.325185        -8.8487
 154   2.0000      -0.322832        -8.7847
 155   0.0000       0.059167         1.6100
 156   0.0000       0.066742         1.8161
 157   0.0000       0.074344         2.0230
 158   0.0000       0.077766         2.1161
 159   0.0000       0.124658         3.3921

MULLIKEN ATOMIC CHARGES
-----------------------
   0 C :    0.168838
   1 C :   -0.106582
   2 C :   -0.200099
   3 C :    0.079050
   4 H :    0.165321
   5 C :   -0.215418
   6 C :    0.195089
   7 H :    0.174268
   8 C :   -0.197490
   9 C :   -0.093552
  10 H :    0.166443
  11 C :    0.172536
  12 H :    0.093733
  13 H :    0.103819
  14 C :    0.204077
  15 C :   -0.090477
  16 C :   -0.228185
  17 C :    0.177806
  18 H :    0.162136
  19 C :   -0.213270
  20 C :    0.161959
  21 H :    0.158279
  22 C :   -0.214646
  23 C :   -0.093296
  24 H :    0.159061
  25 C :   -0.104813
  26 H :    0.099969
  27 C :    0.088713
  28 C :    0.093448
  29 N :   -0.295627
  30 H :    0.079063
  31 C :   -0.203547
  32 N :   -0.288367
  33 H :    0.079646
  34 C :   -0.204368
  35 H :    0.099877
  36 C :   -0.207106
  37 H :    0.096251
  38 C :   -0.205065
  39 H :    0.113965
  40 H :    0.089195
  41 H :    0.113405
  42 H :    0.088908
  43 O :   -0.365165
  44 C :    0.086181
  45 C :    0.094808
  46 N :   -0.293606
  47 H :    0.081368
  48 C :   -0.203645
  49 N :   -0.287696
  50 H :    0.078791
  51 C :   -0.204423
  52 H :    0.099406
  53 C :   -0.206791
  54 H :    0.097027
  55 C :   -0.205287
  56 H :    0.089765
  57 H :    0.113917
  58 H :    0.113249
  59 H :    0.088549
  60 C :    0.037643
  61 C :    0.098767
  62 N :   -0.390643
  63 H :    0.088110
  64 C :   -0.207317
  65 N :   -0.297069
  66 H :    0.078613
  67 C :   -0.200643
  68 H :    0.096599
  69 C :   -0.200270
  70 H :    0.095465
  71 C :   -0.208144
  72 H :    0.112021
  73 H :    0.086129
  74 H :    0.111558
  75 H :    0.090089
  76 H :    0.089765
  77 H :    0.147344
  78 H :    0.098013
  79 H :    0.092533
  80 H :    0.108899
  81 H :    0.110190
  82 H :    0.108890
  83 H :    0.110420
  84 H :    0.101908
  85 H :    0.106849
  86 H :    0.134888
Sum of atomic charges:   -0.0000000

LOEWDIN ATOMIC CHARGES
----------------------
   0 C :   -0.073285
   1 C :   -0.069207
   2 C :    0.101751
   3 C :   -0.094428
   4 H :   -0.014893
   5 C :    0.099758
   6 C :   -0.071610
   7 H :   -0.011758
   8 C :    0.105217
   9 C :   -0.065111
  10 H :   -0.019071
  11 C :   -0.148970
  12 H :   -0.032744
  13 H :   -0.034394
  14 C :   -0.075980
  15 C :   -0.064986
  16 C :    0.090124
  17 C :   -0.074762
  18 H :   -0.022798
  19 C :    0.092816
  20 C :   -0.076150
  21 H :   -0.017329
  22 C :    0.092536
  23 C :   -0.067334
  24 H :   -0.019552
  25 C :   -0.070030
  26 H :   -0.035290
  27 C :   -0.108470
  28 C :   -0.110814
  29 N :    0.230994
  30 H :   -0.031877
  31 C :    0.062066
  32 N :    0.224620
  33 H :   -0.030096
  34 C :    0.059949
  35 H :   -0.023884
  36 C :    0.059160
  37 H :   -0.023985
  38 C :    0.059046
  39 H :   -0.025224
  40 H :   -0.025862
  41 H :   -0.025381
  42 H :   -0.026004
  43 O :    0.137425
  44 C :   -0.107358
  45 C :   -0.110630
  46 N :    0.234165
  47 H :   -0.031180
  48 C :    0.062074
  49 N :    0.222527
  50 H :   -0.030729
  51 C :    0.060439
  52 H :   -0.024019
  53 C :    0.059152
  54 H :   -0.023641
  55 C :    0.059028
  56 H :   -0.025603
  57 H :   -0.025358
  58 H :   -0.025282
  59 H :   -0.026218
  60 C :   -0.090764
  61 C :   -0.110743
  62 N :    0.335945
  63 H :   -0.036541
  64 C :    0.058659
  65 N :    0.231854
  66 H :   -0.030837
  67 C :    0.060981
  68 H :   -0.023336
  69 C :    0.058515
  70 H :   -0.024485
  71 C :    0.058074
  72 H :   -0.026164
  73 H :   -0.026429
  74 H :   -0.025916
  75 H :   -0.026264
  76 H :   -0.033458
  77 H :   -0.110457
  78 H :   -0.032815
  79 H :   -0.034465
  80 H :   -0.025487
  81 H :   -0.024772
  82 H :   -0.025556
  83 H :   -0.024955
  84 H :   -0.027317
  85 H :   -0.026579
  86 H :   -0.108231

  Mayer bond orders larger than 0.100000
B(  0-C ,  1-C ) :   1.0080 B(  0-C ,  2-C ) :   1.2890 B(  0-C ,  8-C ) :   1.3755
B(  1-C , 13-H ) :   0.9880 B(  1-C , 32-N ) :   1.9611 B(  2-C ,  3-C ) :   1.3705
B(  2-C ,  4-H ) :   0.9590 B(  3-C ,  5-C ) :   1.2831 B(  3-C , 11-C ) :   0.9311
B(  5-C ,  6-C ) :   1.3848 B(  5-C ,  7-H ) :   0.9641 B(  6-C ,  8-C ) :   1.2842
B(  6-C ,  9-C ) :   0.9933 B(  8-C , 10-H ) :   0.9602 B(  9-C , 12-H ) :   0.9876
B(  9-C , 46-N ) :   1.9756 B( 11-C , 43-O ) :   2.0872 B( 11-C , 79-H ) :   1.0207
B( 14-C , 15-C ) :   0.9929 B( 14-C , 16-C ) :   1.2843 B( 14-C , 22-C ) :   1.3882
B( 15-C , 29-N ) :   1.9727 B( 15-C , 76-H ) :   0.9873 B( 16-C , 17-C ) :   1.3748
B( 16-C , 18-H ) :   0.9627 B( 17-C , 19-C ) :   1.2974 B( 17-C , 25-C ) :   1.0058
B( 19-C , 20-C ) :   1.3903 B( 19-C , 21-H ) :   0.9634 B( 20-C , 22-C ) :   1.2928
B( 20-C , 23-C ) :   0.9990 B( 22-C , 24-H ) :   0.9631 B( 23-C , 65-N ) :   1.9686
B( 23-C , 78-H ) :   0.9893 B( 25-C , 26-H ) :   0.9886 B( 25-C , 49-N ) :   1.9612
B( 27-C , 28-C ) :   0.9326 B( 27-C , 29-N ) :   0.9372 B( 27-C , 30-H ) :   0.9715
B( 27-C , 31-C ) :   0.9502 B( 28-C , 32-N ) :   0.9366 B( 28-C , 33-H ) :   0.9743
B( 28-C , 34-C ) :   0.9555 B( 31-C , 35-H ) :   0.9831 B( 31-C , 36-C ) :   0.9416
B( 31-C , 80-H ) :   0.9910 B( 34-C , 37-H ) :   0.9842 B( 34-C , 38-C ) :   0.9445
B( 34-C , 81-H ) :   0.9915 B( 36-C , 38-C ) :   0.9441 B( 36-C , 39-H ) :   0.9946
B( 36-C , 40-H ) :   0.9848 B( 38-C , 41-H ) :   0.9953 B( 38-C , 42-H ) :   0.9848
B( 44-C , 45-C ) :   0.9322 B( 44-C , 46-N ) :   0.9353 B( 44-C , 47-H ) :   0.9723
B( 44-C , 48-C ) :   0.9502 B( 45-C , 49-N ) :   0.9373 B( 45-C , 50-H ) :   0.9742
B( 45-C , 51-C ) :   0.9554 B( 48-C , 52-H ) :   0.9830 B( 48-C , 53-C ) :   0.9419
B( 48-C , 82-H ) :   0.9911 B( 51-C , 54-H ) :   0.9844 B( 51-C , 55-C ) :   0.9441
B( 51-C , 83-H ) :   0.9913 B( 53-C , 55-C ) :   0.9439 B( 53-C , 56-H ) :   0.9848
B( 53-C , 57-H ) :   0.9945 B( 55-C , 58-H ) :   0.9953 B( 55-C , 59-H ) :   0.9848
B( 60-C , 61-C ) :   0.9257 B( 60-C , 62-N ) :   0.9949 B( 60-C , 63-H ) :   0.9935
B( 60-C , 64-C ) :   0.9440 B( 61-C , 65-N ) :   0.9295 B( 61-C , 66-H ) :   0.9712
B( 61-C , 67-C ) :   0.9570 B( 62-N , 77-H ) :   0.9799 B( 62-N , 86-H ) :   0.9875
B( 64-C , 68-H ) :   0.9797 B( 64-C , 69-C ) :   0.9508 B( 64-C , 84-H ) :   0.9943
B( 67-C , 70-H ) :   0.9831 B( 67-C , 71-C ) :   0.9432 B( 67-C , 85-H ) :   0.9914
B( 69-C , 71-C ) :   0.9423 B( 69-C , 72-H ) :   0.9960 B( 69-C , 73-H ) :   0.9838
B( 71-C , 74-H ) :   0.9953 B( 71-C , 75-H ) :   0.9854

MP2 TOTAL ENERGY:    -1798.307673963 Eh
FINAL SINGLE POINT ENERGY     -1798.307673963202

DIPOLE MOMENT
-------------
                                X             Y             Z
Electronic contribution:    -14.33617     -18.34363      -2.88794
Nuclear contribution   :     13.98073      18.99629       3.74023
                        -----------------------------------------
Total Dipole Moment    :     -0.35544       0.65266       0.85229
                        -----------------------------------------
Magnitude (a.u.)       :      1.13080
Magnitude (Debye)      :      2.87426

Rotational constants in cm-1:     0.002022     0.001712     0.001224
Rotational constants in MHz :    60.613430    51.336460    36.706348

                             ****ORCA TERMINATED NORMALLY****
TOTAL RUN TIME: 0 days 1 hours 7 minutes 32 seconds 933 msec
