                         Program Version 4.2.1 -  RELEASE  -
|  1> ! RI-MP2 cc-pVTZ cc-pVTZ/C TIGHTSCF printbasis Grid6 NOFINALGRID SlowConv
|  2>
|  3> %base "_o_2_alde1_3_ami2_2_opt_MP2"
|  4> %maxcore 3000
|  5> %pal
|  6>    nprocs 32
|  7> end
|  8>
|  9> * xyzfile 0 1 _o_2_alde1_3_ami2_2_opt_B97-3c.xyz
| 10>
| 11>                          ****END OF INPUT****

CARTESIAN COORDINATES (ANGSTROEM)
---------------------------------
  C     -4.421191   -1.853307   -0.249852
  C     -3.778608   -1.730764    1.063553
  C     -5.100776   -3.019563   -0.565032
  C     -5.644872   -3.198259   -1.839535
  H     -5.207521   -3.816620    0.159904
  C     -5.515775   -2.200735   -2.792947
  C     -4.856853   -1.005968   -2.485946
  H     -5.926205   -2.328454   -3.786290
  C     -4.317336   -0.842616   -1.216177
  C     -4.723197    0.057298   -3.490261
  H     -3.788253    0.064424   -0.954799
  C     -6.348523   -4.443236   -2.186846
  H     -4.382453    1.022845   -3.105643
  H     -4.020343   -2.532679    1.770009
  C     -0.255141    0.199575   -1.243054
  C     -0.410983   -0.631690   -0.053156
  C     -0.891834   -0.214697   -2.414084
  C     -0.991798    0.634722   -3.510237
  H     -1.389898   -1.177174   -2.438883
  C     -0.364756    1.878443   -3.460800
  C      0.344294    2.272306   -2.329193
  H     -0.448200    2.537690   -4.314540
  C      0.372325    1.438390   -1.210734
  C      1.016280    3.571496   -2.326796
  H      0.864659    1.768751   -0.308427
  C     -1.858546    0.245921   -4.620143
  H     -2.100944   -0.823268   -4.685594
  C     -0.742736   -1.042727    2.184488
  C     -2.216659   -0.699759    2.558370
  N     -0.260909   -0.191029    1.127816
  H     -0.715273   -2.106729    1.911997
  N     -2.970826   -0.788517    1.314951
  C     -2.321334    0.748637    3.028645
  O     -6.512130   -5.383366   -1.435809
  C     -4.806461    0.862505   -5.736894
  C     -3.379901    0.643509   -6.325498
  N     -4.985453   -0.162032   -4.713521
  C     -5.820478    0.551376   -6.833710
  N     -2.371786    1.100732   -5.408989
  H     -3.312228    1.223160   -7.245649
  C      2.363999    5.265423   -1.454636
  C      3.888583    5.154121   -1.211261
  N      1.724424    3.981599   -1.357554
  H      2.174165    5.759780   -2.418732
  N      4.203706    4.545370    0.083055
  C      4.481611    6.554601   -1.236661
  H     -0.773279   -1.651970   -0.243954
  H      0.872188    4.180911   -3.230876
  H      3.681630    3.679605    0.161662
  H     -6.735793   -4.475075   -3.226368
  H     -0.131120   -0.903107    3.075548
  C     -2.649232   -1.648201    3.669603
  C     -4.981112    2.299546   -5.257187
  H     -3.285015   -0.418901   -6.576767
  H      1.950802    5.902803   -0.667768
  C      4.516426    4.297090   -2.302459
  H     -5.714451    1.239342   -7.670987
  H     -6.832821    0.643260   -6.444338
  H     -5.692697   -0.467056   -7.194072
  H     -2.047710   -1.476195    4.559560
  H     -2.530762   -2.695217    3.393962
  H     -3.691175   -1.481098    3.939408
  H      4.301638    4.701957   -3.291521
  H      4.132601    3.278844   -2.267298
  H      5.594787    4.256249   -2.169211
  H      3.853049    5.142331    0.824577
  H     -4.905883    2.982204   -6.101339
  H     -4.221393    2.596524   -4.541096
  H     -5.964097    2.428981   -4.805240
  H      4.305923    7.041513   -2.194732
  H      5.554639    6.505644   -1.065495
  H      4.044836    7.181403   -0.457129
  H     -3.352720    0.985910    3.285039
  H     -1.992778    1.424124    2.245534
  H     -1.702601    0.911030    3.909869

 Total Charge           Charge          ....    0
 Multiplicity           Mult            ....    1
 Number of Electrons    NEL             ....  268
 Basis Dimension        Dim             .... 1642

ORBITAL ENERGIES
----------------

  NO   OCC          E(Eh)            E(eV)
   0   2.0000     -20.558758      -559.4322
   1   2.0000     -15.561446      -423.4485
   2   2.0000     -15.561086      -423.4387
   3   2.0000     -15.559698      -423.4009
   4   2.0000     -15.558218      -423.3606
   5   2.0000     -15.551701      -423.1833
   6   2.0000     -15.522761      -422.3958
   7   2.0000     -11.338977      -308.5492
   8   2.0000     -11.290083      -307.2188
   9   2.0000     -11.289999      -307.2165
  10   2.0000     -11.288465      -307.1747
  11   2.0000     -11.283741      -307.0462
  12   2.0000     -11.280897      -306.9688
  13   2.0000     -11.272096      -306.7293
  14   2.0000     -11.271835      -306.7222
  15   2.0000     -11.266038      -306.5645
  16   2.0000     -11.264725      -306.5287
  17   2.0000     -11.264572      -306.5246
  18   2.0000     -11.260425      -306.4117
  19   2.0000     -11.260203      -306.4057
  20   2.0000     -11.257391      -306.3292
  21   2.0000     -11.256397      -306.3021
  22   2.0000     -11.255448      -306.2763
  23   2.0000     -11.253764      -306.2305
  24   2.0000     -11.253730      -306.2296
  25   2.0000     -11.252828      -306.2050
  26   2.0000     -11.251667      -306.1734
  27   2.0000     -11.250398      -306.1389
  28   2.0000     -11.249799      -306.1226
  29   2.0000     -11.246337      -306.0284
  30   2.0000     -11.246231      -306.0255
  31   2.0000     -11.221940      -305.3645
  32   2.0000     -11.214940      -305.1740
  33   2.0000     -11.214416      -305.1598
  34   2.0000     -11.207592      -304.9741
  35   2.0000     -11.206950      -304.9566
  36   2.0000     -11.200552      -304.7825
  37   2.0000      -1.393347       -37.9149
  38   2.0000      -1.263664       -34.3860
  39   2.0000      -1.260486       -34.2996
  40   2.0000      -1.246068       -33.9072
  41   2.0000      -1.234784       -33.6002
  42   2.0000      -1.228889       -33.4398
  43   2.0000      -1.186567       -32.2881
  44   2.0000      -1.183052       -32.1925
  45   2.0000      -1.168470       -31.7957
  46   2.0000      -1.098699       -29.8971
  47   2.0000      -1.086463       -29.5642
  48   2.0000      -1.063966       -28.9520
  49   2.0000      -1.057362       -28.7723
  50   2.0000      -1.051685       -28.6178
  51   2.0000      -1.035523       -28.1780
  52   2.0000      -1.022923       -27.8351
  53   2.0000      -0.952297       -25.9133
  54   2.0000      -0.947159       -25.7735
  55   2.0000      -0.946069       -25.7438
  56   2.0000      -0.944050       -25.6889
  57   2.0000      -0.941365       -25.6159
  58   2.0000      -0.932596       -25.3772
  59   2.0000      -0.908210       -24.7136
  60   2.0000      -0.904774       -24.6202
  61   2.0000      -0.885840       -24.1049
  62   2.0000      -0.881820       -23.9955
  63   2.0000      -0.859848       -23.3977
  64   2.0000      -0.826590       -22.4926
  65   2.0000      -0.808960       -22.0129
  66   2.0000      -0.788403       -21.4535
  67   2.0000      -0.770280       -20.9604
  68   2.0000      -0.754723       -20.5370
  69   2.0000      -0.749647       -20.3989
  70   2.0000      -0.740211       -20.1422
  71   2.0000      -0.732145       -19.9227
  72   2.0000      -0.720802       -19.6140
  73   2.0000      -0.704581       -19.1726
  74   2.0000      -0.694010       -18.8850
  75   2.0000      -0.688987       -18.7483
  76   2.0000      -0.673478       -18.3263
  77   2.0000      -0.670867       -18.2552
  78   2.0000      -0.657887       -17.9020
  79   2.0000      -0.656429       -17.8623
  80   2.0000      -0.650601       -17.7037
  81   2.0000      -0.649059       -17.6618
  82   2.0000      -0.647133       -17.6094
  83   2.0000      -0.635731       -17.2991
  84   2.0000      -0.633031       -17.2256
  85   2.0000      -0.628283       -17.0964
  86   2.0000      -0.628025       -17.0894
  87   2.0000      -0.622780       -16.9467
  88   2.0000      -0.617474       -16.8023
  89   2.0000      -0.614316       -16.7164
  90   2.0000      -0.610312       -16.6074
  91   2.0000      -0.596445       -16.2301
  92   2.0000      -0.593523       -16.1506
  93   2.0000      -0.571487       -15.5510
  94   2.0000      -0.566630       -15.4188
  95   2.0000      -0.565298       -15.3825
  96   2.0000      -0.562509       -15.3066
  97   2.0000      -0.554910       -15.0999
  98   2.0000      -0.554124       -15.0785
  99   2.0000      -0.548759       -14.9325
 100   2.0000      -0.544221       -14.8090
 101   2.0000      -0.542317       -14.7572
 102   2.0000      -0.539978       -14.6936
 103   2.0000      -0.537902       -14.6371
 104   2.0000      -0.528022       -14.3682
 105   2.0000      -0.527268       -14.3477
 106   2.0000      -0.525066       -14.2878
 107   2.0000      -0.523368       -14.2416
 108   2.0000      -0.522716       -14.2238
 109   2.0000      -0.518561       -14.1108
 110   2.0000      -0.511207       -13.9106
 111   2.0000      -0.505612       -13.7584
 112   2.0000      -0.498706       -13.5705
 113   2.0000      -0.498093       -13.5538
 114   2.0000      -0.492389       -13.3986
 115   2.0000      -0.489511       -13.3203
 116   2.0000      -0.487842       -13.2749
 117   2.0000      -0.468324       -12.7437
 118   2.0000      -0.467294       -12.7157
 119   2.0000      -0.452911       -12.3243
 120   2.0000      -0.443330       -12.0636
 121   2.0000      -0.435203       -11.8425
 122   2.0000      -0.432434       -11.7671
 123   2.0000      -0.413858       -11.2616
 124   2.0000      -0.412458       -11.2235
 125   2.0000      -0.409258       -11.1365
 126   2.0000      -0.407040       -11.0761
 127   2.0000      -0.403670       -10.9844
 128   2.0000      -0.395066       -10.7503
 129   2.0000      -0.379701       -10.3322
 130   2.0000      -0.351384        -9.5617
 131   2.0000      -0.338221        -9.2035
 132   2.0000      -0.328794        -8.9469
 133   2.0000      -0.323272        -8.7967
 134   0.0000       0.054113         1.4725
 135   0.0000       0.064311         1.7500
 136   0.0000       0.066233         1.8023
 137   0.0000       0.078016         2.1229
 138   0.0000       0.121046         3.2938

MULLIKEN ATOMIC CHARGES
-----------------------
   0 C :    0.171307
   1 C :   -0.124677
   2 C :   -0.209369
   3 C :    0.078761
   4 H :    0.173583
   5 C :   -0.198889
   6 C :    0.171225
   7 H :    0.171077
   8 C :   -0.218489
   9 C :   -0.152756
  10 H :    0.188632
  11 C :    0.174112
  12 H :    0.135486
  13 H :    0.114368
  14 C :    0.179565
  15 C :   -0.058194
  16 C :   -0.261137
  17 C :    0.175343
  18 H :    0.157597
  19 C :   -0.222255
  20 C :    0.162294
  21 H :    0.158309
  22 C :   -0.185696
  23 C :   -0.093881
  24 H :    0.178085
  25 C :   -0.122936
  26 H :    0.125858
  27 C :   -0.059001
  28 C :    0.172200
  29 N :   -0.261880
  30 H :    0.080432
  31 N :   -0.283771
  32 C :   -0.286168
  33 O :   -0.364319
  34 C :    0.158813
  35 C :   -0.051812
  36 N :   -0.276440
  37 C :   -0.295474
  38 N :   -0.267332
  39 H :    0.112768
  40 C :   -0.039972
  41 C :    0.160285
  42 N :   -0.257933
  43 H :    0.058357
  44 N :   -0.383084
  45 C :   -0.307142
  46 H :    0.091183
  47 H :    0.091750
  48 H :    0.148245
  49 H :    0.093448
  50 H :    0.115541
  51 C :   -0.362735
  52 C :   -0.333100
  53 H :    0.087994
  54 H :    0.102279
  55 C :   -0.313070
  56 H :    0.091793
  57 H :    0.102463
  58 H :    0.104108
  59 H :    0.121593
  60 H :    0.102830
  61 H :    0.112885
  62 H :    0.084805
  63 H :    0.106075
  64 H :    0.112290
  65 H :    0.124695
  66 H :    0.109643
  67 H :    0.117699
  68 H :    0.108125
  69 H :    0.090879
  70 H :    0.112453
  71 H :    0.090325
  72 H :    0.096975
  73 H :    0.125101
  74 H :    0.087878
Sum of atomic charges:   -0.0000000

LOEWDIN ATOMIC CHARGES
----------------------
   0 C :   -0.074778
   1 C :   -0.077224
   2 C :    0.094417
   3 C :   -0.095825
   4 H :   -0.012409
   5 C :    0.098248
   6 C :   -0.075930
   7 H :   -0.016333
   8 C :    0.102599
   9 C :   -0.067310
  10 H :   -0.015404
  11 C :   -0.148188
  12 H :   -0.031286
  13 H :   -0.032666
  14 C :   -0.072430
  15 C :   -0.070975
  16 C :    0.072202
  17 C :   -0.081191
  18 H :   -0.021196
  19 C :    0.087377
  20 C :   -0.074040
  21 H :   -0.018289
  22 C :    0.113147
  23 C :   -0.073767
  24 H :   -0.014987
  25 C :   -0.070788
  26 H :   -0.032982
  27 C :   -0.030619
  28 C :   -0.202159
  29 N :    0.217143
  30 H :   -0.036322
  31 N :    0.248193
  32 C :    0.118888
  33 O :    0.138570
  34 C :   -0.200278
  35 C :   -0.030289
  36 N :    0.233170
  37 C :    0.115310
  38 N :    0.215443
  39 H :   -0.025597
  40 C :   -0.038444
  41 C :   -0.195417
  42 N :    0.227459
  43 H :   -0.036925
  44 N :    0.340714
  45 C :    0.116532
  46 H :   -0.036278
  47 H :   -0.035300
  48 H :   -0.106785
  49 H :   -0.033923
  50 H :   -0.026034
  51 C :    0.112806
  52 C :    0.115448
  53 H :   -0.033130
  54 H :   -0.029220
  55 C :    0.113813
  56 H :   -0.028787
  57 H :   -0.026994
  58 H :   -0.027121
  59 H :   -0.020371
  60 H :   -0.031497
  61 H :   -0.026120
  62 H :   -0.030944
  63 H :   -0.030575
  64 H :   -0.025445
  65 H :   -0.108237
  66 H :   -0.021901
  67 H :   -0.034456
  68 H :   -0.028025
  69 H :   -0.028345
  70 H :   -0.023469
  71 H :   -0.030690
  72 H :   -0.030469
  73 H :   -0.025643
  74 H :   -0.027669

  Mayer bond orders larger than 0.100000
B(  0-C ,  1-C ) :   1.0155 B(  0-C ,  2-C ) :   1.3938 B(  0-C ,  8-C ) :   1.2817
B(  1-C , 13-H ) :   0.9816 B(  1-C , 31-N ) :   1.9731 B(  2-C ,  3-C ) :   1.2828
B(  2-C ,  4-H ) :   0.9630 B(  3-C ,  5-C ) :   1.3726 B(  3-C , 11-C ) :   0.9313
B(  5-C ,  6-C ) :   1.2868 B(  5-C ,  7-H ) :   0.9565 B(  6-C ,  8-C ) :   1.3902
B(  6-C ,  9-C ) :   1.0026 B(  8-C , 10-H ) :   0.9519 B(  9-C , 12-H ) :   0.9788
B(  9-C , 36-N ) :   1.9678 B( 11-C , 33-O ) :   2.0854 B( 11-C , 49-H ) :   1.0202
B( 14-C , 15-C ) :   0.9997 B( 14-C , 16-C ) :   1.3170 B( 14-C , 22-C ) :   1.3558
B( 15-C , 29-N ) :   1.9452 B( 15-C , 46-H ) :   0.9827 B( 16-C , 17-C ) :   1.3484
B( 16-C , 18-H ) :   0.9737 B( 17-C , 19-C ) :   1.3366 B( 17-C , 25-C ) :   0.9981
B( 19-C , 20-C ) :   1.3573 B( 19-C , 21-H ) :   0.9636 B( 20-C , 22-C ) :   1.3077
B( 20-C , 23-C ) :   1.0040 B( 22-C , 24-H ) :   0.9511 B( 23-C , 42-N ) :   1.9925
B( 23-C , 47-H ) :   0.9902 B( 25-C , 26-H ) :   0.9864 B( 25-C , 38-N ) :   1.9289
B( 27-C , 28-C ) :   0.9338 B( 27-C , 29-N ) :   0.9848 B( 27-C , 30-H ) :   0.9837
B( 27-C , 50-H ) :   0.9845 B( 28-C , 31-N ) :   0.9204 B( 28-C , 32-C ) :   0.9508
B( 28-C , 51-C ) :   0.9537 B( 32-C , 72-H ) :   0.9825 B( 32-C , 73-H ) :   0.9758
B( 32-C , 74-H ) :   0.9808 B( 34-C , 35-C ) :   0.9243 B( 34-C , 36-N ) :   0.9320
B( 34-C , 37-C ) :   0.9555 B( 34-C , 52-C ) :   0.9580 B( 35-C , 38-N ) :   0.9790
B( 35-C , 39-H ) :   0.9851 B( 35-C , 53-H ) :   0.9821 B( 37-C , 56-H ) :   0.9843
B( 37-C , 57-H ) :   0.9824 B( 37-C , 58-H ) :   0.9830 B( 40-C , 41-C ) :   0.9717
B( 40-C , 42-N ) :   0.9644 B( 40-C , 43-H ) :   0.9782 B( 40-C , 54-H ) :   0.9759
B( 41-C , 44-N ) :   0.9686 B( 41-C , 45-C ) :   0.9502 B( 41-C , 55-C ) :   0.9325
B( 44-N , 48-H ) :   0.9919 B( 44-N , 65-H ) :   0.9981 B( 45-C , 69-H ) :   0.9861
B( 45-C , 70-H ) :   0.9848 B( 45-C , 71-H ) :   0.9804 B( 51-C , 59-H ) :   0.9787
B( 51-C , 60-H ) :   0.9822 B( 51-C , 61-H ) :   0.9825 B( 52-C , 66-H ) :   0.9781
B( 52-C , 67-H ) :   0.9732 B( 52-C , 68-H ) :   0.9843 B( 55-C , 62-H ) :   0.9861
B( 55-C , 63-H ) :   0.9789 B( 55-C , 64-H ) :   0.9846

MP2 TOTAL ENERGY:    -1566.528589415 Eh
FINAL SINGLE POINT ENERGY     -1566.528589414706

DIPOLE MOMENT
-------------
                                X             Y             Z
Electronic contribution:    -20.79671     -29.16852      -3.51028
Nuclear contribution   :     20.19846      29.72111       3.01291
                        -----------------------------------------
Total Dipole Moment    :     -0.59825       0.55259      -0.49737
                        -----------------------------------------
Magnitude (a.u.)       :      0.95428
Magnitude (Debye)      :      2.42558

Rotational constants in cm-1:     0.004042     0.001942     0.001403
Rotational constants in MHz :   121.190592    58.224521    42.055754

                             ****ORCA TERMINATED NORMALLY****
TOTAL RUN TIME: 0 days 0 hours 42 minutes 34 seconds 295 msec
