                         Program Version 4.2.1 -  RELEASE  -
|  1> ! RI-MP2 cc-pVTZ cc-pVTZ/C TIGHTSCF printbasis Grid6 NOFINALGRID SlowConv
|  2>
|  3> %base "_o_2_alde1_4_ami4_2_opt_MP2"
|  4> %maxcore 3000
|  5> %pal
|  6>    nprocs 32
|  7> end
|  8>
|  9> * xyzfile 0 1 _o_2_alde1_4_ami4_2_opt_B97-3c.xyz
| 10>
| 11>                          ****END OF INPUT****

CARTESIAN COORDINATES (ANGSTROEM)
---------------------------------
  C     -4.042428   -1.457813   -1.274182
  C     -4.734707   -1.047397   -0.056253
  C     -3.288736   -2.632842   -1.342550
  C     -2.543347   -2.930257   -2.475212
  H     -3.284330   -3.298885   -0.489759
  C     -2.512904   -2.015855   -3.534589
  C     -3.260107   -0.848530   -3.484413
  H     -1.888973   -2.234495   -4.391152
  C     -4.046249   -0.591640   -2.357535
  C     -3.132952    0.150420   -4.545480
  H     -4.614955    0.327325   -2.323119
  C     -1.786966   -4.179621   -2.527275
  H     -2.277262    0.011088   -5.221166
  H     -5.364318   -0.154785   -0.162795
  H     -1.822584   -4.789041   -1.612151
  C     -1.690596    1.573940    0.557306
  C     -2.289026    0.820217    1.657751
  C     -2.485818    2.136844   -0.438681
  C     -1.915292    2.719731   -1.566074
  H     -3.560366    2.060299   -0.345899
  C     -0.527905    2.799215   -1.671402
  C      0.283877    2.279116   -0.667671
  H     -0.077765    3.245991   -2.545768
  C     -0.306736    1.645934    0.428393
  C      1.743712    2.351123   -0.748542
  H      0.323956    1.198304    1.188581
  C     -2.805456    3.120074   -2.654853
  H      2.287454    1.873934    0.079542
  H     -3.875171    3.109641   -2.404705
  C     -4.053386   -0.079682    2.886704
  C     -5.141585   -0.929051    2.210270
  N     -3.529087    0.855654    1.925555
  N     -4.571537   -1.610131    1.071698
  C     -0.457175   -5.825828   -3.508411
  C     -0.964845   -6.738272   -4.630567
  N     -1.135112   -4.554593   -3.550302
  N     -0.787550   -6.246011   -5.986100
  C     -3.575828    2.183779   -5.593097
  C     -3.432316    3.514697   -4.838997
  N     -3.909067    1.149070   -4.648026
  N     -2.406087    3.377015   -3.833123
  C      4.316272    2.193855   -2.944216
  C      3.801774    2.895386   -1.696366
  N      3.903400    0.794880   -2.941119
  N      2.358483    2.920692   -1.702266
  H     -1.599200    0.166975    2.211087
  H     -1.188274   -5.318029   -6.046914
  H      0.200525   -6.134960   -6.181290
  H      2.897996    0.746995   -3.053455
  H      4.302782    0.315357   -3.737622
  H     -4.408524    3.776477   -4.412769
  H     -3.146179    4.287562   -5.552127
  H     -2.654854    1.971739   -6.149876
  H     -4.392866    2.293644   -6.308640
  H     -2.028676   -6.922090   -4.469685
  H     -0.465955   -7.704652   -4.539723
  H     -0.567855   -6.332844   -2.537655
  H      0.610031   -5.644633   -3.666070
  H     -5.971249   -0.268050    1.932376
  H     -5.507677   -1.660329    2.930772
  H     -3.281660   -0.734963    3.309352
  H     -4.524219    0.469823    3.704420
  H      5.406334    2.231985   -2.928866
  H      3.981265    2.759705   -3.823444
  H      4.160213    3.927553   -1.709178
  H      4.211281    2.398764   -0.806476

 Total Charge           Charge          ....    0
 Multiplicity           Mult            ....    1
 Number of Electrons    NEL             ....  244
 Basis Dimension        Dim             .... 1468

ORBITAL ENERGIES
----------------

  NO   OCC          E(Eh)            E(eV)
   0   2.0000     -15.559781      -423.4032
   1   2.0000     -15.557822      -423.3499
   2   2.0000     -15.556220      -423.3063
   3   2.0000     -15.555224      -423.2792
   4   2.0000     -15.553853      -423.2419
   5   2.0000     -15.551279      -423.1718
   6   2.0000     -15.532303      -422.6554
   7   2.0000     -15.529010      -422.5659
   8   2.0000     -11.285450      -307.0927
   9   2.0000     -11.285294      -307.0884
  10   2.0000     -11.282935      -307.0243
  11   2.0000     -11.281033      -306.9725
  12   2.0000     -11.280960      -306.9705
  13   2.0000     -11.277964      -306.8890
  14   2.0000     -11.255900      -306.2886
  15   2.0000     -11.254823      -306.2593
  16   2.0000     -11.253319      -306.2184
  17   2.0000     -11.252986      -306.2093
  18   2.0000     -11.251124      -306.1587
  19   2.0000     -11.250663      -306.1461
  20   2.0000     -11.250645      -306.1456
  21   2.0000     -11.250380      -306.1384
  22   2.0000     -11.250220      -306.1340
  23   2.0000     -11.249445      -306.1130
  24   2.0000     -11.249030      -306.1017
  25   2.0000     -11.248239      -306.0802
  26   2.0000     -11.248222      -306.0797
  27   2.0000     -11.247881      -306.0704
  28   2.0000     -11.247577      -306.0621
  29   2.0000     -11.246163      -306.0236
  30   2.0000     -11.245894      -306.0163
  31   2.0000     -11.244367      -305.9748
  32   2.0000     -11.243976      -305.9641
  33   2.0000     -11.243815      -305.9597
  34   2.0000      -1.255985       -34.1771
  35   2.0000      -1.252720       -34.0883
  36   2.0000      -1.244828       -33.8735
  37   2.0000      -1.241325       -33.7782
  38   2.0000      -1.228389       -33.4262
  39   2.0000      -1.223084       -33.2818
  40   2.0000      -1.177430       -32.0395
  41   2.0000      -1.174708       -31.9654
  42   2.0000      -1.166675       -31.7468
  43   2.0000      -1.162124       -31.6230
  44   2.0000      -1.072588       -29.1866
  45   2.0000      -1.065848       -29.0032
  46   2.0000      -1.057755       -28.7830
  47   2.0000      -1.051863       -28.6227
  48   2.0000      -1.009571       -27.4718
  49   2.0000      -0.994393       -27.0588
  50   2.0000      -0.982614       -26.7383
  51   2.0000      -0.980924       -26.6923
  52   2.0000      -0.912363       -24.8267
  53   2.0000      -0.907634       -24.6980
  54   2.0000      -0.889124       -24.1943
  55   2.0000      -0.883627       -24.0447
  56   2.0000      -0.872019       -23.7288
  57   2.0000      -0.847385       -23.0585
  58   2.0000      -0.828169       -22.5356
  59   2.0000      -0.822745       -22.3880
  60   2.0000      -0.807724       -21.9793
  61   2.0000      -0.791482       -21.5373
  62   2.0000      -0.766405       -20.8549
  63   2.0000      -0.751982       -20.4625
  64   2.0000      -0.750067       -20.4104
  65   2.0000      -0.739251       -20.1160
  66   2.0000      -0.709635       -19.3102
  67   2.0000      -0.702978       -19.1290
  68   2.0000      -0.691606       -18.8196
  69   2.0000      -0.683379       -18.5957
  70   2.0000      -0.672721       -18.3057
  71   2.0000      -0.670922       -18.2567
  72   2.0000      -0.665260       -18.1026
  73   2.0000      -0.662102       -18.0167
  74   2.0000      -0.659000       -17.9323
  75   2.0000      -0.654147       -17.8003
  76   2.0000      -0.643227       -17.5031
  77   2.0000      -0.640211       -17.4210
  78   2.0000      -0.635505       -17.2930
  79   2.0000      -0.627539       -17.0762
  80   2.0000      -0.615242       -16.7416
  81   2.0000      -0.613796       -16.7022
  82   2.0000      -0.610163       -16.6034
  83   2.0000      -0.600899       -16.3513
  84   2.0000      -0.595998       -16.2179
  85   2.0000      -0.593683       -16.1549
  86   2.0000      -0.591044       -16.0831
  87   2.0000      -0.585511       -15.9326
  88   2.0000      -0.565049       -15.3758
  89   2.0000      -0.549886       -14.9631
  90   2.0000      -0.548374       -14.9220
  91   2.0000      -0.546020       -14.8580
  92   2.0000      -0.544979       -14.8296
  93   2.0000      -0.537325       -14.6214
  94   2.0000      -0.536054       -14.5868
  95   2.0000      -0.533954       -14.5296
  96   2.0000      -0.530375       -14.4322
  97   2.0000      -0.528459       -14.3801
  98   2.0000      -0.517432       -14.0800
  99   2.0000      -0.511190       -13.9102
 100   2.0000      -0.503939       -13.7129
 101   2.0000      -0.498239       -13.5578
 102   2.0000      -0.492958       -13.4141
 103   2.0000      -0.490906       -13.3582
 104   2.0000      -0.460322       -12.5260
 105   2.0000      -0.458079       -12.4650
 106   2.0000      -0.454697       -12.3729
 107   2.0000      -0.449835       -12.2406
 108   2.0000      -0.416857       -11.3433
 109   2.0000      -0.414147       -11.2695
 110   2.0000      -0.412383       -11.2215
 111   2.0000      -0.410315       -11.1652
 112   2.0000      -0.409323       -11.1382
 113   2.0000      -0.406999       -11.0750
 114   2.0000      -0.402638       -10.9563
 115   2.0000      -0.398738       -10.8502
 116   2.0000      -0.388660       -10.5760
 117   2.0000      -0.383263       -10.4291
 118   2.0000      -0.329863        -8.9760
 119   2.0000      -0.326538        -8.8855
 120   2.0000      -0.324526        -8.8308
 121   2.0000      -0.320497        -8.7212
 122   0.0000       0.062670         1.7053
 123   0.0000       0.071512         1.9459
 124   0.0000       0.077207         2.1009
 125   0.0000       0.082076         2.2334
 126   0.0000       0.126531         3.4431

MULLIKEN ATOMIC CHARGES
-----------------------
   0 C :    0.170826
   1 C :   -0.092325
   2 C :   -0.212810
   3 C :    0.151064
   4 H :    0.157591
   5 C :   -0.207362
   6 C :    0.190833
   7 H :    0.158695
   8 C :   -0.221155
   9 C :   -0.079653
  10 H :    0.164025
  11 C :   -0.083103
  12 H :    0.090997
  13 H :    0.102156
  14 H :    0.091616
  15 C :    0.196616
  16 C :   -0.086120
  17 C :   -0.226129
  18 C :    0.171997
  19 H :    0.162873
  20 C :   -0.183066
  21 C :    0.158264
  22 H :    0.177355
  23 C :   -0.236128
  24 C :   -0.089192
  25 H :    0.140029
  26 C :   -0.093045
  27 H :    0.087185
  28 H :    0.099364
  29 C :   -0.036805
  30 C :   -0.041020
  31 N :   -0.260999
  32 N :   -0.260778
  33 C :   -0.042559
  34 C :   -0.050602
  35 N :   -0.257170
  36 N :   -0.365425
  37 C :   -0.037025
  38 C :   -0.039970
  39 N :   -0.262793
  40 N :   -0.251443
  41 C :   -0.046886
  42 C :   -0.033073
  43 N :   -0.387998
  44 N :   -0.254124
  45 H :    0.087056
  46 H :    0.146382
  47 H :    0.128278
  48 H :    0.150884
  49 H :    0.138911
  50 H :    0.065803
  51 H :    0.108539
  52 H :    0.062439
  53 H :    0.101919
  54 H :    0.085643
  55 H :    0.091946
  56 H :    0.055877
  57 H :    0.086682
  58 H :    0.067483
  59 H :    0.108058
  60 H :    0.060553
  61 H :    0.102024
  62 H :    0.086098
  63 H :    0.074897
  64 H :    0.100291
  65 H :    0.057506
Sum of atomic charges:   -0.0000000

LOEWDIN ATOMIC CHARGES
----------------------
   0 C :   -0.075082
   1 C :   -0.071351
   2 C :    0.092489
   3 C :   -0.076509
   4 H :   -0.017975
   5 C :    0.093079
   6 C :   -0.074023
   7 H :   -0.019442
   8 C :    0.093765
   9 C :   -0.067476
  10 H :   -0.021766
  11 C :   -0.074559
  12 H :   -0.033922
  13 H :   -0.034628
  14 H :   -0.034305
  15 C :   -0.077368
  16 C :   -0.069186
  17 C :    0.091831
  18 C :   -0.072802
  19 H :   -0.022218
  20 C :    0.114437
  21 C :   -0.076484
  22 H :   -0.014886
  23 C :    0.071715
  24 C :   -0.075436
  25 H :   -0.021300
  26 C :   -0.072467
  27 H :   -0.035977
  28 H :   -0.035692
  29 C :   -0.036003
  30 C :   -0.038424
  31 N :    0.216119
  32 N :    0.203298
  33 C :   -0.047225
  34 C :   -0.026679
  35 N :    0.212593
  36 N :    0.325275
  37 C :   -0.035302
  38 C :   -0.038277
  39 N :    0.216319
  40 N :    0.209125
  41 C :   -0.021200
  42 C :   -0.040669
  43 N :    0.320592
  44 N :    0.218196
  45 H :   -0.035461
  46 H :   -0.109856
  47 H :   -0.111257
  48 H :   -0.110702
  49 H :   -0.110750
  50 H :   -0.037558
  51 H :   -0.029492
  52 H :   -0.038690
  53 H :   -0.028385
  54 H :   -0.031806
  55 H :   -0.029724
  56 H :   -0.038395
  57 H :   -0.033947
  58 H :   -0.037144
  59 H :   -0.029895
  60 H :   -0.039557
  61 H :   -0.028128
  62 H :   -0.031037
  63 H :   -0.042372
  64 H :   -0.027614
  65 H :   -0.038434

  Mayer bond orders larger than 0.100000
B(  0-C ,  1-C ) :   0.9969 B(  0-C ,  2-C ) :   1.3023 B(  0-C ,  8-C ) :   1.3758
B(  1-C , 13-H ) :   0.9909 B(  1-C , 32-N ) :   1.9666 B(  2-C ,  3-C ) :   1.3905
B(  2-C ,  4-H ) :   0.9628 B(  3-C ,  5-C ) :   1.3002 B(  3-C , 11-C ) :   0.9960
B(  5-C ,  6-C ) :   1.3954 B(  5-C ,  7-H ) :   0.9653 B(  6-C ,  8-C ) :   1.2912
B(  6-C ,  9-C ) :   0.9793 B(  8-C , 10-H ) :   0.9611 B(  9-C , 12-H ) :   0.9906
B(  9-C , 39-N ) :   1.9841 B( 11-C , 14-H ) :   0.9896 B( 11-C , 35-N ) :   2.0071
B( 15-C , 16-C ) :   0.9748 B( 15-C , 17-C ) :   1.3289 B( 15-C , 23-C ) :   1.3775
B( 16-C , 31-N ) :   1.9840 B( 16-C , 45-H ) :   0.9923 B( 17-C , 18-C ) :   1.3389
B( 17-C , 19-H ) :   0.9620 B( 18-C , 20-C ) :   1.3126 B( 18-C , 26-C ) :   0.9961
B( 20-C , 21-C ) :   1.3411 B( 20-C , 22-H ) :   0.9507 B( 21-C , 23-C ) :   1.3483
B( 21-C , 24-C ) :   0.9837 B( 23-C , 25-H ) :   0.9773 B( 24-C , 27-H ) :   0.9958
B( 24-C , 44-N ) :   1.9936 B( 26-C , 28-H ) :   0.9921 B( 26-C , 40-N ) :   1.9708
B( 29-C , 30-C ) :   0.9309 B( 29-C , 31-N ) :   0.9705 B( 29-C , 60-H ) :   0.9741
B( 29-C , 61-H ) :   0.9804 B( 30-C , 32-N ) :   0.9692 B( 30-C , 58-H ) :   0.9772
B( 30-C , 59-H ) :   0.9880 B( 33-C , 34-C ) :   0.9565 B( 33-C , 35-N ) :   0.9542
B( 33-C , 56-H ) :   0.9760 B( 33-C , 57-H ) :   0.9724 B( 34-C , 36-N ) :   1.0036
B( 34-C , 54-H ) :   0.9811 B( 34-C , 55-H ) :   0.9878 B( 36-N , 46-H ) :   0.9941
B( 36-N , 47-H ) :   1.0007 B( 37-C , 38-C ) :   0.9315 B( 37-C , 39-N ) :   0.9688
B( 37-C , 52-H ) :   0.9742 B( 37-C , 53-H ) :   0.9805 B( 38-C , 40-N ) :   0.9684
B( 38-C , 50-H ) :   0.9771 B( 38-C , 51-H ) :   0.9875 B( 41-C , 42-C ) :   0.9464
B( 41-C , 43-N ) :   0.9802 B( 41-C , 62-H ) :   0.9829 B( 41-C , 63-H ) :   0.9838
B( 42-C , 44-N ) :   0.9631 B( 42-C , 64-H ) :   0.9834 B( 42-C , 65-H ) :   0.9741
B( 43-N , 48-H ) :   0.9819 B( 43-N , 49-H ) :   0.9921

MP2 TOTAL ENERGY:    -1444.992965831 Eh
FINAL SINGLE POINT ENERGY     -1444.992965831329

DIPOLE MOMENT
-------------
                                X             Y             Z
Electronic contribution:    -14.23721      10.06674       8.40860
Nuclear contribution   :     14.63830     -10.06482      -7.60965
                        -----------------------------------------
Total Dipole Moment    :      0.40108       0.00191       0.79895
                        -----------------------------------------
Magnitude (a.u.)       :      0.89397
Magnitude (Debye)      :      2.27230

Rotational constants in cm-1:     0.003313     0.002732     0.002218
Rotational constants in MHz :    99.328975    81.904490    66.498897

                             ****ORCA TERMINATED NORMALLY****
TOTAL RUN TIME: 0 days 0 hours 29 minutes 32 seconds 77 msec
