                         Program Version 4.2.1 -  RELEASE  -
|  1> ! RI-MP2 cc-pVTZ cc-pVTZ/C TIGHTSCF printbasis Grid6 NOFINALGRID SlowConv
|  2>
|  3> %base "_o_2_alde1_4_ami1_1_opt_MP2"
|  4> %maxcore 3000
|  5> %pal
|  6>    nprocs 32
|  7> end
|  8>
|  9> * xyzfile 0 1 _o_2_alde1_4_ami1_1_opt_B97-3c.xyz
| 10>
| 11>                          ****END OF INPUT****

CARTESIAN COORDINATES (ANGSTROEM)
---------------------------------
  C     -4.082904   -2.284588   -1.552011
  C     -4.370323   -2.110670   -0.131462
  C     -3.392894   -3.403839   -2.031537
  C     -2.993235   -3.470982   -3.352679
  H     -3.134020   -4.203905   -1.355371
  C     -3.281249   -2.406538   -4.205316
  C     -3.972130   -1.288030   -3.750569
  H     -2.916740   -2.437683   -5.223265
  C     -4.393601   -1.248520   -2.420603
  C     -4.113373   -0.123068   -4.620496
  H     -4.909300   -0.366689   -2.065647
  C     -2.212833   -4.661747   -3.874778
  H     -3.487473   -0.139142   -5.524367
  H     -5.008951   -1.250351    0.112362
  C     -1.201081    0.480097    0.053838
  C     -1.459807   -0.502348    1.106874
  C     -2.260157    1.082643   -0.621868
  C     -2.029590    1.921548   -1.703836
  H     -3.268729    0.850427   -0.311077
  C     -0.715319    2.222091   -2.068982
  C      0.350929    1.676276   -1.373380
  H     -0.529231    2.902293   -2.886807
  C      0.102805    0.781897   -0.335228
  C      1.763101    2.004917   -1.780261
  H      0.935678    0.322561    0.185706
  C     -3.180063    2.420641   -2.451138
  H     -4.147124    2.302665   -1.946000
  C     -2.799402   -1.688204    2.616863
  C     -4.083055   -2.419058    2.149649
  N     -2.579899   -0.595363    1.695133
  H     -1.971545   -2.406211    2.566332
  C     -2.876000   -1.167660    4.064379
  N     -3.862175   -2.833635    0.780734
  H     -4.896688   -1.683883    2.198565
  C     -4.483765   -3.620795    3.016714
  H     -3.060308   -2.040548    4.694249
  C     -3.999176   -0.165859    4.291611
  C     -1.535711   -0.583266    4.491027
  H     -4.680348   -3.234877    4.019797
  C     -3.400903   -4.686184    3.113991
  C     -5.786464   -4.217538    2.498249
  H     -1.549370   -0.322912    5.549127
  H     -1.302906    0.320847    3.930625
  H     -0.722156   -1.292359    4.333535
  H     -4.981236   -0.599020    4.111587
  H     -3.888669    0.692796    3.632591
  H     -3.985587    0.192687    5.320707
  H     -5.647138   -4.647095    1.507530
  H     -6.569936   -3.462039    2.424965
  H     -6.144385   -5.006284    3.159886
  H     -3.119248   -5.035619    2.123007
  H     -3.758048   -5.541855    3.686807
  H     -2.502492   -4.318497    3.607253
  C      0.017009   -4.011963   -3.731753
  C     -0.299599   -4.986313   -2.547490
  N     -1.081968   -4.210602   -4.694150
  H      0.950021   -4.288176   -4.225876
  C      0.149241   -2.542949   -3.302607
  N     -1.669112   -5.473229   -2.787785
  H     -0.304252   -4.414141   -1.617912
  C      0.668127   -6.162966   -2.359715
  H     -0.747219   -2.275951   -2.739776
  C      0.234978   -1.622557   -4.509656
  C      1.353160   -2.329417   -2.397004
  H      0.187315   -6.817948   -1.624823
  C      1.998419   -5.725153   -1.767033
  C      0.896589   -6.983066   -3.624847
  H      2.270516   -2.660292   -2.888002
  H      1.267963   -2.868446   -1.455734
  H      1.480972   -1.273803   -2.171824
  H      1.178254   -1.763282   -5.041128
  H      0.181274   -0.582518   -4.195178
  H     -0.572297   -1.811612   -5.209150
  H      1.487648   -7.869677   -3.399993
  H      1.442385   -6.416567   -4.379271
  H     -0.031128   -7.329457   -4.081106
  H      1.860898   -5.180471   -0.834420
  H      2.546834   -5.076738   -2.448866
  H      2.629232   -6.588162   -1.556947
  C     -4.751596    2.049814   -5.183304
  C     -4.354592    3.239830   -4.273711
  N     -4.837011    0.880286   -4.336400
  H     -3.958600    1.924857   -5.931417
  C     -6.073174    2.269451   -5.942651
  N     -3.104127    2.904577   -3.622308
  H     -5.152807    3.339469   -3.528315
  C     -4.221069    4.583183   -5.004821
  H     -5.934236    3.168205   -6.547281
  C     -7.271671    2.486449   -5.030047
  C     -6.327838    1.115575   -6.904011
  H     -5.202710    4.816111   -5.423933
  C     -3.206645    4.551317   -6.139377
  C     -3.882381    5.683322   -4.006285
  H     -6.516261    0.189278   -6.363753
  H     -5.475849    0.948742   -7.564417
  H     -7.197493    1.318785   -7.528595
  H     -8.180844    2.604317   -5.619170
  H     -7.166288    3.377849   -4.414653
  H     -7.407848    1.636737   -4.364503
  H     -4.604310    5.716844   -3.189445
  H     -3.879315    6.660007   -4.489922
  H     -2.897769    5.520192   -3.571262
  H     -3.097336    5.540965   -6.582721
  H     -3.499233    3.869339   -6.936282
  H     -2.232992    4.235878   -5.769780
  C      3.061649    3.434179   -3.155852
  C      3.312170    1.943421   -3.496771
  N      1.909640    3.387586   -2.252167
  H      2.763770    3.962903   -4.066496
  C      4.304733    4.161371   -2.621784
  N      2.198132    1.195795   -2.907921
  H      4.220225    1.625525   -2.978811
  C      3.523391    1.655641   -4.983087
  H      5.101347    3.955700   -3.346618
  C      4.774119    3.669207   -1.258920
  C      4.087191    5.669324   -2.598593
  H      4.273866    2.380034   -5.316599
  C      2.271888    1.863903   -5.829358
  C      4.093350    0.258898   -5.196953
  H      4.993946    6.195627   -2.301687
  H      3.306578    5.948343   -1.889098
  H      3.787121    6.042046   -3.577199
  H      4.032161    3.869894   -0.484860
  H      5.689609    4.180539   -0.962987
  H      4.978621    2.600369   -1.247453
  H      5.040859    0.131329   -4.673584
  H      4.267276    0.062749   -6.254694
  H      3.407422   -0.498854   -4.822977
  H      2.528277    1.869477   -6.887692
  H      1.767898    2.803378   -5.609099
  H      1.551422    1.058987   -5.687711
  H     -0.631800   -1.192610    1.326804
  H      1.976266    4.048234   -1.489778
  H      2.430138    1.783696   -0.935585
  H      1.430533    1.181546   -3.569612
  H     -1.634109   -6.434608   -3.095615
  H     -0.828983   -4.967276   -5.316425
  H     -2.880425   -5.270271   -4.488231

 Total Charge           Charge          ....    0
 Multiplicity           Mult            ....    1
 Number of Electrons    NEL             ....  436
 Basis Dimension        Dim             .... 2860

ORBITAL ENERGIES
----------------

  NO   OCC          E(Eh)            E(eV)
   0   2.0000     -15.543694      -422.9654
   1   2.0000     -15.540516      -422.8789
   2   2.0000     -15.539699      -422.8567
   3   2.0000     -15.538335      -422.8196
   4   2.0000     -15.538096      -422.8131
   5   2.0000     -15.536928      -422.7813
   6   2.0000     -15.536741      -422.7762
   7   2.0000     -15.535665      -422.7469
   8   2.0000     -11.282990      -307.0258
   9   2.0000     -11.282304      -307.0071
  10   2.0000     -11.273265      -306.7611
  11   2.0000     -11.270433      -306.6841
  12   2.0000     -11.266589      -306.5795
  13   2.0000     -11.266077      -306.5656
  14   2.0000     -11.245465      -306.0047
  15   2.0000     -11.245463      -306.0046
  16   2.0000     -11.244691      -305.9836
  17   2.0000     -11.244650      -305.9825
  18   2.0000     -11.244556      -305.9799
  19   2.0000     -11.243358      -305.9473
  20   2.0000     -11.240737      -305.8760
  21   2.0000     -11.240481      -305.8690
  22   2.0000     -11.238974      -305.8280
  23   2.0000     -11.236885      -305.7712
  24   2.0000     -11.234205      -305.6982
  25   2.0000     -11.233274      -305.6729
  26   2.0000     -11.232617      -305.6551
  27   2.0000     -11.232508      -305.6521
  28   2.0000     -11.230791      -305.6053
  29   2.0000     -11.230182      -305.5888
  30   2.0000     -11.229810      -305.5787
  31   2.0000     -11.229503      -305.5703
  32   2.0000     -11.228403      -305.5404
  33   2.0000     -11.228335      -305.5385
  34   2.0000     -11.227067      -305.5040
  35   2.0000     -11.226955      -305.5010
  36   2.0000     -11.221287      -305.3467
  37   2.0000     -11.219448      -305.2967
  38   2.0000     -11.219156      -305.2888
  39   2.0000     -11.217886      -305.2542
  40   2.0000     -11.215000      -305.1757
  41   2.0000     -11.214888      -305.1726
  42   2.0000     -11.214652      -305.1662
  43   2.0000     -11.213779      -305.1424
  44   2.0000     -11.212098      -305.0967
  45   2.0000     -11.210053      -305.0411
  46   2.0000     -11.208414      -304.9965
  47   2.0000     -11.206817      -304.9530
  48   2.0000     -11.203585      -304.8650
  49   2.0000     -11.201505      -304.8085
  50   2.0000     -11.200055      -304.7690
  51   2.0000     -11.198911      -304.7379
  52   2.0000     -11.197666      -304.7040
  53   2.0000     -11.197569      -304.7014
  54   2.0000     -11.197238      -304.6923
  55   2.0000     -11.197203      -304.6914
  56   2.0000     -11.193619      -304.5938
  57   2.0000     -11.192234      -304.5562
  58   2.0000      -1.274948       -34.6931
  59   2.0000      -1.273144       -34.6440
  60   2.0000      -1.247531       -33.9470
  61   2.0000      -1.245597       -33.8944
  62   2.0000      -1.217126       -33.1197
  63   2.0000      -1.212538       -32.9948
  64   2.0000      -1.161317       -31.6010
  65   2.0000      -1.152327       -31.3564
  66   2.0000      -1.146770       -31.2052
  67   2.0000      -1.146014       -31.1846
  68   2.0000      -1.098428       -29.8897
  69   2.0000      -1.096069       -29.8255
  70   2.0000      -1.092915       -29.7397
  71   2.0000      -1.084697       -29.5161
  72   2.0000      -1.065765       -29.0009
  73   2.0000      -1.061731       -28.8912
  74   2.0000      -1.060874       -28.8679
  75   2.0000      -1.058300       -28.7978
  76   2.0000      -1.037727       -28.2380
  77   2.0000      -1.035785       -28.1852
  78   2.0000      -1.032012       -28.0825
  79   2.0000      -1.028170       -27.9779
  80   2.0000      -0.971604       -26.4387
  81   2.0000      -0.963318       -26.2132
  82   2.0000      -0.960303       -26.1312
  83   2.0000      -0.958881       -26.0925
  84   2.0000      -0.938956       -25.5503
  85   2.0000      -0.937674       -25.5154
  86   2.0000      -0.932091       -25.3635
  87   2.0000      -0.925559       -25.1858
  88   2.0000      -0.924266       -25.1506
  89   2.0000      -0.920430       -25.0462
  90   2.0000      -0.920164       -25.0389
  91   2.0000      -0.916840       -24.9485
  92   2.0000      -0.895909       -24.3789
  93   2.0000      -0.892295       -24.2806
  94   2.0000      -0.875423       -23.8215
  95   2.0000      -0.870708       -23.6932
  96   2.0000      -0.860075       -23.4038
  97   2.0000      -0.853113       -23.2144
  98   2.0000      -0.850172       -23.1344
  99   2.0000      -0.841730       -22.9046
 100   2.0000      -0.833136       -22.6708
 101   2.0000      -0.821819       -22.3628
 102   2.0000      -0.786292       -21.3961
 103   2.0000      -0.783622       -21.3235
 104   2.0000      -0.777623       -21.1602
 105   2.0000      -0.775936       -21.1143
 106   2.0000      -0.768700       -20.9174
 107   2.0000      -0.757438       -20.6109
 108   2.0000      -0.754662       -20.5354
 109   2.0000      -0.751968       -20.4621
 110   2.0000      -0.748463       -20.3667
 111   2.0000      -0.737510       -20.0687
 112   2.0000      -0.726275       -19.7629
 113   2.0000      -0.722217       -19.6525
 114   2.0000      -0.702129       -19.1059
 115   2.0000      -0.696638       -18.9565
 116   2.0000      -0.691754       -18.8236
 117   2.0000      -0.685720       -18.6594
 118   2.0000      -0.671810       -18.2809
 119   2.0000      -0.666397       -18.1336
 120   2.0000      -0.662853       -18.0371
 121   2.0000      -0.656830       -17.8733
 122   2.0000      -0.648795       -17.6546
 123   2.0000      -0.645380       -17.5617
 124   2.0000      -0.642604       -17.4861
 125   2.0000      -0.638742       -17.3810
 126   2.0000      -0.633253       -17.2317
 127   2.0000      -0.629748       -17.1363
 128   2.0000      -0.628862       -17.1122
 129   2.0000      -0.625559       -17.0223
 130   2.0000      -0.620706       -16.8903
 131   2.0000      -0.611705       -16.6453
 132   2.0000      -0.611181       -16.6311
 133   2.0000      -0.609204       -16.5773
 134   2.0000      -0.608362       -16.5544
 135   2.0000      -0.604337       -16.4448
 136   2.0000      -0.601539       -16.3687
 137   2.0000      -0.599287       -16.3074
 138   2.0000      -0.591677       -16.1004
 139   2.0000      -0.588661       -16.0183
 140   2.0000      -0.587525       -15.9874
 141   2.0000      -0.584080       -15.8936
 142   2.0000      -0.581287       -15.8176
 143   2.0000      -0.579164       -15.7598
 144   2.0000      -0.575604       -15.6630
 145   2.0000      -0.573210       -15.5978
 146   2.0000      -0.571416       -15.5490
 147   2.0000      -0.568638       -15.4734
 148   2.0000      -0.568526       -15.4704
 149   2.0000      -0.565964       -15.4007
 150   2.0000      -0.558654       -15.2017
 151   2.0000      -0.557179       -15.1616
 152   2.0000      -0.555246       -15.1090
 153   2.0000      -0.551034       -14.9944
 154   2.0000      -0.549470       -14.9518
 155   2.0000      -0.542866       -14.7721
 156   2.0000      -0.540381       -14.7045
 157   2.0000      -0.537612       -14.6292
 158   2.0000      -0.536368       -14.5953
 159   2.0000      -0.536085       -14.5876
 160   2.0000      -0.533697       -14.5226
 161   2.0000      -0.530144       -14.4259
 162   2.0000      -0.529204       -14.4004
 163   2.0000      -0.526570       -14.3287
 164   2.0000      -0.524512       -14.2727
 165   2.0000      -0.523368       -14.2416
 166   2.0000      -0.522598       -14.2206
 167   2.0000      -0.521069       -14.1790
 168   2.0000      -0.519402       -14.1336
 169   2.0000      -0.516269       -14.0484
 170   2.0000      -0.513410       -13.9706
 171   2.0000      -0.512092       -13.9347
 172   2.0000      -0.508329       -13.8323
 173   2.0000      -0.505661       -13.7597
 174   2.0000      -0.503416       -13.6986
 175   2.0000      -0.501714       -13.6523
 176   2.0000      -0.495175       -13.4744
 177   2.0000      -0.491840       -13.3836
 178   2.0000      -0.490606       -13.3501
 179   2.0000      -0.488281       -13.2868
 180   2.0000      -0.483814       -13.1652
 181   2.0000      -0.483418       -13.1545
 182   2.0000      -0.480441       -13.0735
 183   2.0000      -0.476475       -12.9655
 184   2.0000      -0.473690       -12.8897
 185   2.0000      -0.472575       -12.8594
 186   2.0000      -0.471699       -12.8356
 187   2.0000      -0.471377       -12.8268
 188   2.0000      -0.470784       -12.8107
 189   2.0000      -0.469790       -12.7836
 190   2.0000      -0.466669       -12.6987
 191   2.0000      -0.464166       -12.6306
 192   2.0000      -0.462799       -12.5934
 193   2.0000      -0.459948       -12.5158
 194   2.0000      -0.457931       -12.4609
 195   2.0000      -0.451811       -12.2944
 196   2.0000      -0.448607       -12.2072
 197   2.0000      -0.446580       -12.1521
 198   2.0000      -0.446405       -12.1473
 199   2.0000      -0.444385       -12.0923
 200   2.0000      -0.443373       -12.0648
 201   2.0000      -0.440550       -11.9880
 202   2.0000      -0.431985       -11.7549
 203   2.0000      -0.420495       -11.4423
 204   2.0000      -0.404783       -11.0147
 205   2.0000      -0.399052       -10.8588
 206   2.0000      -0.396309       -10.7841
 207   2.0000      -0.393991       -10.7210
 208   2.0000      -0.390417       -10.6238
 209   2.0000      -0.386838       -10.5264
 210   2.0000      -0.385343       -10.4857
 211   2.0000      -0.381572       -10.3831
 212   2.0000      -0.371750       -10.1158
 213   2.0000      -0.365013        -9.9325
 214   2.0000      -0.325243        -8.8503
 215   2.0000      -0.314476        -8.5573
 216   2.0000      -0.312962        -8.5161
 217   2.0000      -0.307795        -8.3755
 218   0.0000       0.081387         2.2147
 219   0.0000       0.085853         2.3362
 220   0.0000       0.104495         2.8434
 221   0.0000       0.106134         2.8880
 222   0.0000       0.123774         3.3681

MULLIKEN ATOMIC CHARGES
-----------------------
   0 C :    0.186791
   1 C :   -0.102733
   2 C :   -0.217430
   3 C :    0.012634
   4 H :    0.193854
   5 C :   -0.238193
   6 C :    0.219682
   7 H :    0.159670
   8 C :   -0.246510
   9 C :   -0.105308
  10 H :    0.163571
  11 C :    0.077203
  12 H :    0.087653
  13 H :    0.094105
  14 C :    0.238738
  15 C :   -0.123206
  16 C :   -0.235553
  17 C :    0.196860
  18 H :    0.161624
  19 C :   -0.215529
  20 C :    0.096075
  21 H :    0.182877
  22 C :   -0.295357
  23 C :    0.064394
  24 H :    0.147610
  25 C :   -0.115840
  26 H :    0.097593
  27 C :    0.050258
  28 C :    0.052283
  29 N :   -0.289926
  30 H :    0.110354
  31 C :   -0.068045
  32 N :   -0.293588
  33 H :    0.105174
  34 C :   -0.067907
  35 H :    0.114832
  36 C :   -0.316006
  37 C :   -0.331839
  38 H :    0.111359
  39 C :   -0.320421
  40 C :   -0.326990
  41 H :    0.108273
  42 H :    0.100599
  43 H :    0.095098
  44 H :    0.096187
  45 H :    0.110544
  46 H :    0.102813
  47 H :    0.106193
  48 H :    0.092837
  49 H :    0.102861
  50 H :    0.115931
  51 H :    0.102392
  52 H :    0.091064
  53 C :   -0.039745
  54 C :   -0.063853
  55 N :   -0.262107
  56 H :    0.120691
  57 C :   -0.032416
  58 N :   -0.258846
  59 H :    0.132163
  60 C :   -0.050186
  61 H :    0.139860
  62 C :   -0.375288
  63 C :   -0.386705
  64 H :    0.119522
  65 C :   -0.341393
  66 C :   -0.337020
  67 H :    0.091283
  68 H :    0.105051
  69 H :    0.140276
  70 H :    0.096970
  71 H :    0.112750
  72 H :    0.124770
  73 H :    0.119070
  74 H :    0.093891
  75 H :    0.088342
  76 H :    0.108273
  77 H :    0.096200
  78 H :    0.115620
  79 C :    0.052184
  80 C :    0.049768
  81 N :   -0.297466
  82 H :    0.109626
  83 C :   -0.068384
  84 N :   -0.291395
  85 H :    0.106763
  86 C :   -0.066195
  87 H :    0.114470
  88 C :   -0.317155
  89 C :   -0.331269
  90 H :    0.112224
  91 C :   -0.322981
  92 C :   -0.326571
  93 H :    0.101926
  94 H :    0.095011
  95 H :    0.107468
  96 H :    0.103000
  97 H :    0.095480
  98 H :    0.110745
  99 H :    0.092697
 100 H :    0.101891
 101 H :    0.106527
 102 H :    0.102422
 103 H :    0.092717
 104 H :    0.114660
 105 C :   -0.028618
 106 C :   -0.026541
 107 N :   -0.283991
 108 H :    0.114633
 109 C :   -0.057335
 110 N :   -0.275761
 111 H :    0.113796
 112 C :   -0.052897
 113 H :    0.101863
 114 C :   -0.341532
 115 C :   -0.304146
 116 H :    0.103845
 117 C :   -0.345340
 118 C :   -0.312478
 119 H :    0.102853
 120 H :    0.087482
 121 H :    0.101336
 122 H :    0.086749
 123 H :    0.118879
 124 H :    0.108586
 125 H :    0.096994
 126 H :    0.098677
 127 H :    0.108820
 128 H :    0.115821
 129 H :    0.115758
 130 H :    0.095858
 131 H :    0.090166
 132 H :    0.106462
 133 H :    0.093301
 134 H :    0.119369
 135 H :    0.089705
 136 H :    0.094898
 137 H :    0.117845
Sum of atomic charges:   -0.0000000

LOEWDIN ATOMIC CHARGES
----------------------
   0 C :   -0.075839
   1 C :   -0.068572
   2 C :    0.082752
   3 C :   -0.047546
   4 H :   -0.024501
   5 C :    0.071971
   6 C :   -0.077427
   7 H :   -0.024231
   8 C :    0.079483
   9 C :   -0.065002
  10 H :   -0.025293
  11 C :   -0.146387
  12 H :   -0.034826
  13 H :   -0.035895
  14 C :   -0.073670
  15 C :   -0.065223
  16 C :    0.082381
  17 C :   -0.071939
  18 H :   -0.024273
  19 C :    0.083763
  20 C :   -0.051070
  21 H :   -0.022358
  22 C :    0.065787
  23 C :   -0.157563
  24 H :   -0.022167
  25 C :   -0.068059
  26 H :   -0.035314
  27 C :   -0.097065
  28 C :   -0.101973
  29 N :    0.239162
  30 H :   -0.031682
  31 C :   -0.023759
  32 N :    0.229986
  33 H :   -0.031115
  34 C :   -0.026354
  35 H :   -0.023887
  36 C :    0.116883
  37 C :    0.114329
  38 H :   -0.025764
  39 C :    0.115933
  40 C :    0.115314
  41 H :   -0.029280
  42 H :   -0.030943
  43 H :   -0.031862
  44 H :   -0.034715
  45 H :   -0.028420
  46 H :   -0.029520
  47 H :   -0.028905
  48 H :   -0.030824
  49 H :   -0.031247
  50 H :   -0.027663
  51 H :   -0.030027
  52 H :   -0.036518
  53 C :   -0.055129
  54 C :   -0.056082
  55 N :    0.321832
  56 H :   -0.032408
  57 C :   -0.024686
  58 N :    0.324271
  59 H :   -0.026921
  60 C :   -0.028402
  61 H :   -0.022592
  62 C :    0.113880
  63 C :    0.114844
  64 H :   -0.017596
  65 C :    0.118281
  66 C :    0.112484
  67 H :   -0.033613
  68 H :   -0.038482
  69 H :   -0.031247
  70 H :   -0.033163
  71 H :   -0.032924
  72 H :   -0.037405
  73 H :   -0.024830
  74 H :   -0.032182
  75 H :   -0.038762
  76 H :   -0.028045
  77 H :   -0.030403
  78 H :   -0.027262
  79 C :   -0.097420
  80 C :   -0.099867
  81 N :    0.233608
  82 H :   -0.031646
  83 C :   -0.024061
  84 N :    0.229228
  85 H :   -0.031026
  86 C :   -0.026263
  87 H :   -0.024271
  88 C :    0.116717
  89 C :    0.114640
  90 H :   -0.025729
  91 C :    0.115641
  92 C :    0.115246
  93 H :   -0.030348
  94 H :   -0.031534
  95 H :   -0.029662
  96 H :   -0.029513
  97 H :   -0.035066
  98 H :   -0.028500
  99 H :   -0.030926
 100 H :   -0.031454
 101 H :   -0.029243
 102 H :   -0.030205
 103 H :   -0.036174
 104 H :   -0.028548
 105 C :   -0.071306
 106 C :   -0.068124
 107 N :    0.329246
 108 H :   -0.030261
 109 C :   -0.029336
 110 N :    0.329738
 111 H :   -0.024760
 112 C :   -0.025502
 113 H :   -0.019458
 114 C :    0.113371
 115 C :    0.115840
 116 H :   -0.019913
 117 C :    0.115906
 118 C :    0.118894
 119 H :   -0.028541
 120 H :   -0.031420
 121 H :   -0.028152
 122 H :   -0.033701
 123 H :   -0.026163
 124 H :   -0.033915
 125 H :   -0.030227
 126 H :   -0.029621
 127 H :   -0.028021
 128 H :   -0.026365
 129 H :   -0.030001
 130 H :   -0.029941
 131 H :   -0.036153
 132 H :   -0.121818
 133 H :   -0.032938
 134 H :   -0.115534
 135 H :   -0.122961
 136 H :   -0.120592
 137 H :   -0.024412

  Mayer bond orders larger than 0.100000
B(  0-C ,  1-C ) :   1.0085 B(  0-C ,  2-C ) :   1.2786 B(  0-C ,  8-C ) :   1.3741
B(  1-C , 13-H ) :   0.9932 B(  1-C , 32-N ) :   1.9409 B(  2-C ,  3-C ) :   1.4007
B(  2-C ,  4-H ) :   0.9401 B(  3-C ,  5-C ) :   1.3098 B(  3-C , 11-C ) :   1.0381
B(  5-C ,  6-C ) :   1.3862 B(  5-C ,  7-H ) :   0.9674 B(  6-C ,  8-C ) :   1.3019
B(  6-C ,  9-C ) :   0.9955 B(  8-C , 10-H ) :   0.9629 B(  9-C , 12-H ) :   0.9889
B(  9-C , 81-N ) :   1.9494 B( 11-C , 55-N ) :   1.0094 B( 11-C , 58-N ) :   1.0210
B( 11-C ,137-H ) :   0.9893 B( 14-C , 15-C ) :   0.9809 B( 14-C , 16-C ) :   1.3245
B( 14-C , 22-C ) :   1.3671 B( 15-C , 29-N ) :   1.9597 B( 15-C ,131-H ) :   0.9864
B( 16-C , 17-C ) :   1.3579 B( 16-C , 18-H ) :   0.9622 B( 17-C , 19-C ) :   1.3110
B( 17-C , 25-C ) :   1.0012 B( 19-C , 20-C ) :   1.3640 B( 19-C , 21-H ) :   0.9430
B( 20-C , 22-C ) :   1.3667 B( 20-C , 23-C ) :   1.0158 B( 22-C , 24-H ) :   0.9727
B( 23-C ,107-N ) :   1.0010 B( 23-C ,110-N ) :   1.0185 B( 23-C ,133-H ) :   0.9833
B( 25-C , 26-H ) :   0.9933 B( 25-C , 84-N ) :   1.9500 B( 27-C , 28-C ) :   0.9749
B( 27-C , 29-N ) :   0.9177 B( 27-C , 30-H ) :   0.9775 B( 27-C , 31-C ) :   0.9442
B( 28-C , 32-N ) :   0.9224 B( 28-C , 33-H ) :   0.9801 B( 28-C , 34-C ) :   0.9492
B( 31-C , 35-H ) :   0.9796 B( 31-C , 36-C ) :   0.9484 B( 31-C , 37-C ) :   0.9467
B( 34-C , 38-H ) :   0.9815 B( 34-C , 39-C ) :   0.9481 B( 34-C , 40-C ) :   0.9500
B( 36-C , 44-H ) :   0.9840 B( 36-C , 45-H ) :   0.9739 B( 36-C , 46-H ) :   0.9877
B( 37-C , 41-H ) :   0.9882 B( 37-C , 42-H ) :   0.9805 B( 37-C , 43-H ) :   0.9864
B( 39-C , 50-H ) :   0.9734 B( 39-C , 51-H ) :   0.9884 B( 39-C , 52-H ) :   0.9841
B( 40-C , 47-H ) :   0.9798 B( 40-C , 48-H ) :   0.9860 B( 40-C , 49-H ) :   0.9881
B( 53-C , 54-C ) :   0.9263 B( 53-C , 55-N ) :   0.9975 B( 53-C , 56-H ) :   0.9799
B( 53-C , 57-C ) :   0.9655 B( 54-C , 58-N ) :   1.0212 B( 54-C , 59-H ) :   0.9872
B( 54-C , 60-C ) :   0.9542 B( 55-N ,136-H ) :   1.0007 B( 57-C , 61-H ) :   0.9603
B( 57-C , 62-C ) :   0.9615 B( 57-C , 63-C ) :   0.9459 B( 58-N ,135-H ) :   1.0014
B( 60-C , 64-H ) :   0.9861 B( 60-C , 65-C ) :   0.9490 B( 60-C , 66-C ) :   0.9344
B( 62-C , 70-H ) :   0.9783 B( 62-C , 71-H ) :   0.9851 B( 62-C , 72-H ) :   0.9792
B( 63-C , 67-H ) :   0.9836 B( 63-C , 68-H ) :   0.9848 B( 63-C , 69-H ) :   0.9691
B( 65-C , 76-H ) :   0.9850 B( 65-C , 77-H ) :   0.9768 B( 65-C , 78-H ) :   0.9853
B( 66-C , 73-H ) :   0.9843 B( 66-C , 74-H ) :   0.9766 B( 66-C , 75-H ) :   0.9857
B( 79-C , 80-C ) :   0.9742 B( 79-C , 81-N ) :   0.9194 B( 79-C , 82-H ) :   0.9769
B( 79-C , 83-C ) :   0.9451 B( 80-C , 84-N ) :   0.9239 B( 80-C , 85-H ) :   0.9808
B( 80-C , 86-C ) :   0.9498 B( 83-C , 87-H ) :   0.9797 B( 83-C , 88-C ) :   0.9483
B( 83-C , 89-C ) :   0.9472 B( 86-C , 90-H ) :   0.9819 B( 86-C , 91-C ) :   0.9475
B( 86-C , 92-C ) :   0.9500 B( 88-C , 96-H ) :   0.9877 B( 88-C , 97-H ) :   0.9840
B( 88-C , 98-H ) :   0.9741 B( 89-C , 93-H ) :   0.9806 B( 89-C , 94-H ) :   0.9862
B( 89-C , 95-H ) :   0.9881 B( 91-C ,102-H ) :   0.9885 B( 91-C ,103-H ) :   0.9841
B( 91-C ,104-H ) :   0.9732 B( 92-C , 99-H ) :   0.9861 B( 92-C ,100-H ) :   0.9883
B( 92-C ,101-H ) :   0.9798 B(105-C ,106-C ) :   0.9530 B(105-C ,107-N ) :   1.0272
B(105-C ,108-H ) :   0.9840 B(105-C ,109-C ) :   0.9455 B(106-C ,110-N ) :   1.0038
B(106-C ,111-H ) :   0.9901 B(106-C ,112-C ) :   0.9555 B(107-N ,132-H ) :   0.9971
B(109-C ,113-H ) :   0.9774 B(109-C ,114-C ) :   0.9414 B(109-C ,115-C ) :   0.9586
B(110-N ,134-H ) :   0.9684 B(112-C ,116-H ) :   0.9838 B(112-C ,117-C ) :   0.9413
B(112-C ,118-C ) :   0.9594 B(114-C ,122-H ) :   0.9766 B(114-C ,123-H ) :   0.9843
B(114-C ,124-H ) :   0.9836 B(115-C ,119-H ) :   0.9867 B(115-C ,120-H ) :   0.9786
B(115-C ,121-H ) :   0.9866 B(117-C ,128-H ) :   0.9824 B(117-C ,129-H ) :   0.9836
B(117-C ,130-H ) :   0.9772 B(118-C ,125-H ) :   0.9878 B(118-C ,126-H ) :   0.9882
B(118-C ,127-H ) :   0.9735

MP2 TOTAL ENERGY:    -2386.414903702 Eh
FINAL SINGLE POINT ENERGY     -2386.414903701722

DIPOLE MOMENT
-------------
                                X             Y             Z
Electronic contribution:    -26.15405      -7.00180       4.48609
Nuclear contribution   :     27.62035       6.58335      -4.88689
                        -----------------------------------------
Total Dipole Moment    :      1.46630      -0.41845      -0.40080
                        -----------------------------------------
Magnitude (a.u.)       :      1.57663
Magnitude (Debye)      :      4.00748

Rotational constants in cm-1:     0.001391     0.001096     0.000976
Rotational constants in MHz :    41.708236    32.846832    29.256129

                             ****ORCA TERMINATED NORMALLY****
TOTAL RUN TIME: 0 days 3 hours 52 minutes 13 seconds 111 msec
