                         Program Version 4.2.1 -  RELEASE  -
|  1> ! RI-MP2 cc-pVTZ cc-pVTZ/C TIGHTSCF printbasis Grid6 NOFINALGRID SlowConv
|  2>
|  3> %base "_o_2_alde1_3_ami4_1_opt_MP2"
|  4> %maxcore 3000
|  5> %pal
|  6>    nprocs 32
|  7> end
|  8>
|  9> * xyzfile 0 1 _o_2_alde1_3_ami4_1_opt_B97-3c.xyz
| 10>
| 11>                          ****END OF INPUT****

CARTESIAN COORDINATES (ANGSTROEM)
---------------------------------
  C     -3.740846   -1.075660   -0.283398
  C     -3.101038   -0.715063    0.983650
  C     -4.232993   -2.355193   -0.511901
  C     -4.726416   -2.700111   -1.768574
  H     -4.218570   -3.088835    0.280890
  C     -4.699080   -1.777688   -2.807907
  C     -4.207732   -0.491107   -2.597401
  H     -5.042126   -2.048302   -3.797976
  C     -3.758774   -0.144430   -1.324962
  C     -4.047650    0.454435   -3.701163
  H     -3.359837    0.848992   -1.154084
  C     -5.247155   -4.053416   -2.029751
  H     -3.765856    1.476463   -3.417538
  H     -2.873606    0.350617    1.117001
  C     -0.011148    0.140887   -0.762089
  C     -0.161697   -0.802216    0.343356
  C     -0.442207   -0.226552   -2.034856
  C     -0.455943    0.698394   -3.078365
  H     -0.825551   -1.226495   -2.201507
  C      0.033089    1.983693   -2.851225
  C      0.491791    2.354764   -1.594597
  H      0.057089    2.693905   -3.664792
  C      0.453526    1.440488   -0.553569
  C      0.933841    3.770319   -1.344208
  H      0.771422    1.725103    0.440425
  C     -1.095378    0.338268   -4.342686
  H     -1.320072   -0.728459   -4.477111
  C     -0.454770   -1.405544    2.565582
  C     -1.934189   -1.168158    2.939598
  N     -0.068366   -0.448131    1.562745
  H     -0.342870   -2.446195    2.240132
  N     -2.759818   -1.591121    1.839576
  H     -2.061063   -0.111051    3.199951
  O     -5.300181   -4.950782   -1.214879
  C     -3.756934    1.038380   -5.930156
  C     -2.278300    0.781706   -6.294365
  N     -4.154861    0.096636   -4.917109
  H     -4.359423    0.881205   -6.823853
  N     -1.450409    1.211050   -5.198738
  H     -2.043383    1.375620   -7.176970
  C      0.353483    5.988000   -1.464507
  C      1.504304    5.782126   -2.468593
  N     -0.210244    4.661504   -1.218553
  H     -0.415682    6.668586   -1.820661
  N      1.727450    4.329028   -2.452455
  H      2.389804    6.351630   -2.173552
  H     -0.424046   -1.829430    0.057969
  H      1.481204    3.804627   -0.392479
  H      2.706183    4.096725   -2.356895
  H     -5.601155   -4.211237   -3.070177
  H      0.146266   -1.252619    3.461009
  H     -2.163359   -1.775729    3.813929
  H     -3.858522    2.083599   -5.616283
  H     -2.160350   -0.279469   -6.543813
  H      0.736101    6.384267   -0.523395
  H      1.226261    6.107802   -3.473260
  H     -0.857217    4.429439   -1.964506

 Total Charge           Charge          ....    0
 Multiplicity           Mult            ....    1
 Number of Electrons    NEL             ....  220
 Basis Dimension        Dim             .... 1294

ORBITAL ENERGIES
----------------

  NO   OCC          E(Eh)            E(eV)
   0   2.0000     -20.554311      -559.3112
   1   2.0000     -15.561912      -423.4612
   2   2.0000     -15.558641      -423.3721
   3   2.0000     -15.557479      -423.3405
   4   2.0000     -15.555616      -423.2898
   5   2.0000     -15.549681      -423.1283
   6   2.0000     -15.544768      -422.9947
   7   2.0000     -11.334270      -308.4212
   8   2.0000     -11.290054      -307.2180
   9   2.0000     -11.289662      -307.2073
  10   2.0000     -11.286099      -307.1104
  11   2.0000     -11.285554      -307.0955
  12   2.0000     -11.283481      -307.0391
  13   2.0000     -11.266809      -306.5855
  14   2.0000     -11.263336      -306.4910
  15   2.0000     -11.258251      -306.3526
  16   2.0000     -11.257846      -306.3416
  17   2.0000     -11.257746      -306.3388
  18   2.0000     -11.256601      -306.3077
  19   2.0000     -11.256378      -306.3016
  20   2.0000     -11.254276      -306.2444
  21   2.0000     -11.253881      -306.2337
  22   2.0000     -11.253476      -306.2226
  23   2.0000     -11.253174      -306.2144
  24   2.0000     -11.251928      -306.1805
  25   2.0000     -11.251648      -306.1729
  26   2.0000     -11.248201      -306.0791
  27   2.0000     -11.247884      -306.0705
  28   2.0000     -11.243748      -305.9579
  29   2.0000     -11.242513      -305.9243
  30   2.0000     -11.240798      -305.8777
  31   2.0000      -1.388993       -37.7964
  32   2.0000      -1.278454       -34.7885
  33   2.0000      -1.260987       -34.3132
  34   2.0000      -1.257557       -34.2199
  35   2.0000      -1.231878       -33.5211
  36   2.0000      -1.226097       -33.3638
  37   2.0000      -1.182246       -32.1706
  38   2.0000      -1.167571       -31.7712
  39   2.0000      -1.142432       -31.0872
  40   2.0000      -1.077398       -29.3175
  41   2.0000      -1.072947       -29.1964
  42   2.0000      -1.064171       -28.9576
  43   2.0000      -1.052556       -28.6415
  44   2.0000      -1.014037       -27.5933
  45   2.0000      -0.991492       -26.9799
  46   2.0000      -0.987369       -26.8677
  47   2.0000      -0.918917       -25.0050
  48   2.0000      -0.911579       -24.8053
  49   2.0000      -0.901317       -24.5261
  50   2.0000      -0.889138       -24.1947
  51   2.0000      -0.868866       -23.6430
  52   2.0000      -0.839825       -22.8528
  53   2.0000      -0.834556       -22.7094
  54   2.0000      -0.827313       -22.5123
  55   2.0000      -0.795090       -21.6355
  56   2.0000      -0.786983       -21.4149
  57   2.0000      -0.782942       -21.3049
  58   2.0000      -0.756178       -20.5767
  59   2.0000      -0.746667       -20.3178
  60   2.0000      -0.715805       -19.4780
  61   2.0000      -0.709855       -19.3161
  62   2.0000      -0.697956       -18.9924
  63   2.0000      -0.694603       -18.9011
  64   2.0000      -0.683168       -18.5899
  65   2.0000      -0.677989       -18.4490
  66   2.0000      -0.674407       -18.3515
  67   2.0000      -0.665600       -18.1119
  68   2.0000      -0.654253       -17.8031
  69   2.0000      -0.642500       -17.4833
  70   2.0000      -0.638450       -17.3731
  71   2.0000      -0.629995       -17.1430
  72   2.0000      -0.624085       -16.9822
  73   2.0000      -0.620395       -16.8818
  74   2.0000      -0.611138       -16.6299
  75   2.0000      -0.607839       -16.5401
  76   2.0000      -0.605673       -16.4812
  77   2.0000      -0.597790       -16.2667
  78   2.0000      -0.593670       -16.1546
  79   2.0000      -0.586263       -15.9530
  80   2.0000      -0.563940       -15.3456
  81   2.0000      -0.559454       -15.2235
  82   2.0000      -0.550160       -14.9706
  83   2.0000      -0.548785       -14.9332
  84   2.0000      -0.544329       -14.8119
  85   2.0000      -0.541115       -14.7245
  86   2.0000      -0.537705       -14.6317
  87   2.0000      -0.531193       -14.4545
  88   2.0000      -0.527101       -14.3431
  89   2.0000      -0.520835       -14.1726
  90   2.0000      -0.516741       -14.0612
  91   2.0000      -0.510053       -13.8792
  92   2.0000      -0.500810       -13.6277
  93   2.0000      -0.495954       -13.4956
  94   2.0000      -0.490381       -13.3439
  95   2.0000      -0.463968       -12.6252
  96   2.0000      -0.455760       -12.4019
  97   2.0000      -0.433274       -11.7900
  98   2.0000      -0.430215       -11.7068
  99   2.0000      -0.417746       -11.3675
 100   2.0000      -0.415470       -11.3055
 101   2.0000      -0.412749       -11.2315
 102   2.0000      -0.408388       -11.1128
 103   2.0000      -0.404592       -11.0095
 104   2.0000      -0.398566       -10.8455
 105   2.0000      -0.378216       -10.2918
 106   2.0000      -0.353508        -9.6194
 107   2.0000      -0.335428        -9.1275
 108   2.0000      -0.331604        -9.0234
 109   2.0000      -0.320577        -8.7233
 110   0.0000       0.055980         1.5233
 111   0.0000       0.064370         1.7516
 112   0.0000       0.068734         1.8704
 113   0.0000       0.101507         2.7622
 114   0.0000       0.122444         3.3319

MULLIKEN ATOMIC CHARGES
-----------------------
   0 C :    0.145443
   1 C :   -0.114135
   2 C :   -0.177863
   3 C :    0.075392
   4 H :    0.196802
   5 C :   -0.199944
   6 C :    0.145456
   7 H :    0.169221
   8 C :   -0.210440
   9 C :   -0.109090
  10 H :    0.164516
  11 C :    0.173241
  12 H :    0.121507
  13 H :    0.123896
  14 C :    0.151984
  15 C :   -0.110572
  16 C :   -0.243928
  17 C :    0.136819
  18 H :    0.154541
  19 C :   -0.191243
  20 C :    0.097271
  21 H :    0.176845
  22 C :   -0.212740
  23 C :    0.056577
  24 H :    0.162855
  25 C :   -0.104823
  26 H :    0.116841
  27 C :   -0.055469
  28 C :   -0.054332
  29 N :   -0.259533
  30 H :    0.076430
  31 N :   -0.250483
  32 H :    0.075258
  33 O :   -0.357072
  34 C :   -0.054351
  35 C :   -0.053262
  36 N :   -0.260952
  37 H :    0.110999
  38 N :   -0.259785
  39 H :    0.110750
  40 C :   -0.109631
  41 C :   -0.095510
  42 N :   -0.256426
  43 H :    0.111879
  44 N :   -0.271188
  45 H :    0.088678
  46 H :    0.121530
  47 H :    0.094127
  48 H :    0.111550
  49 H :    0.090588
  50 H :    0.110017
  51 H :    0.112088
  52 H :    0.074113
  53 H :    0.073361
  54 H :    0.088019
  55 H :    0.087013
  56 H :    0.107166
Sum of atomic charges:   -0.0000000

LOEWDIN ATOMIC CHARGES
----------------------
   0 C :   -0.077012
   1 C :   -0.071151
   2 C :    0.119576
   3 C :   -0.094431
   4 H :   -0.008367
   5 C :    0.096289
   6 C :   -0.080624
   7 H :   -0.015486
   8 C :    0.088998
   9 C :   -0.070327
  10 H :   -0.014640
  11 C :   -0.149799
  12 H :   -0.032498
  13 H :   -0.032414
  14 C :   -0.080881
  15 C :   -0.070857
  16 C :    0.065475
  17 C :   -0.081572
  18 H :   -0.021513
  19 C :    0.085829
  20 C :   -0.050238
  21 H :   -0.020197
  22 C :    0.085568
  23 C :   -0.156613
  24 H :   -0.017453
  25 C :   -0.069476
  26 H :   -0.033964
  27 C :   -0.036492
  28 C :   -0.034895
  29 N :    0.207225
  30 H :   -0.035798
  31 N :    0.214855
  32 H :   -0.036085
  33 O :    0.143974
  34 C :   -0.036259
  35 C :   -0.037081
  36 N :    0.208730
  37 H :   -0.028701
  38 N :    0.207772
  39 H :   -0.028375
  40 C :   -0.004694
  41 C :   -0.003655
  42 N :    0.305025
  43 H :   -0.032684
  44 N :    0.305616
  45 H :   -0.040899
  46 H :   -0.032807
  47 H :   -0.029483
  48 H :   -0.118755
  49 H :   -0.034919
  50 H :   -0.028813
  51 H :   -0.027932
  52 H :   -0.036413
  53 H :   -0.036853
  54 H :   -0.032858
  55 H :   -0.040211
  56 H :   -0.110756

  Mayer bond orders larger than 0.100000
B(  0-C ,  1-C ) :   0.9959 B(  0-C ,  2-C ) :   1.3378 B(  0-C ,  8-C ) :   1.3288
B(  1-C , 13-H ) :   0.9882 B(  1-C , 31-N ) :   1.9578 B(  2-C ,  3-C ) :   1.2940
B(  2-C ,  4-H ) :   0.9462 B(  3-C ,  5-C ) :   1.3397 B(  3-C , 11-C ) :   0.9322
B(  5-C ,  6-C ) :   1.3200 B(  5-C ,  7-H ) :   0.9567 B(  6-C ,  8-C ) :   1.3623
B(  6-C ,  9-C ) :   0.9988 B(  8-C , 10-H ) :   0.9702 B(  9-C , 12-H ) :   0.9866
B(  9-C , 36-N ) :   1.9527 B( 11-C , 33-O ) :   2.0955 B( 11-C , 49-H ) :   1.0205
B( 14-C , 15-C ) :   0.9970 B( 14-C , 16-C ) :   1.3531 B( 14-C , 22-C ) :   1.3309
B( 15-C , 29-N ) :   1.9528 B( 15-C , 46-H ) :   0.9876 B( 16-C , 17-C ) :   1.3376
B( 16-C , 18-H ) :   0.9741 B( 17-C , 19-C ) :   1.3431 B( 17-C , 25-C ) :   1.0039
B( 19-C , 20-C ) :   1.3275 B( 19-C , 21-H ) :   0.9457 B( 20-C , 22-C ) :   1.3710
B( 20-C , 23-C ) :   1.0057 B( 22-C , 24-H ) :   0.9600 B( 23-C , 42-N ) :   1.0193
B( 23-C , 44-N ) :   1.0124 B( 23-C , 47-H ) :   0.9978 B( 25-C , 26-H ) :   0.9869
B( 25-C , 38-N ) :   1.9508 B( 27-C , 28-C ) :   0.9199 B( 27-C , 29-N ) :   0.9728
B( 27-C , 30-H ) :   0.9731 B( 27-C , 50-H ) :   0.9861 B( 28-C , 31-N ) :   0.9701
B( 28-C , 32-H ) :   0.9736 B( 28-C , 51-H ) :   0.9855 B( 34-C , 35-C ) :   0.9200
B( 34-C , 36-N ) :   0.9709 B( 34-C , 37-H ) :   0.9862 B( 34-C , 52-H ) :   0.9737
B( 35-C , 38-N ) :   0.9737 B( 35-C , 39-H ) :   0.9857 B( 35-C , 53-H ) :   0.9730
B( 40-C , 41-C ) :   0.9440 B( 40-C , 42-N ) :   0.9937 B( 40-C , 43-H ) :   0.9937
B( 40-C , 54-H ) :   0.9872 B( 41-C , 44-N ) :   0.9897 B( 41-C , 45-H ) :   0.9850
B( 41-C , 55-H ) :   0.9803 B( 42-N , 56-H ) :   0.9945 B( 44-N , 48-H ) :   0.9900

MP2 TOTAL ENERGY:    -1331.176805233 Eh
FINAL SINGLE POINT ENERGY     -1331.176805233207

DIPOLE MOMENT
-------------
                                X             Y             Z
Electronic contribution:     -9.54779     -17.12573       1.20461
Nuclear contribution   :     10.37651      18.86682      -1.83442
                        -----------------------------------------
Total Dipole Moment    :      0.82871       1.74109      -0.62981
                        -----------------------------------------
Magnitude (a.u.)       :      2.02850
Magnitude (Debye)      :      5.15605

Rotational constants in cm-1:     0.006013     0.003608     0.002510
Rotational constants in MHz :   180.270982   108.164342    75.238619

                             ****ORCA TERMINATED NORMALLY****
TOTAL RUN TIME: 0 days 0 hours 30 minutes 39 seconds 124 msec
