                         Program Version 4.2.1 -  RELEASE  -
|  1> ! DFT COPT B97-3c TightSCF printbasis  Grid6 NOFINALGRID SlowConv
|  2>
|  3> %base "_o_2_alde1_4_ami3_1_opt_B97-3c"
|  4> %maxcore 3000
|  5> %scf
|  6>    MaxIter 2000
|  7> end
|  8> %pal
|  9>    nprocs 32
| 10> end
| 11>
| 12> * xyzfile 0 1 o_2_alde1_4_ami3_1_opt.xyz
| 13> # * xyzfile 0 1 _o_2_alde1_4_ami3_1_opt_B97-3c.xyz
| 14>
| 15>                          ****END OF INPUT****
 Total Charge           Charge          ....    0
 Multiplicity           Mult            ....    1
 Number of Electrons    NEL             ....  364
Dispersion correction           -0.327039691
FINAL SINGLE POINT ENERGY     -2071.191064627360
Dispersion correction            ... done
Dispersion correction           -0.327040622
FINAL SINGLE POINT ENERGY     -2071.192898901460
Dispersion correction            ... done
Dispersion correction           -0.327074359
FINAL SINGLE POINT ENERGY     -2071.193713571784
Dispersion correction            ... done
FINAL SINGLE POINT ENERGY     -2071.194371962582
FINAL SINGLE POINT ENERGY     -2071.194834412667
FINAL SINGLE POINT ENERGY     -2071.195040936075
FINAL SINGLE POINT ENERGY     -2071.195220256267
FINAL SINGLE POINT ENERGY     -2071.195401129470
FINAL SINGLE POINT ENERGY     -2071.195580045667
FINAL SINGLE POINT ENERGY     -2071.195716623062
FINAL SINGLE POINT ENERGY     -2071.197343945612
FINAL SINGLE POINT ENERGY     -2071.197350127192
FINAL SINGLE POINT ENERGY     -2071.197356048353
FINAL SINGLE POINT ENERGY     -2071.197362745751
FINAL SINGLE POINT ENERGY     -2071.197369940224
FINAL SINGLE POINT ENERGY     -2071.197377580716
FINAL SINGLE POINT ENERGY     -2071.197384932032
Dispersion correction            ... done
Dispersion correction           -0.323971956
FINAL SINGLE POINT ENERGY     -2071.197391229149
Dispersion correction            ... done
Dispersion correction           -0.323967310
FINAL SINGLE POINT ENERGY     -2071.197396666292
Dispersion correction            ... done
                    ***********************HURRAY********************

CARTESIAN COORDINATES (ANGSTROEM)
---------------------------------
  C     -3.901355   -1.988782   -0.367909
  C     -4.144839   -1.584243    1.014213
  C     -3.144294   -3.119024   -0.687378
  C     -2.801582   -3.390577   -2.004353
  H     -2.802115   -3.758540    0.115050
  C     -3.201644   -2.513143   -3.006340
  C     -3.969515   -1.389077   -2.708816
  H     -2.908508   -2.726372   -4.025589
  C     -4.334742   -1.148591   -1.385674
  C     -4.275974   -0.418656   -3.757533
  H     -4.914106   -0.263959   -1.159849
  C     -1.943500   -4.593537   -2.308711
  H     -3.678290   -0.515033   -4.675726
  H     -4.829888   -0.733886    1.133344
  C     -1.270077    1.237612    0.506209
  C     -1.372860    0.461035    1.739836
  C     -2.412320    1.713564   -0.134647
  C     -2.325643    2.306922   -1.387639
  H     -3.373584    1.560756    0.336357
  C     -1.071384    2.482084   -1.978145
  C      0.078682    2.044691   -1.336589
  H     -1.017943    2.934016   -2.959404
  C     -0.029430    1.408118   -0.104952
  C      1.411716    2.207788   -2.023875
  H      0.873790    1.053145    0.373008
  C     -3.565855    2.606449   -2.098540
  H     -4.478733    2.515473   -1.494356
  C     -2.488124   -0.535305    3.527933
  C     -3.717968   -1.439292    3.285837
  N     -2.425228    0.418670    2.448594
  N     -3.547349   -2.097758    2.011582
  C     -0.233399   -4.407716   -3.877940
  C      0.363487   -4.861605   -2.553332
  N     -1.643631   -4.756071   -3.751608
  N     -0.647871   -4.484055   -1.575493
  C     -5.191469    1.541102   -4.626675
  C     -4.929483    2.903936   -3.946667
  N     -5.116243    0.521438   -3.609964
  N     -3.618019    2.859572   -3.342959
  C      2.665208    0.786527   -3.388698
  C      2.964934    0.475665   -1.929117
  N      1.391898    1.491802   -3.333455
  N      2.552822    1.688453   -1.232387
  H     -0.489372   -0.145180    1.987936
  H      0.640441    0.810729   -3.307660
  H      1.584926    3.271808   -2.202934
  H      3.308158    2.361121   -1.274641
  H     -0.511614   -3.511219   -1.321927
  H     -1.762154   -5.730591   -3.998739
  H     -2.467708   -5.491395   -1.972197
  C      4.377128   -0.014986   -1.745552
  C      1.760914   -4.325668   -2.376037
  C     -2.611205    0.165679    4.875514
  C     -5.037419    4.033327   -4.958055
  H     -1.600820   -1.185770    3.545558
  C     -3.869910   -2.445304    4.414973
  H     -4.591845   -0.770911    3.278108
  C     -3.974335   -1.751660    5.764585
  H     -3.012263   -3.121228    4.398538
  H     -4.751698   -3.058585    4.224608
  C     -2.784803   -0.834349    6.009168
  H     -4.054066   -2.492699    6.561461
  H     -4.895382   -1.162511    5.797793
  H     -1.877628   -1.438783    6.099718
  H     -2.898261   -0.305207    6.956964
  H     -3.462431    0.848633    4.836827
  H     -1.724069    0.780965    5.034592
  H      0.416533   -5.957794   -2.578000
  C      2.608946   -4.797259   -3.560366
  H      2.199859   -4.652997   -1.432927
  H      1.726690   -3.232292   -2.350679
  C      1.987960   -4.472627   -4.919950
  H      2.744462   -5.878930   -3.481391
  H      3.607314   -4.362834   -3.499147
  C      0.540020   -4.952378   -5.050026
  H      2.598525   -4.904176   -5.713963
  H      2.007946   -3.391412   -5.074813
  H      0.504703   -6.046337   -5.037860
  H      0.109906   -4.628986   -5.998545
  H     -0.164874   -3.312661   -3.905394
  H      2.283613   -0.328671   -1.623484
  C      4.554890   -1.265902   -2.609946
  H      4.591460   -0.235271   -0.699219
  H      5.080852    0.761971   -2.060616
  C      4.156976   -1.048955   -4.070761
  H      3.943990   -2.066472   -2.186613
  H      5.587574   -1.612981   -2.559162
  C      2.755538   -0.455566   -4.237539
  H      4.228883   -1.991140   -4.615162
  H      4.877925   -0.373602   -4.538461
  H      2.550231   -0.240599   -5.286791
  H      2.001395   -1.175192   -3.904694
  H      3.428604    1.495417   -3.734737
  H     -5.716781    3.023065   -3.187452
  C     -6.558511    1.546688   -5.300214
  H     -4.416805    1.403834   -5.395943
  C     -6.682012    2.687720   -6.299295
  H     -7.326894    1.631271   -4.528878
  H     -6.713145    0.584267   -5.790852
  C     -6.393352    4.032228   -5.647196
  H     -7.678258    2.684804   -6.745011
  H     -5.976382    2.527463   -7.119618
  H     -7.173001    4.249837   -4.911444
  H     -6.437568    4.832044   -6.388048
  H     -4.236221    3.923049   -5.691972
  H     -4.862165    4.981464   -4.447932

 Multiplicity           Mult            ....    1
 Number of Electrons    NEL             ....  364
 Basis Dimension        Dim             .... 1118

ORBITAL ENERGIES
----------------

  NO   OCC          E(Eh)            E(eV)
   0   2.0000     -13.978113      -380.3638
   1   2.0000     -13.978106      -380.3636
   2   2.0000     -13.975079      -380.2812
   3   2.0000     -13.975072      -380.2810
   4   2.0000     -13.971562      -380.1855
   5   2.0000     -13.971551      -380.1852
   6   2.0000     -13.968623      -380.1055
   7   2.0000     -13.968596      -380.1048
   8   2.0000      -9.947878      -270.6955
   9   2.0000      -9.947872      -270.6954
  10   2.0000      -9.926302      -270.1084
  11   2.0000      -9.926286      -270.1080
  12   2.0000      -9.922506      -270.0051
  13   2.0000      -9.922479      -270.0044
  14   2.0000      -9.914178      -269.7785
  15   2.0000      -9.914167      -269.7782
  16   2.0000      -9.913656      -269.7643
  17   2.0000      -9.913652      -269.7642
  18   2.0000      -9.913177      -269.7513
  19   2.0000      -9.913164      -269.7509
  20   2.0000      -9.910970      -269.6912
  21   2.0000      -9.910962      -269.6910
  22   2.0000      -9.899852      -269.3887
  23   2.0000      -9.899820      -269.3878
  24   2.0000      -9.899467      -269.3782
  25   2.0000      -9.899462      -269.3781
  26   2.0000      -9.899263      -269.3726
  27   2.0000      -9.899252      -269.3723
  28   2.0000      -9.895347      -269.2661
  29   2.0000      -9.895340      -269.2659
  30   2.0000      -9.895185      -269.2617
  31   2.0000      -9.895182      -269.2616
  32   2.0000      -9.894470      -269.2422
  33   2.0000      -9.894464      -269.2421
  34   2.0000      -9.894405      -269.2404
  35   2.0000      -9.894393      -269.2401
  36   2.0000      -9.893390      -269.2128
  37   2.0000      -9.893356      -269.2119
  38   2.0000      -9.893292      -269.2102
  39   2.0000      -9.893269      -269.2095
  40   2.0000      -9.891754      -269.1683
  41   2.0000      -9.891747      -269.1681
  42   2.0000      -9.881754      -268.8962
  43   2.0000      -9.881751      -268.8961
  44   2.0000      -9.881390      -268.8863
  45   2.0000      -9.881389      -268.8863
  46   2.0000      -9.880709      -268.8678
  47   2.0000      -9.880700      -268.8675
  48   2.0000      -9.877633      -268.7841
  49   2.0000      -9.877614      -268.7835
  50   2.0000      -0.888810       -24.1858
  51   2.0000      -0.888789       -24.1852
  52   2.0000      -0.861047       -23.4303
  53   2.0000      -0.859973       -23.4010
  54   2.0000      -0.836584       -22.7646
  55   2.0000      -0.833480       -22.6802
  56   2.0000      -0.794942       -21.6315
  57   2.0000      -0.789578       -21.4855
  58   2.0000      -0.786755       -21.4087
  59   2.0000      -0.786331       -21.3971
  60   2.0000      -0.765590       -20.8328
  61   2.0000      -0.763294       -20.7703
  62   2.0000      -0.756293       -20.5798
  63   2.0000      -0.751016       -20.4362
  64   2.0000      -0.709160       -19.2972
  65   2.0000      -0.707740       -19.2586
  66   2.0000      -0.707360       -19.2482
  67   2.0000      -0.704832       -19.1794
  68   2.0000      -0.681245       -18.5376
  69   2.0000      -0.681014       -18.5313
  70   2.0000      -0.674862       -18.3639
  71   2.0000      -0.672287       -18.2939
  72   2.0000      -0.668836       -18.2000
  73   2.0000      -0.661439       -17.9987
  74   2.0000      -0.658522       -17.9193
  75   2.0000      -0.657217       -17.8838
  76   2.0000      -0.594530       -16.1780
  77   2.0000      -0.592122       -16.1125
  78   2.0000      -0.589676       -16.0459
  79   2.0000      -0.586152       -15.9500
  80   2.0000      -0.582813       -15.8591
  81   2.0000      -0.573825       -15.6146
  82   2.0000      -0.557501       -15.1704
  83   2.0000      -0.557404       -15.1677
  84   2.0000      -0.553425       -15.0595
  85   2.0000      -0.552576       -15.0364
  86   2.0000      -0.547230       -14.8909
  87   2.0000      -0.542222       -14.7546
  88   2.0000      -0.539000       -14.6669
  89   2.0000      -0.533742       -14.5239
  90   2.0000      -0.526980       -14.3398
  91   2.0000      -0.524308       -14.2671
  92   2.0000      -0.507082       -13.7984
  93   2.0000      -0.504046       -13.7158
  94   2.0000      -0.500892       -13.6300
  95   2.0000      -0.497295       -13.5321
  96   2.0000      -0.485399       -13.2084
  97   2.0000      -0.481223       -13.0947
  98   2.0000      -0.463897       -12.6233
  99   2.0000      -0.458825       -12.4853
 100   2.0000      -0.456991       -12.4354
 101   2.0000      -0.456387       -12.4189
 102   2.0000      -0.450057       -12.2467
 103   2.0000      -0.446670       -12.1545
 104   2.0000      -0.440288       -11.9809
 105   2.0000      -0.439271       -11.9532
 106   2.0000      -0.431731       -11.7480
 107   2.0000      -0.424661       -11.5556
 108   2.0000      -0.423015       -11.5108
 109   2.0000      -0.421968       -11.4823
 110   2.0000      -0.418905       -11.3990
 111   2.0000      -0.417179       -11.3520
 112   2.0000      -0.413295       -11.2463
 113   2.0000      -0.413219       -11.2442
 114   2.0000      -0.404756       -11.0140
 115   2.0000      -0.404590       -11.0095
 116   2.0000      -0.404038       -10.9944
 117   2.0000      -0.400630       -10.9017
 118   2.0000      -0.399573       -10.8729
 119   2.0000      -0.391641       -10.6571
 120   2.0000      -0.389134       -10.5889
 121   2.0000      -0.384455       -10.4616
 122   2.0000      -0.381454       -10.3799
 123   2.0000      -0.381191       -10.3727
 124   2.0000      -0.375617       -10.2210
 125   2.0000      -0.373843       -10.1728
 126   2.0000      -0.371806       -10.1173
 127   2.0000      -0.371707       -10.1147
 128   2.0000      -0.363044        -9.8789
 129   2.0000      -0.361943        -9.8490
 130   2.0000      -0.361040        -9.8244
 131   2.0000      -0.359987        -9.7957
 132   2.0000      -0.357069        -9.7163
 133   2.0000      -0.356891        -9.7115
 134   2.0000      -0.349730        -9.5166
 135   2.0000      -0.349113        -9.4999
 136   2.0000      -0.342562        -9.3216
 137   2.0000      -0.342052        -9.3077
 138   2.0000      -0.339850        -9.2478
 139   2.0000      -0.339054        -9.2261
 140   2.0000      -0.327074        -8.9001
 141   2.0000      -0.326914        -8.8958
 142   2.0000      -0.320710        -8.7269
 143   2.0000      -0.319417        -8.6918
 144   2.0000      -0.318306        -8.6616
 145   2.0000      -0.316176        -8.6036
 146   2.0000      -0.315006        -8.5718
 147   2.0000      -0.313617        -8.5339
 148   2.0000      -0.309744        -8.4286
 149   2.0000      -0.306530        -8.3411
 150   2.0000      -0.304219        -8.2782
 151   2.0000      -0.303385        -8.2555
 152   2.0000      -0.302526        -8.2321
 153   2.0000      -0.301140        -8.1944
 154   2.0000      -0.297782        -8.1031
 155   2.0000      -0.297203        -8.0873
 156   2.0000      -0.297033        -8.0827
 157   2.0000      -0.291490        -7.9319
 158   2.0000      -0.290321        -7.9000
 159   2.0000      -0.288905        -7.8615
 160   2.0000      -0.286645        -7.8000
 161   2.0000      -0.285398        -7.7661
 162   2.0000      -0.285204        -7.7608
 163   2.0000      -0.284922        -7.7531
 164   2.0000      -0.280832        -7.6418
 165   2.0000      -0.278258        -7.5718
 166   2.0000      -0.269899        -7.3443
 167   2.0000      -0.264868        -7.2074
 168   2.0000      -0.257519        -7.0075
 169   2.0000      -0.252972        -6.8837
 170   2.0000      -0.219647        -5.9769
 171   2.0000      -0.217373        -5.9150
 172   2.0000      -0.214074        -5.8252
 173   2.0000      -0.213942        -5.8217
 174   2.0000      -0.213070        -5.7979
 175   2.0000      -0.207246        -5.6394
 176   2.0000      -0.206576        -5.6212
 177   2.0000      -0.203197        -5.5293
 178   2.0000      -0.202199        -5.5021
 179   2.0000      -0.200963        -5.4685
 180   2.0000      -0.190861        -5.1936
 181   2.0000      -0.190834        -5.1928
 182   0.0000      -0.080342        -2.1862
 183   0.0000      -0.073664        -2.0045
 184   0.0000      -0.064021        -1.7421
 185   0.0000      -0.057831        -1.5737
 186   0.0000      -0.011531        -0.3138

MULLIKEN ATOMIC CHARGES
-----------------------
   0 C :    0.349313
   1 C :   -0.338333
   2 C :   -0.160956
   3 C :    0.044761
   4 H :    0.209260
   5 C :   -0.233040
   6 C :    0.300139
   7 H :    0.233600
   8 C :   -0.157210
   9 C :   -0.364442
  10 H :    0.207433
  11 C :   -0.337230
  12 H :    0.100785
  13 H :    0.114219
  14 C :    0.300789
  15 C :   -0.364507
  16 C :   -0.157201
  17 C :    0.349466
  18 H :    0.207271
  19 C :   -0.161359
  20 C :    0.045654
  21 H :    0.209184
  22 C :   -0.233946
  23 C :   -0.337629
  24 H :    0.233464
  25 C :   -0.338181
  26 H :    0.114203
  27 C :   -0.226921
  28 C :   -0.242997
  29 N :   -0.041744
  30 N :   -0.048833
  31 C :   -0.259018
  32 C :   -0.232004
  33 N :   -0.269991
  34 N :   -0.262832
  35 C :   -0.227260
  36 C :   -0.242499
  37 N :   -0.041688
  38 N :   -0.048827
  39 C :   -0.232409
  40 C :   -0.258352
  41 N :   -0.262846
  42 N :   -0.269851
  43 H :    0.100803
  44 H :    0.307377
  45 H :    0.165778
  46 H :    0.305813
  47 H :    0.307364
  48 H :    0.305818
  49 H :    0.165834
  50 C :   -0.249530
  51 C :   -0.250424
  52 C :   -0.261522
  53 C :   -0.270848
  54 H :    0.121213
  55 C :   -0.270647
  56 H :    0.123636
  57 C :   -0.290845
  58 H :    0.155746
  59 H :    0.169165
  60 C :   -0.277374
  61 H :    0.174354
  62 H :    0.137999
  63 H :    0.137148
  64 H :    0.173234
  65 H :    0.156136
  66 H :    0.167033
  67 H :    0.137102
  68 C :   -0.306805
  69 H :    0.181995
  70 H :    0.104058
  71 C :   -0.297738
  72 H :    0.155484
  73 H :    0.178167
  74 C :   -0.249259
  75 H :    0.175727
  76 H :    0.140405
  77 H :    0.135382
  78 H :    0.182513
  79 H :    0.135176
  80 H :    0.135058
  81 C :   -0.297616
  82 H :    0.182511
  83 H :    0.135433
  84 C :   -0.307085
  85 H :    0.140363
  86 H :    0.175789
  87 C :   -0.250270
  88 H :    0.178278
  89 H :    0.155444
  90 H :    0.182026
  91 H :    0.104114
  92 H :    0.137143
  93 H :    0.123508
  94 C :   -0.261412
  95 H :    0.121279
  96 C :   -0.277434
  97 H :    0.156130
  98 H :    0.167020
  99 C :   -0.290881
 100 H :    0.173232
 101 H :    0.137190
 102 H :    0.138031
 103 H :    0.174321
 104 H :    0.155779
 105 H :    0.169147
Sum of atomic charges:   -0.0000000

LOEWDIN ATOMIC CHARGES
----------------------
   0 C :   -0.077941
   1 C :   -0.033148
   2 C :   -0.118884
   3 C :   -0.078893
   4 H :    0.187740
   5 C :   -0.131217
   6 C :   -0.080964
   7 H :    0.183906
   8 C :   -0.115543
   9 C :   -0.027409
  10 H :    0.179008
  11 C :   -0.027907
  12 H :    0.139876
  13 H :    0.142414
  14 C :   -0.080944
  15 C :   -0.027407
  16 C :   -0.115543
  17 C :   -0.077936
  18 H :    0.178985
  19 C :   -0.118863
  20 C :   -0.078891
  21 H :    0.187738
  22 C :   -0.131195
  23 C :   -0.027948
  24 H :    0.183880
  25 C :   -0.033148
  26 H :    0.142382
  27 C :   -0.121684
  28 C :   -0.125212
  29 N :   -0.176912
  30 N :   -0.179068
  31 C :   -0.136906
  32 C :   -0.134740
  33 N :   -0.356224
  34 N :   -0.353887
  35 C :   -0.121694
  36 C :   -0.125202
  37 N :   -0.176908
  38 N :   -0.179010
  39 C :   -0.134716
  40 C :   -0.136908
  41 N :   -0.353901
  42 N :   -0.356200
  43 H :    0.139868
  44 H :    0.269831
  45 H :    0.156679
  46 H :    0.264875
  47 H :    0.269821
  48 H :    0.264880
  49 H :    0.156696
  50 C :   -0.287503
  51 C :   -0.292590
  52 C :   -0.287722
  53 C :   -0.291400
  54 H :    0.146614
  55 C :   -0.291406
  56 H :    0.148234
  57 C :   -0.297036
  58 H :    0.160306
  59 H :    0.158860
  60 C :   -0.296620
  61 H :    0.154398
  62 H :    0.152774
  63 H :    0.152720
  64 H :    0.154588
  65 H :    0.160902
  66 H :    0.157881
  67 H :    0.151127
  68 C :   -0.295690
  69 H :    0.162249
  70 H :    0.147348
  71 C :   -0.296060
  72 H :    0.155861
  73 H :    0.155099
  74 C :   -0.287492
  75 H :    0.157008
  76 H :    0.155707
  77 H :    0.153125
  78 H :    0.160944
  79 H :    0.151071
  80 H :    0.151064
  81 C :   -0.296038
  82 H :    0.160952
  83 H :    0.153124
  84 C :   -0.295688
  85 H :    0.155681
  86 H :    0.157007
  87 C :   -0.292629
  88 H :    0.155085
  89 H :    0.155862
  90 H :    0.162248
  91 H :    0.147372
  92 H :    0.151139
  93 H :    0.148211
  94 C :   -0.287730
  95 H :    0.146627
  96 C :   -0.296624
  97 H :    0.160904
  98 H :    0.157885
  99 C :   -0.297034
 100 H :    0.154591
 101 H :    0.152724
 102 H :    0.152770
 103 H :    0.154401
 104 H :    0.160310
 105 H :    0.158859

  Mayer bond orders larger than 0.100000
B(  0-C ,  1-C ) :   0.9355 B(  0-C ,  2-C ) :   1.3246 B(  0-C ,  3-C ) :   0.1293
B(  0-C ,  6-C ) :   0.1019 B(  0-C ,  8-C ) :   1.1233 B(  0-C , 30-N ) :  -0.1757
B(  1-C ,  8-C ) :   0.1046 B(  1-C , 13-H ) :   0.8970 B(  1-C , 28-C ) :   0.1005
B(  1-C , 30-N ) :   1.9307 B(  2-C ,  3-C ) :   1.3462 B(  2-C ,  4-H ) :   0.8963
B(  2-C , 30-N ) :   0.1044 B(  3-C ,  5-C ) :   1.4282 B(  3-C , 11-C ) :   0.7660
B(  3-C , 33-N ) :  -0.1916 B(  5-C ,  6-C ) :   1.1293 B(  5-C ,  7-H ) :   0.8874
B(  5-C ,  9-C ) :   0.1087 B(  6-C ,  8-C ) :   1.4292 B(  6-C ,  9-C ) :   0.9155
B(  6-C , 37-N ) :  -0.1912 B(  8-C , 10-H ) :   0.8691 B(  9-C , 12-H ) :   0.9099
B(  9-C , 37-N ) :   1.9671 B( 11-C , 33-N ) :   1.2102 B( 11-C , 34-N ) :   1.0417
B( 11-C , 49-H ) :   0.9720 B( 14-C , 15-C ) :   0.9160 B( 14-C , 16-C ) :   1.4293
B( 14-C , 17-C ) :   0.1016 B( 14-C , 22-C ) :   1.1289 B( 14-C , 29-N ) :  -0.1913
B( 15-C , 22-C ) :   0.1089 B( 15-C , 29-N ) :   1.9672 B( 15-C , 43-H ) :   0.9097
B( 16-C , 17-C ) :   1.1237 B( 16-C , 18-H ) :   0.8692 B( 16-C , 25-C ) :   0.1045
B( 17-C , 19-C ) :   1.3248 B( 17-C , 20-C ) :   0.1291 B( 17-C , 25-C ) :   0.9355
B( 17-C , 38-N ) :  -0.1757 B( 19-C , 20-C ) :   1.3464 B( 19-C , 21-H ) :   0.8964
B( 19-C , 38-N ) :   0.1045 B( 20-C , 22-C ) :   1.4283 B( 20-C , 23-C ) :   0.7657
B( 20-C , 42-N ) :  -0.1918 B( 22-C , 24-H ) :   0.8876 B( 23-C , 41-N ) :   1.0416
B( 23-C , 42-N ) :   1.2103 B( 23-C , 45-H ) :   0.9722 B( 25-C , 26-H ) :   0.8969
B( 25-C , 36-C ) :   0.1005 B( 25-C , 38-N ) :   1.9306 B( 27-C , 28-C ) :   0.8692
B( 27-C , 29-N ) :   0.9338 B( 27-C , 52-C ) :   0.9623 B( 27-C , 54-H ) :   0.9218
B( 28-C , 30-N ) :   0.9783 B( 28-C , 55-C ) :   0.9498 B( 28-C , 56-H ) :   0.9270
B( 30-N , 55-C ) :  -0.1148 B( 31-C , 32-C ) :   0.8933 B( 31-C , 33-N ) :   1.0204
B( 31-C , 34-N ) :  -0.1053 B( 31-C , 74-C ) :   0.9625 B( 31-C , 79-H ) :   0.9366
B( 32-C , 33-N ) :  -0.1009 B( 32-C , 34-N ) :   1.1499 B( 32-C , 51-C ) :   0.9312
B( 32-C , 67-H ) :   0.9216 B( 33-N , 48-H ) :   0.8501 B( 34-N , 47-H ) :   0.8294
B( 35-C , 36-C ) :   0.8689 B( 35-C , 37-N ) :   0.9337 B( 35-C , 94-C ) :   0.9623
B( 35-C , 95-H ) :   0.9220 B( 36-C , 38-N ) :   0.9784 B( 36-C , 53-C ) :   0.9498
B( 36-C , 93-H ) :   0.9270 B( 38-N , 53-C ) :  -0.1147 B( 39-C , 40-C ) :   0.8934
B( 39-C , 41-N ) :   1.1499 B( 39-C , 42-N ) :  -0.1009 B( 39-C , 87-C ) :   0.9310
B( 39-C , 92-H ) :   0.9218 B( 40-C , 41-N ) :  -0.1053 B( 40-C , 42-N ) :   1.0206
B( 40-C , 50-C ) :   0.9625 B( 40-C , 80-H ) :   0.9364 B( 41-N , 44-H ) :   0.8293
B( 42-N , 46-H ) :   0.8501 B( 50-C , 81-C ) :   0.9774 B( 50-C , 82-H ) :   0.9391
B( 50-C , 83-H ) :   0.9459 B( 51-C , 68-C ) :   0.9900 B( 51-C , 69-H ) :   0.9369
B( 51-C , 70-H ) :   0.9533 B( 52-C , 60-C ) :   0.9848 B( 52-C , 65-H ) :   0.9509
B( 52-C , 66-H ) :   0.9295 B( 53-C , 99-C ) :   0.9784 B( 53-C ,104-H ) :   0.9573
B( 53-C ,105-H ) :   0.9364 B( 55-C , 57-C ) :   0.9783 B( 55-C , 58-H ) :   0.9572
B( 55-C , 59-H ) :   0.9365 B( 57-C , 60-C ) :   0.9962 B( 57-C , 61-H ) :   0.9399
B( 57-C , 62-H ) :   0.9478 B( 60-C , 63-H ) :   0.9458 B( 60-C , 64-H ) :   0.9389
B( 68-C , 71-C ) :   0.9760 B( 68-C , 72-H ) :   0.9409 B( 68-C , 73-H ) :   0.9419
B( 71-C , 74-C ) :   0.9772 B( 71-C , 75-H ) :   0.9369 B( 71-C , 76-H ) :   0.9550
B( 74-C , 77-H ) :   0.9459 B( 74-C , 78-H ) :   0.9391 B( 81-C , 84-C ) :   0.9760
B( 81-C , 85-H ) :   0.9550 B( 81-C , 86-H ) :   0.9369 B( 84-C , 87-C ) :   0.9898
B( 84-C , 88-H ) :   0.9420 B( 84-C , 89-H ) :   0.9409 B( 87-C , 90-H ) :   0.9369
B( 87-C , 91-H ) :   0.9533 B( 94-C , 96-C ) :   0.9848 B( 94-C , 97-H ) :   0.9509
B( 94-C , 98-H ) :   0.9295 B( 96-C , 99-C ) :   0.9962 B( 96-C ,100-H ) :   0.9389
B( 96-C ,101-H ) :   0.9458 B( 99-C ,102-H ) :   0.9477 B( 99-C ,103-H ) :   0.9399

Dispersion correction           -0.323964287
FINAL SINGLE POINT ENERGY     -2071.197401193323

DIPOLE MOMENT
-------------
                                X             Y             Z
Electronic contribution:    -19.98178       9.47694       9.03199
Nuclear contribution   :     21.39924     -10.14808      -9.67367
                        -----------------------------------------
Total Dipole Moment    :      1.41746      -0.67113      -0.64167
                        -----------------------------------------
Magnitude (a.u.)       :      1.69451
Magnitude (Debye)      :      4.30709

Rotational constants in cm-1:     0.001692     0.001552     0.001232
Rotational constants in MHz :    50.736023    46.527348    36.921564

                             ****ORCA TERMINATED NORMALLY****
TOTAL RUN TIME: 0 days 1 hours 14 minutes 23 seconds 266 msec
