                         Program Version 4.2.1 -  RELEASE  -
|  1> ! RI-MP2 cc-pVTZ cc-pVTZ/C TIGHTSCF printbasis Grid6 NOFINALGRID SlowConv
|  2>
|  3> %base "_o_2_alde1_4_ami3_1_opt_MP2"
|  4> %maxcore 3000
|  5> %pal
|  6>    nprocs 32
|  7> end
|  8>
|  9> * xyzfile 0 1 _o_2_alde1_4_ami3_1_opt_B97-3c.xyz
| 10>
| 11>                          ****END OF INPUT****

CARTESIAN COORDINATES (ANGSTROEM)
---------------------------------
  C     -3.901355   -1.988782   -0.367909
  C     -4.144839   -1.584243    1.014213
  C     -3.144294   -3.119024   -0.687378
  C     -2.801582   -3.390577   -2.004353
  H     -2.802115   -3.758540    0.115050
  C     -3.201644   -2.513143   -3.006340
  C     -3.969515   -1.389077   -2.708816
  H     -2.908508   -2.726372   -4.025589
  C     -4.334742   -1.148591   -1.385674
  C     -4.275974   -0.418656   -3.757533
  H     -4.914106   -0.263959   -1.159849
  C     -1.943500   -4.593537   -2.308711
  H     -3.678290   -0.515033   -4.675726
  H     -4.829888   -0.733886    1.133344
  C     -1.270077    1.237612    0.506209
  C     -1.372860    0.461035    1.739836
  C     -2.412320    1.713564   -0.134647
  C     -2.325643    2.306922   -1.387639
  H     -3.373584    1.560756    0.336357
  C     -1.071384    2.482084   -1.978145
  C      0.078682    2.044691   -1.336589
  H     -1.017943    2.934016   -2.959404
  C     -0.029430    1.408118   -0.104952
  C      1.411716    2.207788   -2.023875
  H      0.873790    1.053145    0.373008
  C     -3.565855    2.606449   -2.098540
  H     -4.478733    2.515473   -1.494356
  C     -2.488124   -0.535305    3.527933
  C     -3.717968   -1.439292    3.285837
  N     -2.425228    0.418670    2.448594
  N     -3.547349   -2.097758    2.011582
  C     -0.233399   -4.407716   -3.877940
  C      0.363487   -4.861605   -2.553332
  N     -1.643631   -4.756071   -3.751608
  N     -0.647871   -4.484055   -1.575493
  C     -5.191469    1.541102   -4.626675
  C     -4.929483    2.903936   -3.946667
  N     -5.116243    0.521438   -3.609964
  N     -3.618019    2.859572   -3.342959
  C      2.665208    0.786527   -3.388698
  C      2.964934    0.475665   -1.929117
  N      1.391898    1.491802   -3.333455
  N      2.552822    1.688453   -1.232387
  H     -0.489372   -0.145180    1.987936
  H      0.640441    0.810729   -3.307660
  H      1.584926    3.271808   -2.202934
  H      3.308158    2.361121   -1.274641
  H     -0.511614   -3.511219   -1.321927
  H     -1.762154   -5.730591   -3.998739
  H     -2.467708   -5.491395   -1.972197
  C      4.377128   -0.014986   -1.745552
  C      1.760914   -4.325668   -2.376037
  C     -2.611205    0.165679    4.875514
  C     -5.037419    4.033327   -4.958055
  H     -1.600820   -1.185770    3.545558
  C     -3.869910   -2.445304    4.414973
  H     -4.591845   -0.770911    3.278108
  C     -3.974335   -1.751660    5.764585
  H     -3.012263   -3.121228    4.398538
  H     -4.751698   -3.058585    4.224608
  C     -2.784803   -0.834349    6.009168
  H     -4.054066   -2.492699    6.561461
  H     -4.895382   -1.162511    5.797793
  H     -1.877628   -1.438783    6.099718
  H     -2.898261   -0.305207    6.956964
  H     -3.462431    0.848633    4.836827
  H     -1.724069    0.780965    5.034592
  H      0.416533   -5.957794   -2.578000
  C      2.608946   -4.797259   -3.560366
  H      2.199859   -4.652997   -1.432927
  H      1.726690   -3.232292   -2.350679
  C      1.987960   -4.472627   -4.919950
  H      2.744462   -5.878930   -3.481391
  H      3.607314   -4.362834   -3.499147
  C      0.540020   -4.952378   -5.050026
  H      2.598525   -4.904176   -5.713963
  H      2.007946   -3.391412   -5.074813
  H      0.504703   -6.046337   -5.037860
  H      0.109906   -4.628986   -5.998545
  H     -0.164874   -3.312661   -3.905394
  H      2.283613   -0.328671   -1.623484
  C      4.554890   -1.265902   -2.609946
  H      4.591460   -0.235271   -0.699219
  H      5.080852    0.761971   -2.060616
  C      4.156976   -1.048955   -4.070761
  H      3.943990   -2.066472   -2.186613
  H      5.587574   -1.612981   -2.559162
  C      2.755538   -0.455566   -4.237539
  H      4.228883   -1.991140   -4.615162
  H      4.877925   -0.373602   -4.538461
  H      2.550231   -0.240599   -5.286791
  H      2.001395   -1.175192   -3.904694
  H      3.428604    1.495417   -3.734737
  H     -5.716781    3.023065   -3.187452
  C     -6.558511    1.546688   -5.300214
  H     -4.416805    1.403834   -5.395943
  C     -6.682012    2.687720   -6.299295
  H     -7.326894    1.631271   -4.528878
  H     -6.713145    0.584267   -5.790852
  C     -6.393352    4.032228   -5.647196
  H     -7.678258    2.684804   -6.745011
  H     -5.976382    2.527463   -7.119618
  H     -7.173001    4.249837   -4.911444
  H     -6.437568    4.832044   -6.388048
  H     -4.236221    3.923049   -5.691972
  H     -4.862165    4.981464   -4.447932

 Total Charge           Charge          ....    0
 Multiplicity           Mult            ....    1
 Number of Electrons    NEL             ....  364
 Basis Dimension        Dim             .... 2284

ORBITAL ENERGIES
----------------

  NO   OCC          E(Eh)            E(eV)
   0   2.0000     -15.545854      -423.0242
   1   2.0000     -15.545845      -423.0240
   2   2.0000     -15.544257      -422.9807
   3   2.0000     -15.544242      -422.9803
   4   2.0000     -15.541946      -422.9179
   5   2.0000     -15.541945      -422.9178
   6   2.0000     -15.541035      -422.8931
   7   2.0000     -15.541000      -422.8921
   8   2.0000     -11.287238      -307.1414
   9   2.0000     -11.287230      -307.1411
  10   2.0000     -11.272484      -306.7399
  11   2.0000     -11.272465      -306.7394
  12   2.0000     -11.269130      -306.6486
  13   2.0000     -11.269105      -306.6479
  14   2.0000     -11.247360      -306.0562
  15   2.0000     -11.247348      -306.0559
  16   2.0000     -11.245704      -306.0112
  17   2.0000     -11.245693      -306.0109
  18   2.0000     -11.244766      -305.9856
  19   2.0000     -11.244763      -305.9856
  20   2.0000     -11.242487      -305.9236
  21   2.0000     -11.242476      -305.9233
  22   2.0000     -11.235820      -305.7422
  23   2.0000     -11.235782      -305.7412
  24   2.0000     -11.235250      -305.7267
  25   2.0000     -11.235232      -305.7262
  26   2.0000     -11.234643      -305.7102
  27   2.0000     -11.234633      -305.7099
  28   2.0000     -11.232446      -305.6504
  29   2.0000     -11.232420      -305.6497
  30   2.0000     -11.232014      -305.6386
  31   2.0000     -11.231978      -305.6377
  32   2.0000     -11.230298      -305.5919
  33   2.0000     -11.230289      -305.5917
  34   2.0000     -11.227358      -305.5119
  35   2.0000     -11.227354      -305.5118
  36   2.0000     -11.226776      -305.4961
  37   2.0000     -11.226773      -305.4960
  38   2.0000     -11.225684      -305.4664
  39   2.0000     -11.225676      -305.4662
  40   2.0000     -11.225419      -305.4592
  41   2.0000     -11.225414      -305.4591
  42   2.0000     -11.211791      -305.0884
  43   2.0000     -11.211788      -305.0883
  44   2.0000     -11.210721      -305.0592
  45   2.0000     -11.210713      -305.0590
  46   2.0000     -11.209784      -305.0337
  47   2.0000     -11.209782      -305.0337
  48   2.0000     -11.206714      -304.9502
  49   2.0000     -11.206697      -304.9497
  50   2.0000      -1.276775       -34.7428
  51   2.0000      -1.276739       -34.7418
  52   2.0000      -1.248415       -33.9711
  53   2.0000      -1.246688       -33.9241
  54   2.0000      -1.218404       -33.1545
  55   2.0000      -1.213717       -33.0269
  56   2.0000      -1.163389       -31.6574
  57   2.0000      -1.155496       -31.4426
  58   2.0000      -1.147370       -31.2215
  59   2.0000      -1.147247       -31.2182
  60   2.0000      -1.119362       -30.4594
  61   2.0000      -1.116352       -30.3775
  62   2.0000      -1.109285       -30.1852
  63   2.0000      -1.102172       -29.9916
  64   2.0000      -1.047541       -28.5050
  65   2.0000      -1.046342       -28.4724
  66   2.0000      -1.045332       -28.4449
  67   2.0000      -1.043001       -28.3815
  68   2.0000      -1.007636       -27.4192
  69   2.0000      -1.007323       -27.4106
  70   2.0000      -1.000701       -27.2305
  71   2.0000      -0.995545       -27.0902
  72   2.0000      -0.993682       -27.0395
  73   2.0000      -0.982664       -26.7397
  74   2.0000      -0.979200       -26.6454
  75   2.0000      -0.977724       -26.6052
  76   2.0000      -0.888398       -24.1745
  77   2.0000      -0.884198       -24.0603
  78   2.0000      -0.879927       -23.9440
  79   2.0000      -0.873198       -23.7609
  80   2.0000      -0.872398       -23.7392
  81   2.0000      -0.858054       -23.3488
  82   2.0000      -0.834865       -22.7178
  83   2.0000      -0.834549       -22.7092
  84   2.0000      -0.826243       -22.4832
  85   2.0000      -0.824737       -22.4422
  86   2.0000      -0.823189       -22.4001
  87   2.0000      -0.814973       -22.1765
  88   2.0000      -0.811189       -22.0736
  89   2.0000      -0.803237       -21.8572
  90   2.0000      -0.787533       -21.4299
  91   2.0000      -0.783696       -21.3255
  92   2.0000      -0.765242       -20.8233
  93   2.0000      -0.761332       -20.7169
  94   2.0000      -0.757602       -20.6154
  95   2.0000      -0.751270       -20.4431
  96   2.0000      -0.742025       -20.1915
  97   2.0000      -0.733355       -19.9556
  98   2.0000      -0.696372       -18.9493
  99   2.0000      -0.691057       -18.8046
 100   2.0000      -0.683630       -18.6025
 101   2.0000      -0.683437       -18.5973
 102   2.0000      -0.672892       -18.3103
 103   2.0000      -0.669042       -18.2056
 104   2.0000      -0.661423       -17.9982
 105   2.0000      -0.661108       -17.9897
 106   2.0000      -0.654263       -17.8034
 107   2.0000      -0.644221       -17.5301
 108   2.0000      -0.638853       -17.3841
 109   2.0000      -0.638380       -17.3712
 110   2.0000      -0.635154       -17.2834
 111   2.0000      -0.634545       -17.2669
 112   2.0000      -0.631291       -17.1783
 113   2.0000      -0.627063       -17.0632
 114   2.0000      -0.618967       -16.8429
 115   2.0000      -0.617272       -16.7968
 116   2.0000      -0.615743       -16.7552
 117   2.0000      -0.608688       -16.5632
 118   2.0000      -0.606516       -16.5041
 119   2.0000      -0.600460       -16.3393
 120   2.0000      -0.598174       -16.2771
 121   2.0000      -0.592379       -16.1194
 122   2.0000      -0.590459       -16.0672
 123   2.0000      -0.588795       -16.0219
 124   2.0000      -0.582493       -15.8504
 125   2.0000      -0.581000       -15.8098
 126   2.0000      -0.570037       -15.5115
 127   2.0000      -0.569781       -15.5045
 128   2.0000      -0.561415       -15.2769
 129   2.0000      -0.559581       -15.2270
 130   2.0000      -0.555037       -15.1033
 131   2.0000      -0.554507       -15.0889
 132   2.0000      -0.552065       -15.0224
 133   2.0000      -0.552036       -15.0217
 134   2.0000      -0.542561       -14.7638
 135   2.0000      -0.541618       -14.7382
 136   2.0000      -0.532541       -14.4912
 137   2.0000      -0.530350       -14.4316
 138   2.0000      -0.523947       -14.2573
 139   2.0000      -0.523304       -14.2398
 140   2.0000      -0.514867       -14.0103
 141   2.0000      -0.509667       -13.8687
 142   2.0000      -0.507019       -13.7967
 143   2.0000      -0.506458       -13.7814
 144   2.0000      -0.505834       -13.7644
 145   2.0000      -0.503657       -13.7052
 146   2.0000      -0.496435       -13.5087
 147   2.0000      -0.494546       -13.4573
 148   2.0000      -0.492362       -13.3979
 149   2.0000      -0.488663       -13.2972
 150   2.0000      -0.485227       -13.2037
 151   2.0000      -0.482765       -13.1367
 152   2.0000      -0.478724       -13.0267
 153   2.0000      -0.477414       -12.9911
 154   2.0000      -0.474228       -12.9044
 155   2.0000      -0.465960       -12.6794
 156   2.0000      -0.464884       -12.6501
 157   2.0000      -0.464716       -12.6456
 158   2.0000      -0.460567       -12.5327
 159   2.0000      -0.460236       -12.5237
 160   2.0000      -0.460183       -12.5222
 161   2.0000      -0.459541       -12.5047
 162   2.0000      -0.458383       -12.4732
 163   2.0000      -0.454315       -12.3625
 164   2.0000      -0.452436       -12.3114
 165   2.0000      -0.448060       -12.1923
 166   2.0000      -0.429871       -11.6974
 167   2.0000      -0.419189       -11.4067
 168   2.0000      -0.407649       -11.0927
 169   2.0000      -0.402785       -10.9603
 170   2.0000      -0.400280       -10.8922
 171   2.0000      -0.398133       -10.8338
 172   2.0000      -0.391979       -10.6663
 173   2.0000      -0.391124       -10.6430
 174   2.0000      -0.383585       -10.4379
 175   2.0000      -0.383263       -10.4291
 176   2.0000      -0.376390       -10.2421
 177   2.0000      -0.376262       -10.2386
 178   2.0000      -0.325372        -8.8538
 179   2.0000      -0.316315        -8.6074
 180   2.0000      -0.312232        -8.4963
 181   2.0000      -0.311212        -8.4685
 182   0.0000       0.078168         2.1271
 183   0.0000       0.082652         2.2491
 184   0.0000       0.105532         2.8717
 185   0.0000       0.105834         2.8799
 186   0.0000       0.115613         3.1460

MULLIKEN ATOMIC CHARGES
-----------------------
   0 C :    0.179841
   1 C :   -0.105065
   2 C :   -0.235601
   3 C :    0.052587
   4 H :    0.174644
   5 C :   -0.261648
   6 C :    0.223092
   7 H :    0.168588
   8 C :   -0.237198
   9 C :   -0.098172
  10 H :    0.158790
  11 C :    0.065883
  12 H :    0.083644
  13 H :    0.100655
  14 C :    0.222952
  15 C :   -0.098024
  16 C :   -0.237268
  17 C :    0.179845
  18 H :    0.158832
  19 C :   -0.235670
  20 C :    0.052793
  21 H :    0.174607
  22 C :   -0.261590
  23 C :    0.065709
  24 H :    0.168559
  25 C :   -0.104866
  26 H :    0.100544
  27 C :    0.089641
  28 C :    0.097261
  29 N :   -0.292614
  30 N :   -0.288124
  31 C :    0.046551
  32 C :    0.044476
  33 N :   -0.284642
  34 N :   -0.287538
  35 C :    0.089615
  36 C :    0.097241
  37 N :   -0.292599
  38 N :   -0.288078
  39 C :    0.044527
  40 C :    0.046534
  41 N :   -0.287530
  42 N :   -0.284592
  43 H :    0.083605
  44 H :    0.107131
  45 H :    0.113432
  46 H :    0.091938
  47 H :    0.107130
  48 H :    0.091947
  49 H :    0.113476
  50 C :   -0.224453
  51 C :   -0.229244
  52 C :   -0.202960
  53 C :   -0.203417
  54 H :    0.077165
  55 C :   -0.203410
  56 H :    0.076748
  57 C :   -0.204380
  58 H :    0.096407
  59 H :    0.108459
  60 C :   -0.205765
  61 H :    0.110985
  62 H :    0.087176
  63 H :    0.087330
  64 H :    0.111359
  65 H :    0.098604
  66 H :    0.106399
  67 H :    0.092764
  68 C :   -0.227481
  69 H :    0.127454
  70 H :    0.079246
  71 C :   -0.216065
  72 H :    0.108499
  73 H :    0.125424
  74 C :   -0.224445
  75 H :    0.117634
  76 H :    0.098506
  77 H :    0.090457
  78 H :    0.121851
  79 H :    0.083686
  80 H :    0.083644
  81 C :   -0.215972
  82 H :    0.121838
  83 H :    0.090479
  84 C :   -0.227447
  85 H :    0.098484
  86 H :    0.117631
  87 C :   -0.229284
  88 H :    0.125412
  89 H :    0.108495
  90 H :    0.127460
  91 H :    0.079202
  92 H :    0.092760
  93 H :    0.076706
  94 C :   -0.202951
  95 H :    0.077187
  96 C :   -0.205759
  97 H :    0.098612
  98 H :    0.106393
  99 C :   -0.204404
 100 H :    0.111358
 101 H :    0.087326
 102 H :    0.087207
 103 H :    0.110967
 104 H :    0.096425
 105 H :    0.108448
Sum of atomic charges:   -0.0000000

LOEWDIN ATOMIC CHARGES
----------------------
   0 C :   -0.073930
   1 C :   -0.067384
   2 C :    0.081617
   3 C :   -0.054581
   4 H :   -0.016007
   5 C :    0.063042
   6 C :   -0.074924
   7 H :   -0.027326
   8 C :    0.080685
   9 C :   -0.065851
  10 H :   -0.024539
  11 C :   -0.107802
  12 H :   -0.035453
  13 H :   -0.035352
  14 C :   -0.074896
  15 C :   -0.065872
  16 C :    0.080672
  17 C :   -0.073918
  18 H :   -0.024534
  19 C :    0.081624
  20 C :   -0.054583
  21 H :   -0.015982
  22 C :    0.063056
  23 C :   -0.107891
  24 H :   -0.027293
  25 C :   -0.067411
  26 H :   -0.035346
  27 C :   -0.109328
  28 C :   -0.112201
  29 N :    0.231038
  30 N :    0.222926
  31 C :   -0.107197
  32 C :   -0.106434
  33 N :    0.318847
  34 N :    0.305232
  35 C :   -0.109314
  36 C :   -0.112194
  37 N :    0.231035
  38 N :    0.223007
  39 C :   -0.106372
  40 C :   -0.107181
  41 N :    0.305257
  42 N :    0.318779
  43 H :   -0.035450
  44 H :   -0.115351
  45 H :   -0.028035
  46 H :   -0.115429
  47 H :   -0.115314
  48 H :   -0.115437
  49 H :   -0.028049
  50 C :    0.065593
  51 C :    0.062919
  52 C :    0.061244
  53 C :    0.059667
  54 H :   -0.032527
  55 C :    0.059677
  56 H :   -0.031023
  57 C :    0.058137
  58 H :   -0.024144
  59 H :   -0.025173
  60 C :    0.058295
  61 H :   -0.026454
  62 H :   -0.026378
  63 H :   -0.026465
  64 H :   -0.026279
  65 H :   -0.024203
  66 H :   -0.026196
  67 H :   -0.023298
  68 C :    0.066558
  69 H :   -0.022189
  70 H :   -0.032394
  71 C :    0.066408
  72 H :   -0.024441
  73 H :   -0.027329
  74 C :    0.065587
  75 H :   -0.025055
  76 H :   -0.026101
  77 H :   -0.026803
  78 H :   -0.023393
  79 H :   -0.025282
  80 H :   -0.025293
  81 C :    0.066407
  82 H :   -0.023383
  83 H :   -0.026808
  84 C :    0.066529
  85 H :   -0.026114
  86 H :   -0.025051
  87 C :    0.062876
  88 H :   -0.027309
  89 H :   -0.024442
  90 H :   -0.022184
  91 H :   -0.032369
  92 H :   -0.023297
  93 H :   -0.031039
  94 C :    0.061230
  95 H :   -0.032528
  96 C :    0.058287
  97 H :   -0.024199
  98 H :   -0.026193
  99 C :    0.058129
 100 H :   -0.026278
 101 H :   -0.026455
 102 H :   -0.026382
 103 H :   -0.026440
 104 H :   -0.024135
 105 H :   -0.025173

  Mayer bond orders larger than 0.100000
B(  0-C ,  1-C ) :   1.0096 B(  0-C ,  2-C ) :   1.3029 B(  0-C ,  8-C ) :   1.3483
B(  1-C , 13-H ) :   0.9886 B(  1-C , 30-N ) :   1.9608 B(  2-C ,  3-C ) :   1.3884
B(  2-C ,  4-H ) :   0.9574 B(  3-C ,  5-C ) :   1.3288 B(  3-C , 11-C ) :   1.0377
B(  5-C ,  6-C ) :   1.3494 B(  5-C ,  7-H ) :   0.9542 B(  6-C ,  8-C ) :   1.3197
B(  6-C ,  9-C ) :   0.9917 B(  8-C , 10-H ) :   0.9635 B(  9-C , 12-H ) :   0.9889
B(  9-C , 37-N ) :   1.9759 B( 11-C , 33-N ) :   1.0183 B( 11-C , 34-N ) :   1.0297
B( 11-C , 49-H ) :   0.9881 B( 14-C , 15-C ) :   0.9918 B( 14-C , 16-C ) :   1.3197
B( 14-C , 22-C ) :   1.3495 B( 15-C , 29-N ) :   1.9758 B( 15-C , 43-H ) :   0.9889
B( 16-C , 17-C ) :   1.3482 B( 16-C , 18-H ) :   0.9635 B( 17-C , 19-C ) :   1.3030
B( 17-C , 25-C ) :   1.0096 B( 19-C , 20-C ) :   1.3884 B( 19-C , 21-H ) :   0.9574
B( 20-C , 22-C ) :   1.3288 B( 20-C , 23-C ) :   1.0376 B( 22-C , 24-H ) :   0.9542
B( 23-C , 41-N ) :   1.0297 B( 23-C , 42-N ) :   1.0184 B( 23-C , 45-H ) :   0.9882
B( 25-C , 26-H ) :   0.9886 B( 25-C , 38-N ) :   1.9607 B( 27-C , 28-C ) :   0.9315
B( 27-C , 29-N ) :   0.9376 B( 27-C , 52-C ) :   0.9505 B( 27-C , 54-H ) :   0.9714
B( 28-C , 30-N ) :   0.9379 B( 28-C , 55-C ) :   0.9546 B( 28-C , 56-H ) :   0.9736
B( 31-C , 32-C ) :   0.9325 B( 31-C , 33-N ) :   0.9858 B( 31-C , 74-C ) :   0.9611
B( 31-C , 79-H ) :   0.9662 B( 32-C , 34-N ) :   1.0239 B( 32-C , 51-C ) :   0.9757
B( 32-C , 67-H ) :   0.9764 B( 33-N , 48-H ) :   0.9943 B( 34-N , 47-H ) :   0.9916
B( 35-C , 36-C ) :   0.9316 B( 35-C , 37-N ) :   0.9376 B( 35-C , 94-C ) :   0.9505
B( 35-C , 95-H ) :   0.9714 B( 36-C , 38-N ) :   0.9379 B( 36-C , 53-C ) :   0.9546
B( 36-C , 93-H ) :   0.9736 B( 39-C , 40-C ) :   0.9324 B( 39-C , 41-N ) :   1.0239
B( 39-C , 87-C ) :   0.9758 B( 39-C , 92-H ) :   0.9764 B( 40-C , 42-N ) :   0.9858
B( 40-C , 50-C ) :   0.9612 B( 40-C , 80-H ) :   0.9662 B( 41-N , 44-H ) :   0.9917
B( 42-N , 46-H ) :   0.9943 B( 50-C , 81-C ) :   0.9533 B( 50-C , 82-H ) :   0.9900
B( 50-C , 83-H ) :   0.9823 B( 51-C , 68-C ) :   0.9448 B( 51-C , 69-H ) :   0.9871
B( 51-C , 70-H ) :   0.9808 B( 52-C , 60-C ) :   0.9416 B( 52-C , 65-H ) :   0.9832
B( 52-C , 66-H ) :   0.9917 B( 53-C , 99-C ) :   0.9440 B( 53-C ,104-H ) :   0.9843
B( 53-C ,105-H ) :   0.9918 B( 55-C , 57-C ) :   0.9440 B( 55-C , 58-H ) :   0.9843
B( 55-C , 59-H ) :   0.9918 B( 57-C , 60-C ) :   0.9441 B( 57-C , 61-H ) :   0.9959
B( 57-C , 62-H ) :   0.9849 B( 60-C , 63-H ) :   0.9849 B( 60-C , 64-H ) :   0.9953
B( 68-C , 71-C ) :   0.9398 B( 68-C , 72-H ) :   0.9863 B( 68-C , 73-H ) :   0.9905
B( 71-C , 74-C ) :   0.9534 B( 71-C , 75-H ) :   0.9930 B( 71-C , 76-H ) :   0.9853
B( 74-C , 77-H ) :   0.9823 B( 74-C , 78-H ) :   0.9900 B( 81-C , 84-C ) :   0.9398
B( 81-C , 85-H ) :   0.9853 B( 81-C , 86-H ) :   0.9930 B( 84-C , 87-C ) :   0.9448
B( 84-C , 88-H ) :   0.9905 B( 84-C , 89-H ) :   0.9863 B( 87-C , 90-H ) :   0.9871
B( 87-C , 91-H ) :   0.9808 B( 94-C , 96-C ) :   0.9416 B( 94-C , 97-H ) :   0.9832
B( 94-C , 98-H ) :   0.9917 B( 96-C , 99-C ) :   0.9442 B( 96-C ,100-H ) :   0.9953
B( 96-C ,101-H ) :   0.9849 B( 99-C ,102-H ) :   0.9849 B( 99-C ,103-H ) :   0.9959

MP2 TOTAL ENERGY:    -2067.854691683 Eh
FINAL SINGLE POINT ENERGY     -2067.854691682842

DIPOLE MOMENT
-------------
                                X             Y             Z
Electronic contribution:    -19.92966       9.45229       9.00845
Nuclear contribution   :     21.39924     -10.14808      -9.67367
                        -----------------------------------------
Total Dipole Moment    :      1.46958      -0.69578      -0.66521
                        -----------------------------------------
Magnitude (a.u.)       :      1.75679
Magnitude (Debye)      :      4.46540

Rotational constants in cm-1:     0.001692     0.001552     0.001232
Rotational constants in MHz :    50.736023    46.527348    36.921564

                             ****ORCA TERMINATED NORMALLY****
TOTAL RUN TIME: 0 days 2 hours 0 minutes 47 seconds 403 msec
