                         Program Version 4.2.1 -  RELEASE  -
|  1> ! DFT COPT B97-3c TightSCF printbasis  Grid6 NOFINALGRID SlowConv
|  2>
|  3> %base "_o_2_alde1_3_ami2_1_opt_B97-3c"
|  4> %maxcore 3000
|  5> %scf
|  6>    MaxIter 2000
|  7> end
|  8> %pal
|  9>    nprocs 32
| 10> end
| 11>
| 12> * xyzfile 0 1 o_2_alde1_3_ami2_1_opt.xyz
| 13> # * xyzfile 0 1 _o_2_alde1_3_ami2_1_opt_B97-3c.xyz
| 14>
| 15>                          ****END OF INPUT****
 Total Charge           Charge          ....    0
 Multiplicity           Mult            ....    1
 Number of Electrons    NEL             ....  268
Dispersion correction           -0.215655036
FINAL SINGLE POINT ENERGY     -1569.005415685572
Dispersion correction            ... done
Dispersion correction           -0.215653827
FINAL SINGLE POINT ENERGY     -1569.006528921510
Dispersion correction            ... done
Dispersion correction           -0.215659911
FINAL SINGLE POINT ENERGY     -1569.006904303030
Dispersion correction            ... done
FINAL SINGLE POINT ENERGY     -1569.007094419620
FINAL SINGLE POINT ENERGY     -1569.007342120249
FINAL SINGLE POINT ENERGY     -1569.007524387519
FINAL SINGLE POINT ENERGY     -1569.007686581783
FINAL SINGLE POINT ENERGY     -1569.007823195650
FINAL SINGLE POINT ENERGY     -1569.007965568455
FINAL SINGLE POINT ENERGY     -1569.008105841190
FINAL SINGLE POINT ENERGY     -1569.009218928424
FINAL SINGLE POINT ENERGY     -1569.009223766472
FINAL SINGLE POINT ENERGY     -1569.009228292759
FINAL SINGLE POINT ENERGY     -1569.009232615560
FINAL SINGLE POINT ENERGY     -1569.009237294203
FINAL SINGLE POINT ENERGY     -1569.009241573334
FINAL SINGLE POINT ENERGY     -1569.009245837977
Dispersion correction            ... done
Dispersion correction           -0.214729483
FINAL SINGLE POINT ENERGY     -1569.009250152096
Dispersion correction            ... done
Dispersion correction           -0.214723170
FINAL SINGLE POINT ENERGY     -1569.009254085651
Dispersion correction            ... done
                    ***********************HURRAY********************

CARTESIAN COORDINATES (ANGSTROEM)
---------------------------------
  C     -4.980674   -2.782380   -0.581604
  C     -4.231541   -2.623888    0.671954
  C     -5.818937   -3.880385   -0.765485
  C     -6.521513   -4.045576   -1.955968
  H     -5.925310   -4.619293    0.022135
  C     -6.385036   -3.104972   -2.976394
  C     -5.554002   -2.004006   -2.808043
  H     -6.936283   -3.255562   -3.896243
  C     -4.853628   -1.854460   -1.610473
  C     -5.400504   -1.020819   -3.889542
  H     -4.194367   -1.009184   -1.484434
  C     -7.394497   -5.214488   -2.121002
  H     -5.925626   -1.264929   -4.821358
  H     -4.351240   -3.441697    1.393862
  C      0.214852    1.034916   -0.565547
  C     -0.063123    0.166604    0.580421
  C     -0.575746    0.953817   -1.706551
  C     -0.349620    1.801174   -2.785273
  H     -1.382006    0.237673   -1.748178
  C      0.686912    2.734558   -2.719165
  C      1.491311    2.821232   -1.590533
  H      0.896580    3.388829   -3.555803
  C      1.244803    1.975651   -0.516097
  C      2.573228    3.862814   -1.491083
  H      1.861575    2.051804    0.372438
  C     -1.220723    1.738847   -3.960679
  H     -1.091629    2.539163   -4.707578
  C     -1.220780   -1.550866    1.667146
  C     -2.714022   -1.410487    2.073307
  N     -0.904671   -0.778346    0.504986
  H     -1.045868   -2.602877    1.431067
  N     -3.504257   -1.607006    0.868322
  C     -2.986722    0.022694    2.525757
  O     -8.053831   -5.465416   -3.110278
  C     -4.467252    1.002997   -4.766382
  C     -2.986234    0.853272   -5.210232
  N     -4.696192    0.017338   -3.721416
  C     -5.346726    0.882732   -6.006374
  N     -2.090725    0.826458   -4.094149
  H     -2.765883    1.659027   -5.927773
  C      3.063898    6.090251   -1.333766
  C      3.557548    5.661216   -2.736175
  N      2.070038    5.106752   -0.921338
  H      2.648213    7.094978   -1.318385
  N      3.142323    4.240299   -2.793460
  H      0.482570    0.392534    1.511082
  H      1.177863    5.312290   -1.358230
  H      3.350708    3.492789   -0.807227
  H      3.914085    3.637484   -3.044125
  H     -7.417557   -5.892268   -1.240621
  H     -0.607443   -1.292497    2.544643
  C     -2.985712   -2.380078    3.218318
  C     -4.671538    2.367226   -4.111251
  H     -2.900396   -0.100377   -5.735889
  H      3.894407    6.062357   -0.625457
  C      2.836192    6.435140   -3.833039
  H     -5.126213    1.690956   -6.701019
  H     -6.400905    0.954810   -5.741929
  H     -5.191558   -0.056140   -6.536665
  H     -2.755159   -3.410723    2.951135
  H     -4.029041   -2.332658    3.527967
  H     -2.375667   -2.121707    4.081700
  H      3.075433    6.022091   -4.811654
  H      3.114164    7.489943   -3.827310
  H      1.757021    6.361974   -3.702560
  C      5.063413    5.817992   -2.875104
  H      5.358575    6.862876   -2.782563
  H      5.409451    5.467389   -3.847770
  H      5.585435    5.252695   -2.102838
  H     -4.028485    0.132425    2.822935
  H     -2.792744    0.717826    1.713833
  H     -2.358575    0.287117    3.376072
  H     -4.422841    3.171051   -4.803474
  H     -4.048783    2.458056   -3.225902
  H     -5.710102    2.487072   -3.807096

 Multiplicity           Mult            ....    1
 Number of Electrons    NEL             ....  268
 Basis Dimension        Dim             ....  822

ORBITAL ENERGIES
----------------

  NO   OCC          E(Eh)            E(eV)
   0   2.0000     -18.736318      -509.8411
   1   2.0000     -13.981513      -380.4563
   2   2.0000     -13.975458      -380.2915
   3   2.0000     -13.974266      -380.2591
   4   2.0000     -13.973942      -380.2503
   5   2.0000     -13.973135      -380.2283
   6   2.0000     -13.972915      -380.2223
   7   2.0000      -9.973484      -271.3923
   8   2.0000      -9.949125      -270.7295
   9   2.0000      -9.933742      -270.3108
  10   2.0000      -9.932391      -270.2741
  11   2.0000      -9.932330      -270.2724
  12   2.0000      -9.930519      -270.2232
  13   2.0000      -9.929730      -270.2017
  14   2.0000      -9.928702      -270.1737
  15   2.0000      -9.928537      -270.1692
  16   2.0000      -9.917617      -269.8721
  17   2.0000      -9.916483      -269.8412
  18   2.0000      -9.915602      -269.8172
  19   2.0000      -9.914605      -269.7901
  20   2.0000      -9.911369      -269.7021
  21   2.0000      -9.910620      -269.6817
  22   2.0000      -9.910370      -269.6749
  23   2.0000      -9.909858      -269.6609
  24   2.0000      -9.901934      -269.4453
  25   2.0000      -9.901644      -269.4374
  26   2.0000      -9.901523      -269.4341
  27   2.0000      -9.900827      -269.4152
  28   2.0000      -9.900646      -269.4103
  29   2.0000      -9.896902      -269.3084
  30   2.0000      -9.888194      -269.0715
  31   2.0000      -9.887870      -269.0626
  32   2.0000      -9.885446      -268.9967
  33   2.0000      -9.883643      -268.9476
  34   2.0000      -9.878654      -268.8118
  35   2.0000      -9.875611      -268.7290
  36   2.0000      -9.874592      -268.7013
  37   2.0000      -0.959601       -26.1121
  38   2.0000      -0.891030       -24.2462
  39   2.0000      -0.863262       -23.4906
  40   2.0000      -0.861386       -23.4395
  41   2.0000      -0.844651       -22.9841
  42   2.0000      -0.840920       -22.8826
  43   2.0000      -0.803853       -21.8740
  44   2.0000      -0.792681       -21.5699
  45   2.0000      -0.787657       -21.4332
  46   2.0000      -0.742847       -20.2139
  47   2.0000      -0.736576       -20.0433
  48   2.0000      -0.727873       -19.8064
  49   2.0000      -0.709297       -19.3009
  50   2.0000      -0.702232       -19.1087
  51   2.0000      -0.695660       -18.9299
  52   2.0000      -0.689679       -18.7671
  53   2.0000      -0.637908       -17.3584
  54   2.0000      -0.635752       -17.2997
  55   2.0000      -0.633086       -17.2272
  56   2.0000      -0.632629       -17.2147
  57   2.0000      -0.631254       -17.1773
  58   2.0000      -0.619637       -16.8612
  59   2.0000      -0.604846       -16.4587
  60   2.0000      -0.597871       -16.2689
  61   2.0000      -0.586641       -15.9633
  62   2.0000      -0.582715       -15.8565
  63   2.0000      -0.568959       -15.4822
  64   2.0000      -0.560543       -15.2531
  65   2.0000      -0.530050       -14.4234
  66   2.0000      -0.520600       -14.1662
  67   2.0000      -0.516497       -14.0546
  68   2.0000      -0.505466       -13.7544
  69   2.0000      -0.501260       -13.6400
  70   2.0000      -0.493595       -13.4314
  71   2.0000      -0.474791       -12.9197
  72   2.0000      -0.468571       -12.7505
  73   2.0000      -0.463074       -12.6009
  74   2.0000      -0.458103       -12.4656
  75   2.0000      -0.451158       -12.2766
  76   2.0000      -0.446244       -12.1429
  77   2.0000      -0.439149       -11.9499
  78   2.0000      -0.431971       -11.7545
  79   2.0000      -0.429454       -11.6860
  80   2.0000      -0.424805       -11.5595
  81   2.0000      -0.419750       -11.4220
  82   2.0000      -0.413652       -11.2560
  83   2.0000      -0.408133       -11.1059
  84   2.0000      -0.406488       -11.0611
  85   2.0000      -0.402592       -10.9551
  86   2.0000      -0.400516       -10.8986
  87   2.0000      -0.397378       -10.8132
  88   2.0000      -0.393858       -10.7174
  89   2.0000      -0.389668       -10.6034
  90   2.0000      -0.388292       -10.5660
  91   2.0000      -0.381491       -10.3809
  92   2.0000      -0.377657       -10.2766
  93   2.0000      -0.375907       -10.2289
  94   2.0000      -0.372442       -10.1347
  95   2.0000      -0.371849       -10.1185
  96   2.0000      -0.366072        -9.9613
  97   2.0000      -0.357362        -9.7243
  98   2.0000      -0.353846        -9.6286
  99   2.0000      -0.350860        -9.5474
 100   2.0000      -0.349015        -9.4972
 101   2.0000      -0.346156        -9.4194
 102   2.0000      -0.344445        -9.3728
 103   2.0000      -0.342867        -9.3299
 104   2.0000      -0.338126        -9.2009
 105   2.0000      -0.335170        -9.1204
 106   2.0000      -0.332848        -9.0573
 107   2.0000      -0.328900        -8.9498
 108   2.0000      -0.328435        -8.9372
 109   2.0000      -0.324395        -8.8272
 110   2.0000      -0.320793        -8.7292
 111   2.0000      -0.319881        -8.7044
 112   2.0000      -0.318602        -8.6696
 113   2.0000      -0.315436        -8.5835
 114   2.0000      -0.313410        -8.5283
 115   2.0000      -0.306390        -8.3373
 116   2.0000      -0.303366        -8.2550
 117   2.0000      -0.301137        -8.1944
 118   2.0000      -0.294713        -8.0196
 119   2.0000      -0.293152        -7.9771
 120   2.0000      -0.286196        -7.7878
 121   2.0000      -0.280015        -7.6196
 122   2.0000      -0.263769        -7.1775
 123   2.0000      -0.228224        -6.2103
 124   2.0000      -0.225947        -6.1483
 125   2.0000      -0.219156        -5.9635
 126   2.0000      -0.218235        -5.9385
 127   2.0000      -0.216378        -5.8879
 128   2.0000      -0.214777        -5.8444
 129   2.0000      -0.213104        -5.7988
 130   2.0000      -0.204172        -5.5558
 131   2.0000      -0.196056        -5.3350
 132   2.0000      -0.195121        -5.3095
 133   2.0000      -0.189781        -5.1642
 134   0.0000      -0.098501        -2.6803
 135   0.0000      -0.079788        -2.1711
 136   0.0000      -0.073410        -1.9976
 137   0.0000      -0.071882        -1.9560
 138   0.0000      -0.056618        -1.5406

MULLIKEN ATOMIC CHARGES
-----------------------
   0 C :    0.243056
   1 C :   -0.414330
   2 C :   -0.157302
   3 C :    0.161298
   4 H :    0.215260
   5 C :   -0.167475
   6 C :    0.326272
   7 H :    0.223677
   8 C :   -0.135739
   9 C :   -0.403318
  10 H :    0.265055
  11 C :   -0.157594
  12 H :    0.123868
  13 H :    0.115945
  14 C :    0.292583
  15 C :   -0.424906
  16 C :   -0.127870
  17 C :    0.363152
  18 H :    0.269328
  19 C :   -0.195810
  20 C :    0.309403
  21 H :    0.205712
  22 C :   -0.255039
  23 C :   -0.648532
  24 H :    0.192776
  25 C :   -0.435284
  26 H :    0.093286
  27 C :   -0.271964
  28 C :   -0.118333
  29 N :   -0.003095
  30 H :    0.171125
  31 N :   -0.012394
  32 C :   -0.478415
  33 O :   -0.312399
  34 C :   -0.117491
  35 C :   -0.275515
  36 N :   -0.015344
  37 C :   -0.512019
  38 N :   -0.001150
  39 H :    0.123537
  40 C :   -0.305012
  41 C :    0.008006
  42 N :   -0.261033
  43 H :    0.195593
  44 N :   -0.269341
  45 H :    0.092581
  46 H :    0.302553
  47 H :    0.161170
  48 H :    0.304142
  49 H :    0.099810
  50 H :    0.122994
  51 C :   -0.513721
  52 C :   -0.479070
  53 H :    0.172383
  54 H :    0.162041
  55 C :   -0.437261
  56 H :    0.183852
  57 H :    0.189477
  58 H :    0.176674
  59 H :    0.175360
  60 H :    0.187947
  61 H :    0.185028
  62 H :    0.160828
  63 H :    0.156342
  64 H :    0.154177
  65 C :   -0.545296
  66 H :    0.171845
  67 H :    0.177493
  68 H :    0.174333
  69 H :    0.168293
  70 H :    0.201790
  71 H :    0.151842
  72 H :    0.150660
  73 H :    0.200597
  74 H :    0.168910
Sum of atomic charges:   -0.0000000

LOEWDIN ATOMIC CHARGES
----------------------
   0 C :   -0.078754
   1 C :   -0.037643
   2 C :   -0.118353
   3 C :   -0.072385
   4 H :    0.171722
   5 C :   -0.087902
   6 C :   -0.074837
   7 H :    0.189862
   8 C :   -0.068157
   9 C :   -0.035922
  10 H :    0.203881
  11 C :    0.208407
  12 H :    0.144627
  13 H :    0.141778
  14 C :   -0.082866
  15 C :   -0.037160
  16 C :   -0.092999
  17 C :   -0.083336
  18 H :    0.200398
  19 C :   -0.134114
  20 C :   -0.077006
  21 H :    0.180700
  22 C :   -0.126284
  23 C :   -0.029615
  24 H :    0.171115
  25 C :   -0.037574
  26 H :    0.134556
  27 C :   -0.189367
  28 C :   -0.101828
  29 N :   -0.175799
  30 H :    0.160982
  31 N :   -0.146904
  32 C :   -0.410658
  33 O :   -0.470528
  34 C :   -0.102039
  35 C :   -0.189355
  36 N :   -0.147377
  37 C :   -0.426272
  38 N :   -0.175825
  39 H :    0.139712
  40 C :   -0.198908
  41 C :   -0.108226
  42 N :   -0.348250
  43 H :    0.160953
  44 N :   -0.354144
  45 H :    0.134402
  46 H :    0.267945
  47 H :    0.143178
  48 H :    0.268096
  49 H :    0.149038
  50 H :    0.139724
  51 C :   -0.426753
  52 C :   -0.411414
  53 H :    0.161380
  54 H :    0.154693
  55 C :   -0.416986
  56 H :    0.164228
  57 H :    0.162919
  58 H :    0.157250
  59 H :    0.156664
  60 H :    0.162200
  61 H :    0.164564
  62 H :    0.156948
  63 H :    0.151559
  64 H :    0.151088
  65 C :   -0.420573
  66 H :    0.161610
  67 H :    0.157232
  68 H :    0.154248
  69 H :    0.159497
  70 H :    0.170414
  71 H :    0.154772
  72 H :    0.154273
  73 H :    0.169837
  74 H :    0.159663

  Mayer bond orders larger than 0.100000
B(  0-C ,  1-C ) :   0.9035 B(  0-C ,  2-C ) :   1.2526 B(  0-C ,  3-C ) :   0.1102
B(  0-C ,  6-C ) :   0.1916 B(  0-C ,  8-C ) :   1.2823 B(  0-C , 31-N ) :  -0.1924
B(  1-C , 13-H ) :   0.9202 B(  1-C , 31-N ) :   2.0301 B(  2-C ,  3-C ) :   1.2936
B(  2-C ,  4-H ) :   0.8586 B(  3-C ,  5-C ) :   1.2889 B(  3-C ,  6-C ) :   0.1163
B(  3-C , 11-C ) :   0.8984 B(  3-C , 33-O ) :  -0.1621 B(  3-C , 49-H ) :  -0.1012
B(  5-C ,  6-C ) :   1.0833 B(  5-C ,  7-H ) :   0.9036 B(  6-C ,  8-C ) :   1.2306
B(  6-C ,  9-C ) :   0.9196 B(  6-C , 36-N ) :  -0.1834 B(  8-C , 10-H ) :   0.9076
B(  9-C , 12-H ) :   0.9162 B(  9-C , 36-N ) :   2.0215 B( 11-C , 33-O ) :   2.0703
B( 11-C , 49-H ) :   0.9580 B( 14-C , 15-C ) :   0.9133 B( 14-C , 16-C ) :   1.2734
B( 14-C , 17-C ) :   0.1582 B( 14-C , 20-C ) :   0.1160 B( 14-C , 22-C ) :   1.1981
B( 14-C , 29-N ) :  -0.2325 B( 15-C , 29-N ) :   2.0277 B( 15-C , 45-H ) :   0.9184
B( 16-C , 17-C ) :   1.2700 B( 16-C , 18-H ) :   0.8960 B( 16-C , 29-N ) :   0.1023
B( 16-C , 38-N ) :   0.1020 B( 17-C , 19-C ) :   1.1038 B( 17-C , 20-C ) :   0.1151
B( 17-C , 25-C ) :   0.9028 B( 17-C , 38-N ) :  -0.2322 B( 19-C , 20-C ) :   1.3714
B( 19-C , 21-H ) :   0.8977 B( 20-C , 22-C ) :   1.3644 B( 20-C , 23-C ) :   0.6403
B( 20-C , 42-N ) :  -0.1163 B( 22-C , 24-H ) :   0.9000 B( 23-C , 42-N ) :   1.2240
B( 23-C , 44-N ) :   0.9756 B( 23-C , 47-H ) :   0.9605 B( 25-C , 26-H ) :   0.9250
B( 25-C , 38-N ) :   2.0294 B( 27-C , 28-C ) :   0.9211 B( 27-C , 29-N ) :   1.0052
B( 27-C , 30-H ) :   0.9240 B( 27-C , 50-H ) :   0.9257 B( 28-C , 31-N ) :   0.9485
B( 28-C , 32-C ) :   0.9674 B( 28-C , 51-C ) :   0.9568 B( 32-C , 69-H ) :   0.9478
B( 32-C , 70-H ) :   0.9618 B( 32-C , 71-H ) :   0.9562 B( 34-C , 35-C ) :   0.9220
B( 34-C , 36-N ) :   0.9452 B( 34-C , 37-C ) :   0.9603 B( 34-C , 52-C ) :   0.9648
B( 35-C , 38-N ) :   1.0024 B( 35-C , 39-H ) :   0.9255 B( 35-C , 53-H ) :   0.9237
B( 37-C , 56-H ) :   0.9411 B( 37-C , 57-H ) :   0.9594 B( 37-C , 58-H ) :   0.9499
B( 40-C , 41-C ) :   0.8889 B( 40-C , 42-N ) :   1.0212 B( 40-C , 43-H ) :   0.9510
B( 40-C , 54-H ) :   0.9343 B( 41-C , 44-N ) :   1.0765 B( 41-C , 55-C ) :   0.9638
B( 41-C , 65-C ) :   1.0113 B( 42-N , 46-H ) :   0.8425 B( 44-N , 48-H ) :   0.8623
B( 44-N , 55-C ) :  -0.1419 B( 51-C , 59-H ) :   0.9507 B( 51-C , 60-H ) :   0.9595
B( 51-C , 61-H ) :   0.9411 B( 52-C , 72-H ) :   0.9567 B( 52-C , 73-H ) :   0.9626
B( 52-C , 74-H ) :   0.9481 B( 55-C , 62-H ) :   0.9542 B( 55-C , 63-H ) :   0.9530
B( 55-C , 64-H ) :   0.9532 B( 65-C , 66-H ) :   0.9558 B( 65-C , 67-H ) :   0.9580
B( 65-C , 68-H ) :   0.9520

Dispersion correction           -0.214716153
FINAL SINGLE POINT ENERGY     -1569.009257911544

DIPOLE MOMENT
-------------
                                X             Y             Z
Electronic contribution:    -20.65409     -31.34036      -0.48469
Nuclear contribution   :     22.26852      32.66954       0.99488
                        -----------------------------------------
Total Dipole Moment    :      1.61443       1.32919       0.51019
                        -----------------------------------------
Magnitude (a.u.)       :      2.15253
Magnitude (Debye)      :      5.47130

Rotational constants in cm-1:     0.005223     0.001546     0.001248
Rotational constants in MHz :   156.595110    46.355984    37.400216

                             ****ORCA TERMINATED NORMALLY****
TOTAL RUN TIME: 0 days 1 hours 0 minutes 52 seconds 99 msec
