                         Program Version 4.2.1 -  RELEASE  -
|  1> ! RI-MP2 cc-pVTZ cc-pVTZ/C TIGHTSCF printbasis Grid6 NOFINALGRID SlowConv
|  2>
|  3> %base "_o_2_alde1_4_ami4_1_opt_MP2"
|  4> %maxcore 3000
|  5> %pal
|  6>    nprocs 32
|  7> end
|  8>
|  9> * xyzfile 0 1 _o_2_alde1_4_ami4_1_opt_B97-3c.xyz
| 10>
| 11>                          ****END OF INPUT****

CARTESIAN COORDINATES (ANGSTROEM)
---------------------------------
  C     -2.332198   -2.131194   -1.391042
  C     -1.702946   -1.689340   -0.144652
  C     -2.381570   -3.489856   -1.726608
  C     -2.962193   -3.905432   -2.911964
  H     -1.973035   -4.218919   -1.043686
  C     -3.471158   -2.950639   -3.789196
  C     -3.416326   -1.593526   -3.482813
  H     -3.917572   -3.282140   -4.717494
  C     -2.858588   -1.190568   -2.266255
  C     -3.874994   -0.620892   -4.473038
  H     -2.816916   -0.134478   -2.035583
  C     -2.993228   -5.375839   -3.282529
  H     -4.278294   -1.048773   -5.404252
  H     -1.885462   -0.644049    0.136959
  C      0.795342    0.892272   -1.428898
  C      1.049102   -0.301979   -0.624830
  C      0.224462    0.740751   -2.687678
  C     -0.225447    1.848458   -3.401099
  H      0.045672   -0.254094   -3.078166
  C     -0.018825    3.125921   -2.882379
  C      0.603929    3.295132   -1.649980
  H     -0.362966    3.981523   -3.444602
  C      0.994470    2.175431   -0.921893
  C      0.843247    4.670569   -1.099453
  H      1.445236    2.289160    0.052800
  C     -1.024937    1.604370   -4.595188
  H     -0.975106    0.574121   -4.975075
  C      1.128225   -1.510064    1.361850
  C     -0.313535   -1.918976    1.717885
  N      1.095277   -0.260720    0.645318
  N     -0.972360   -2.459901    0.556234
  C     -4.478397   -6.292319   -1.765145
  C     -5.227973   -5.931756   -3.083303
  N     -3.046465   -6.215027   -2.081589
  N     -4.184488   -5.681781   -4.087232
  C     -4.054236    1.523451   -5.393740
  C     -2.741044    1.941750   -6.084868
  N     -3.762871    0.631276   -4.300704
  N     -1.815631    2.457935   -5.105833
  C      0.636855    6.127384    0.679834
  C     -0.000850    6.756462   -0.597725
  N      0.852743    4.711630    0.368722
  N     -0.130427    5.664382   -1.566179
  H      1.118426   -1.247198   -1.179231
  H      0.053190    4.175130    0.689829
  H      1.828596    5.022750   -1.427130
  H     -1.052600    5.249235   -1.478426
  H     -4.000657   -6.538930   -4.593479
  H     -2.707301   -7.135858   -2.327854
  H     -2.095477   -5.613583   -3.855863
  H      0.653238    7.529132   -1.001404
  H     -0.970604    7.212662   -0.411527
  H      0.009984    6.227175    1.563354
  H      1.591078    6.606212    0.898872
  H     -5.821651   -5.029725   -2.944574
  H     -5.897295   -6.717898   -3.425127
  H     -4.719127   -5.572720   -0.984281
  H     -4.726919   -7.282121   -1.388971
  H     -0.825034   -1.045482    2.138601
  H     -0.270679   -2.694713    2.482060
  H      1.591681   -2.326364    0.795970
  H      1.683286   -1.370644    2.288693
  H     -2.967764    2.709620   -6.824533
  H     -2.345767    1.062366   -6.612261
  H     -4.705971    1.076899   -6.157171
  H     -4.544409    2.411647   -4.996471

 Total Charge           Charge          ....    0
 Multiplicity           Mult            ....    1
 Number of Electrons    NEL             ....  244
 Basis Dimension        Dim             .... 1468

ORBITAL ENERGIES
----------------

  NO   OCC          E(Eh)            E(eV)
   0   2.0000     -15.552027      -423.1922
   1   2.0000     -15.549946      -423.1355
   2   2.0000     -15.549642      -423.1273
   3   2.0000     -15.547884      -423.0794
   4   2.0000     -15.547023      -423.0560
   5   2.0000     -15.542607      -422.9358
   6   2.0000     -15.538937      -422.8360
   7   2.0000     -15.538880      -422.8344
   8   2.0000     -11.292125      -307.2743
   9   2.0000     -11.279171      -306.9218
  10   2.0000     -11.278248      -306.8967
  11   2.0000     -11.274430      -306.7928
  12   2.0000     -11.273523      -306.7682
  13   2.0000     -11.270152      -306.6764
  14   2.0000     -11.252734      -306.2025
  15   2.0000     -11.251539      -306.1700
  16   2.0000     -11.249688      -306.1196
  17   2.0000     -11.248168      -306.0782
  18   2.0000     -11.245664      -306.0101
  19   2.0000     -11.245018      -305.9925
  20   2.0000     -11.243564      -305.9529
  21   2.0000     -11.243021      -305.9381
  22   2.0000     -11.240144      -305.8599
  23   2.0000     -11.238598      -305.8178
  24   2.0000     -11.238222      -305.8076
  25   2.0000     -11.237795      -305.7960
  26   2.0000     -11.237010      -305.7746
  27   2.0000     -11.236864      -305.7706
  28   2.0000     -11.236516      -305.7612
  29   2.0000     -11.235697      -305.7389
  30   2.0000     -11.235683      -305.7385
  31   2.0000     -11.230324      -305.5926
  32   2.0000     -11.230272      -305.5912
  33   2.0000     -11.230100      -305.5866
  34   2.0000      -1.280037       -34.8316
  35   2.0000      -1.269116       -34.5344
  36   2.0000      -1.247560       -33.9478
  37   2.0000      -1.245152       -33.8823
  38   2.0000      -1.220447       -33.2100
  39   2.0000      -1.215792       -33.0834
  40   2.0000      -1.161569       -31.6079
  41   2.0000      -1.154585       -31.4178
  42   2.0000      -1.146831       -31.2069
  43   2.0000      -1.135963       -30.9111
  44   2.0000      -1.061918       -28.8963
  45   2.0000      -1.057662       -28.7804
  46   2.0000      -1.050191       -28.5772
  47   2.0000      -1.038778       -28.2666
  48   2.0000      -1.004103       -27.3230
  49   2.0000      -0.987329       -26.8666
  50   2.0000      -0.980347       -26.6766
  51   2.0000      -0.973559       -26.4919
  52   2.0000      -0.902319       -24.5533
  53   2.0000      -0.901019       -24.5180
  54   2.0000      -0.877404       -23.8754
  55   2.0000      -0.868708       -23.6387
  56   2.0000      -0.864574       -23.5263
  57   2.0000      -0.832676       -22.6583
  58   2.0000      -0.827307       -22.5122
  59   2.0000      -0.820653       -22.3311
  60   2.0000      -0.812619       -22.1125
  61   2.0000      -0.794895       -21.6302
  62   2.0000      -0.783695       -21.3254
  63   2.0000      -0.759435       -20.6653
  64   2.0000      -0.739740       -20.1294
  65   2.0000      -0.734074       -19.9752
  66   2.0000      -0.720016       -19.5926
  67   2.0000      -0.704985       -19.1836
  68   2.0000      -0.696954       -18.9651
  69   2.0000      -0.679602       -18.4929
  70   2.0000      -0.671293       -18.2668
  71   2.0000      -0.669532       -18.2189
  72   2.0000      -0.654580       -17.8120
  73   2.0000      -0.652168       -17.7464
  74   2.0000      -0.644804       -17.5460
  75   2.0000      -0.639600       -17.4044
  76   2.0000      -0.635891       -17.3035
  77   2.0000      -0.633856       -17.2481
  78   2.0000      -0.629718       -17.1355
  79   2.0000      -0.622139       -16.9293
  80   2.0000      -0.610075       -16.6010
  81   2.0000      -0.604413       -16.4469
  82   2.0000      -0.602803       -16.4031
  83   2.0000      -0.600897       -16.3512
  84   2.0000      -0.594993       -16.1906
  85   2.0000      -0.593441       -16.1483
  86   2.0000      -0.589701       -16.0466
  87   2.0000      -0.576424       -15.6853
  88   2.0000      -0.548164       -14.9163
  89   2.0000      -0.544874       -14.8268
  90   2.0000      -0.543678       -14.7942
  91   2.0000      -0.541528       -14.7357
  92   2.0000      -0.536139       -14.5891
  93   2.0000      -0.531187       -14.4543
  94   2.0000      -0.528784       -14.3889
  95   2.0000      -0.527416       -14.3517
  96   2.0000      -0.519916       -14.1476
  97   2.0000      -0.516501       -14.0547
  98   2.0000      -0.509228       -13.8568
  99   2.0000      -0.500896       -13.6301
 100   2.0000      -0.494308       -13.4508
 101   2.0000      -0.493387       -13.4257
 102   2.0000      -0.486926       -13.2499
 103   2.0000      -0.483288       -13.1509
 104   2.0000      -0.480682       -13.0800
 105   2.0000      -0.479417       -13.0456
 106   2.0000      -0.457110       -12.4386
 107   2.0000      -0.439314       -11.9543
 108   2.0000      -0.423360       -11.5202
 109   2.0000      -0.412495       -11.2246
 110   2.0000      -0.408729       -11.1221
 111   2.0000      -0.401521       -10.9259
 112   2.0000      -0.399711       -10.8767
 113   2.0000      -0.397381       -10.8133
 114   2.0000      -0.395327       -10.7574
 115   2.0000      -0.388326       -10.5669
 116   2.0000      -0.385121       -10.4797
 117   2.0000      -0.374995       -10.2041
 118   2.0000      -0.328524        -8.9396
 119   2.0000      -0.324824        -8.8389
 120   2.0000      -0.317424        -8.6375
 121   2.0000      -0.308646        -8.3987
 122   0.0000       0.078118         2.1257
 123   0.0000       0.079326         2.1586
 124   0.0000       0.094706         2.5771
 125   0.0000       0.112640         3.0651
 126   0.0000       0.118428         3.2226

MULLIKEN ATOMIC CHARGES
-----------------------
   0 C :    0.172588
   1 C :   -0.125279
   2 C :   -0.212788
   3 C :    0.017806
   4 H :    0.186012
   5 C :   -0.241195
   6 C :    0.187467
   7 H :    0.161857
   8 C :   -0.250891
   9 C :   -0.106037
  10 H :    0.180106
  11 C :    0.090708
  12 H :    0.091829
  13 H :    0.124285
  14 C :    0.184904
  15 C :   -0.135629
  16 C :   -0.273781
  17 C :    0.189455
  18 H :    0.155681
  19 C :   -0.219629
  20 C :    0.001994
  21 H :    0.180883
  22 C :   -0.220180
  23 C :    0.165700
  24 H :    0.181851
  25 C :   -0.065401
  26 H :    0.086738
  27 C :   -0.050316
  28 C :   -0.051609
  29 N :   -0.247499
  30 N :   -0.249578
  31 C :   -0.124261
  32 C :   -0.122772
  33 N :   -0.251919
  34 N :   -0.261547
  35 C :   -0.044385
  36 C :   -0.063103
  37 N :   -0.248730
  38 N :   -0.249234
  39 C :   -0.120615
  40 C :   -0.121603
  41 N :   -0.279903
  42 N :   -0.279860
  43 H :    0.121956
  44 H :    0.102150
  45 H :    0.095326
  46 H :    0.103100
  47 H :    0.097850
  48 H :    0.097277
  49 H :    0.116931
  50 H :    0.097995
  51 H :    0.101872
  52 H :    0.100831
  53 H :    0.097900
  54 H :    0.098983
  55 H :    0.111206
  56 H :    0.101450
  57 H :    0.110728
  58 H :    0.071833
  59 H :    0.106981
  60 H :    0.073357
  61 H :    0.107202
  62 H :    0.109571
  63 H :    0.060984
  64 H :    0.069370
  65 H :    0.103027
Sum of atomic charges:   -0.0000000

LOEWDIN ATOMIC CHARGES
----------------------
   0 C :   -0.079755
   1 C :   -0.069544
   2 C :    0.086613
   3 C :   -0.050361
   4 H :   -0.021533
   5 C :    0.066026
   6 C :   -0.083347
   7 H :   -0.024685
   8 C :    0.081434
   9 C :   -0.078885
  10 H :   -0.020158
  11 C :   -0.147248
  12 H :   -0.035960
  13 H :   -0.033222
  14 C :   -0.079297
  15 C :   -0.071169
  16 C :    0.063060
  17 C :   -0.073157
  18 H :   -0.023019
  19 C :    0.085768
  20 C :   -0.046985
  21 H :   -0.017397
  22 C :    0.082069
  23 C :   -0.158717
  24 H :   -0.018643
  25 C :   -0.072468
  26 H :   -0.037350
  27 C :   -0.037303
  28 C :   -0.037792
  29 N :    0.209173
  30 N :    0.210034
  31 C :    0.002166
  32 C :    0.001003
  33 N :    0.307178
  34 N :    0.301030
  35 C :   -0.036210
  36 C :   -0.040376
  37 N :    0.220527
  38 N :    0.207027
  39 C :   -0.001963
  40 C :   -0.001987
  41 N :    0.294415
  42 N :    0.294917
  43 H :   -0.034696
  44 H :   -0.114852
  45 H :   -0.018503
  46 H :   -0.114072
  47 H :   -0.119546
  48 H :   -0.119404
  49 H :   -0.024662
  50 H :   -0.035883
  51 H :   -0.038532
  52 H :   -0.038839
  53 H :   -0.036104
  54 H :   -0.035296
  55 H :   -0.038405
  56 H :   -0.034358
  57 H :   -0.038253
  58 H :   -0.036972
  59 H :   -0.029609
  60 H :   -0.036962
  61 H :   -0.029547
  62 H :   -0.029847
  63 H :   -0.041810
  64 H :   -0.038502
  65 H :   -0.029251

  Mayer bond orders larger than 0.100000
B(  0-C ,  1-C ) :   0.9923 B(  0-C ,  2-C ) :   1.2815 B(  0-C ,  8-C ) :   1.3649
B(  1-C , 13-H ) :   0.9868 B(  1-C , 30-N ) :   1.9672 B(  2-C ,  3-C ) :   1.3913
B(  2-C ,  4-H ) :   0.9412 B(  3-C ,  5-C ) :   1.3365 B(  3-C , 11-C ) :   1.0098
B(  5-C ,  6-C ) :   1.3662 B(  5-C ,  7-H ) :   0.9561 B(  6-C ,  8-C ) :   1.3025
B(  6-C ,  9-C ) :   0.9957 B(  8-C , 10-H ) :   0.9554 B(  9-C , 12-H ) :   0.9910
B(  9-C , 37-N ) :   1.9753 B( 11-C , 33-N ) :   1.0254 B( 11-C , 34-N ) :   1.0180
B( 11-C , 49-H ) :   0.9872 B( 14-C , 15-C ) :   0.9893 B( 14-C , 16-C ) :   1.3368
B( 14-C , 22-C ) :   1.3197 B( 15-C , 29-N ) :   1.9615 B( 15-C , 43-H ) :   0.9864
B( 16-C , 17-C ) :   1.3394 B( 16-C , 18-H ) :   0.9743 B( 17-C , 19-C ) :   1.3226
B( 17-C , 25-C ) :   0.9960 B( 19-C , 20-C ) :   1.3675 B( 19-C , 21-H ) :   0.9515
B( 20-C , 22-C ) :   1.3643 B( 20-C , 23-C ) :   1.0616 B( 22-C , 24-H ) :   0.9497
B( 23-C , 41-N ) :   1.0436 B( 23-C , 42-N ) :   1.0454 B( 23-C , 45-H ) :   0.9462
B( 25-C , 26-H ) :   0.9850 B( 25-C , 38-N ) :   1.9674 B( 27-C , 28-C ) :   0.9237
B( 27-C , 29-N ) :   0.9677 B( 27-C , 60-H ) :   0.9730 B( 27-C , 61-H ) :   0.9868
B( 28-C , 30-N ) :   0.9693 B( 28-C , 58-H ) :   0.9720 B( 28-C , 59-H ) :   0.9862
B( 31-C , 32-C ) :   0.9092 B( 31-C , 33-N ) :   0.9885 B( 31-C , 56-H ) :   0.9849
B( 31-C , 57-H ) :   0.9913 B( 32-C , 34-N ) :   0.9867 B( 32-C , 54-H ) :   0.9854
B( 32-C , 55-H ) :   0.9913 B( 33-N , 48-H ) :   0.9955 B( 34-N , 47-H ) :   0.9958
B( 35-C , 36-C ) :   0.9332 B( 35-C , 37-N ) :   0.9721 B( 35-C , 64-H ) :   0.9837
B( 35-C , 65-H ) :   0.9792 B( 36-C , 38-N ) :   0.9777 B( 36-C , 62-H ) :   0.9861
B( 36-C , 63-H ) :   0.9753 B( 39-C , 40-C ) :   0.9118 B( 39-C , 41-N ) :   0.9998
B( 39-C , 52-H ) :   0.9920 B( 39-C , 53-H ) :   0.9926 B( 40-C , 42-N ) :   1.0001
B( 40-C , 50-H ) :   0.9928 B( 40-C , 51-H ) :   0.9919 B( 41-N , 44-H ) :   0.9824
B( 42-N , 46-H ) :   0.9824

MP2 TOTAL ENERGY:    -1445.004876017 Eh
FINAL SINGLE POINT ENERGY     -1445.004876017414

DIPOLE MOMENT
-------------
                                X             Y             Z
Electronic contribution:      5.02449      -0.80081      -3.87076
Nuclear contribution   :     -6.07117      -0.87858       3.35606
                        -----------------------------------------
Total Dipole Moment    :     -1.04668      -1.67939      -0.51470
                        -----------------------------------------
Magnitude (a.u.)       :      2.04470
Magnitude (Debye)      :      5.19721

Rotational constants in cm-1:     0.006198     0.002245     0.001764
Rotational constants in MHz :   185.804283    67.296755    52.886580

                             ****ORCA TERMINATED NORMALLY****
TOTAL RUN TIME: 0 days 0 hours 33 minutes 31 seconds 31 msec
