                         Program Version 4.2.1 -  RELEASE  -
|  1> ! DFT COPT B97-3c TightSCF printbasis  Grid6 NOFINALGRID SlowConv
|  2>
|  3> %base "_o_2_alde1_4_ami4_1_opt_B97-3c"
|  4> %maxcore 3000
|  5> %scf
|  6>    MaxIter 2000
|  7> end
|  8> %pal
|  9>    nprocs 32
| 10> end
| 11>
| 12> * xyzfile 0 1 o_2_alde1_4_ami4_1_opt.xyz
| 13> # * xyzfile 0 1 _o_2_alde1_4_ami4_1_opt_B97-3c.xyz
| 14>
| 15>                          ****END OF INPUT****
 Total Charge           Charge          ....    0
 Multiplicity           Mult            ....    1
 Number of Electrons    NEL             ....  244
Dispersion correction           -0.198565473
FINAL SINGLE POINT ENERGY     -1447.261456295869
Dispersion correction            ... done
Dispersion correction           -0.198497783
FINAL SINGLE POINT ENERGY     -1447.262448051715
Dispersion correction            ... done
Dispersion correction           -0.198445403
FINAL SINGLE POINT ENERGY     -1447.262934292480
Dispersion correction            ... done
FINAL SINGLE POINT ENERGY     -1447.263390218955
FINAL SINGLE POINT ENERGY     -1447.263711099911
FINAL SINGLE POINT ENERGY     -1447.264004662036
FINAL SINGLE POINT ENERGY     -1447.264228797019
FINAL SINGLE POINT ENERGY     -1447.264402937874
FINAL SINGLE POINT ENERGY     -1447.264547772272
FINAL SINGLE POINT ENERGY     -1447.264677386263
FINAL SINGLE POINT ENERGY     -1447.266587263238
FINAL SINGLE POINT ENERGY     -1447.266591134888
FINAL SINGLE POINT ENERGY     -1447.266594721946
FINAL SINGLE POINT ENERGY     -1447.266597922150
FINAL SINGLE POINT ENERGY     -1447.266600873453
FINAL SINGLE POINT ENERGY     -1447.266604411145
FINAL SINGLE POINT ENERGY     -1447.266608539297
Dispersion correction            ... done
Dispersion correction           -0.195184576
FINAL SINGLE POINT ENERGY     -1447.266612401180
Dispersion correction            ... done
Dispersion correction           -0.195169681
FINAL SINGLE POINT ENERGY     -1447.266615456029
Dispersion correction            ... done
                    ***********************HURRAY********************

CARTESIAN COORDINATES (ANGSTROEM)
---------------------------------
  C     -2.332198   -2.131194   -1.391042
  C     -1.702946   -1.689340   -0.144652
  C     -2.381570   -3.489856   -1.726608
  C     -2.962193   -3.905432   -2.911964
  H     -1.973035   -4.218919   -1.043686
  C     -3.471158   -2.950639   -3.789196
  C     -3.416326   -1.593526   -3.482813
  H     -3.917572   -3.282140   -4.717494
  C     -2.858588   -1.190568   -2.266255
  C     -3.874994   -0.620892   -4.473038
  H     -2.816916   -0.134478   -2.035583
  C     -2.993228   -5.375839   -3.282529
  H     -4.278294   -1.048773   -5.404252
  H     -1.885462   -0.644049    0.136959
  C      0.795342    0.892272   -1.428898
  C      1.049102   -0.301979   -0.624830
  C      0.224462    0.740751   -2.687678
  C     -0.225447    1.848458   -3.401099
  H      0.045672   -0.254094   -3.078166
  C     -0.018825    3.125921   -2.882379
  C      0.603929    3.295132   -1.649980
  H     -0.362966    3.981523   -3.444602
  C      0.994470    2.175431   -0.921893
  C      0.843247    4.670569   -1.099453
  H      1.445236    2.289160    0.052800
  C     -1.024937    1.604370   -4.595188
  H     -0.975106    0.574121   -4.975075
  C      1.128225   -1.510064    1.361850
  C     -0.313535   -1.918976    1.717885
  N      1.095277   -0.260720    0.645318
  N     -0.972360   -2.459901    0.556234
  C     -4.478397   -6.292319   -1.765145
  C     -5.227973   -5.931756   -3.083303
  N     -3.046465   -6.215027   -2.081589
  N     -4.184488   -5.681781   -4.087232
  C     -4.054236    1.523451   -5.393740
  C     -2.741044    1.941750   -6.084868
  N     -3.762871    0.631276   -4.300704
  N     -1.815631    2.457935   -5.105833
  C      0.636855    6.127384    0.679834
  C     -0.000850    6.756462   -0.597725
  N      0.852743    4.711630    0.368722
  N     -0.130427    5.664382   -1.566179
  H      1.118426   -1.247198   -1.179231
  H      0.053190    4.175130    0.689829
  H      1.828596    5.022750   -1.427130
  H     -1.052600    5.249235   -1.478426
  H     -4.000657   -6.538930   -4.593479
  H     -2.707301   -7.135858   -2.327854
  H     -2.095477   -5.613583   -3.855863
  H      0.653238    7.529132   -1.001404
  H     -0.970604    7.212662   -0.411527
  H      0.009984    6.227175    1.563354
  H      1.591078    6.606212    0.898872
  H     -5.821651   -5.029725   -2.944574
  H     -5.897295   -6.717898   -3.425127
  H     -4.719127   -5.572720   -0.984281
  H     -4.726919   -7.282121   -1.388971
  H     -0.825034   -1.045482    2.138601
  H     -0.270679   -2.694713    2.482060
  H      1.591681   -2.326364    0.795970
  H      1.683286   -1.370644    2.288693
  H     -2.967764    2.709620   -6.824533
  H     -2.345767    1.062366   -6.612261
  H     -4.705971    1.076899   -6.157171
  H     -4.544409    2.411647   -4.996471

 Multiplicity           Mult            ....    1
 Number of Electrons    NEL             ....  244
 Basis Dimension        Dim             ....  742

ORBITAL ENERGIES
----------------

  NO   OCC          E(Eh)            E(eV)
   0   2.0000     -13.983606      -380.5133
   1   2.0000     -13.981842      -380.4653
   2   2.0000     -13.976636      -380.3236
   3   2.0000     -13.975830      -380.3017
   4   2.0000     -13.974771      -380.2729
   5   2.0000     -13.971555      -380.1853
   6   2.0000     -13.971503      -380.1839
   7   2.0000     -13.971031      -380.1711
   8   2.0000      -9.953395      -270.8456
   9   2.0000      -9.940370      -270.4912
  10   2.0000      -9.933210      -270.2964
  11   2.0000      -9.929378      -270.1921
  12   2.0000      -9.928370      -270.1647
  13   2.0000      -9.924420      -270.0572
  14   2.0000      -9.917681      -269.8738
  15   2.0000      -9.917242      -269.8619
  16   2.0000      -9.916418      -269.8394
  17   2.0000      -9.916309      -269.8365
  18   2.0000      -9.915061      -269.8025
  19   2.0000      -9.914662      -269.7917
  20   2.0000      -9.908534      -269.6249
  21   2.0000      -9.908444      -269.6225
  22   2.0000      -9.904928      -269.5268
  23   2.0000      -9.903677      -269.4928
  24   2.0000      -9.903472      -269.4872
  25   2.0000      -9.902108      -269.4500
  26   2.0000      -9.901829      -269.4425
  27   2.0000      -9.901070      -269.4218
  28   2.0000      -9.899279      -269.3731
  29   2.0000      -9.898586      -269.3542
  30   2.0000      -9.898171      -269.3429
  31   2.0000      -9.892639      -269.1924
  32   2.0000      -9.892545      -269.1898
  33   2.0000      -9.892313      -269.1835
  34   2.0000      -0.892887       -24.2967
  35   2.0000      -0.882601       -24.0168
  36   2.0000      -0.862046       -23.4575
  37   2.0000      -0.860755       -23.4223
  38   2.0000      -0.839785       -22.8517
  39   2.0000      -0.836754       -22.7692
  40   2.0000      -0.794829       -21.6284
  41   2.0000      -0.789692       -21.4886
  42   2.0000      -0.787168       -21.4199
  43   2.0000      -0.776866       -21.1396
  44   2.0000      -0.722292       -19.6546
  45   2.0000      -0.718560       -19.5530
  46   2.0000      -0.712567       -19.3899
  47   2.0000      -0.702678       -19.1208
  48   2.0000      -0.682650       -18.5758
  49   2.0000      -0.668080       -18.1794
  50   2.0000      -0.661629       -18.0038
  51   2.0000      -0.655895       -17.8478
  52   2.0000      -0.608194       -16.5498
  53   2.0000      -0.606339       -16.4993
  54   2.0000      -0.591594       -16.0981
  55   2.0000      -0.582904       -15.8616
  56   2.0000      -0.581062       -15.8115
  57   2.0000      -0.558700       -15.2030
  58   2.0000      -0.554545       -15.0899
  59   2.0000      -0.548818       -14.9341
  60   2.0000      -0.541780       -14.7426
  61   2.0000      -0.532693       -14.4953
  62   2.0000      -0.523189       -14.2367
  63   2.0000      -0.502946       -13.6859
  64   2.0000      -0.492379       -13.3983
  65   2.0000      -0.487220       -13.2579
  66   2.0000      -0.481910       -13.1134
  67   2.0000      -0.469891       -12.7864
  68   2.0000      -0.462109       -12.5746
  69   2.0000      -0.454588       -12.3700
  70   2.0000      -0.444473       -12.0947
  71   2.0000      -0.442631       -12.0446
  72   2.0000      -0.433836       -11.8053
  73   2.0000      -0.433092       -11.7850
  74   2.0000      -0.426869       -11.6157
  75   2.0000      -0.421220       -11.4620
  76   2.0000      -0.415879       -11.3166
  77   2.0000      -0.411503       -11.1976
  78   2.0000      -0.409363       -11.1393
  79   2.0000      -0.406302       -11.0560
  80   2.0000      -0.399937       -10.8829
  81   2.0000      -0.398258       -10.8372
  82   2.0000      -0.395711       -10.7678
  83   2.0000      -0.393021       -10.6946
  84   2.0000      -0.389039       -10.5863
  85   2.0000      -0.384276       -10.4567
  86   2.0000      -0.382825       -10.4172
  87   2.0000      -0.377300       -10.2669
  88   2.0000      -0.360195        -9.8014
  89   2.0000      -0.358410        -9.7528
  90   2.0000      -0.351123        -9.5545
  91   2.0000      -0.348542        -9.4843
  92   2.0000      -0.345999        -9.4151
  93   2.0000      -0.345664        -9.4060
  94   2.0000      -0.342568        -9.3217
  95   2.0000      -0.337352        -9.1798
  96   2.0000      -0.335091        -9.1183
  97   2.0000      -0.333760        -9.0821
  98   2.0000      -0.326154        -8.8751
  99   2.0000      -0.317268        -8.6333
 100   2.0000      -0.313852        -8.5403
 101   2.0000      -0.309214        -8.4141
 102   2.0000      -0.305684        -8.3181
 103   2.0000      -0.302863        -8.2413
 104   2.0000      -0.301564        -8.2060
 105   2.0000      -0.299896        -8.1606
 106   2.0000      -0.295302        -8.0356
 107   2.0000      -0.291170        -7.9231
 108   2.0000      -0.274255        -7.4628
 109   2.0000      -0.262018        -7.1299
 110   2.0000      -0.225372        -6.1327
 111   2.0000      -0.222507        -6.0547
 112   2.0000      -0.221856        -6.0370
 113   2.0000      -0.219716        -5.9788
 114   2.0000      -0.215002        -5.8505
 115   2.0000      -0.213537        -5.8106
 116   2.0000      -0.210995        -5.7415
 117   2.0000      -0.209862        -5.7106
 118   2.0000      -0.207169        -5.6374
 119   2.0000      -0.201958        -5.4955
 120   2.0000      -0.194123        -5.2823
 121   2.0000      -0.184993        -5.0339
 122   0.0000      -0.083022        -2.2591
 123   0.0000      -0.077832        -2.1179
 124   0.0000      -0.069518        -1.8917
 125   0.0000      -0.056059        -1.5254
 126   0.0000      -0.021696        -0.5904

MULLIKEN ATOMIC CHARGES
-----------------------
   0 C :    0.357270
   1 C :   -0.411071
   2 C :   -0.121817
   3 C :    0.041123
   4 H :    0.223300
   5 C :   -0.165084
   6 C :    0.322749
   7 H :    0.211896
   8 C :   -0.201767
   9 C :   -0.428362
  10 H :    0.222000
  11 C :   -0.345709
  12 H :    0.101046
  13 H :    0.112935
  14 C :    0.330275
  15 C :   -0.402433
  16 C :   -0.206706
  17 C :    0.298618
  18 H :    0.219539
  19 C :   -0.191186
  20 C :    0.053697
  21 H :    0.229554
  22 C :   -0.176182
  23 C :   -0.420943
  24 H :    0.230957
  25 C :   -0.322353
  26 H :    0.088858
  27 C :   -0.297310
  28 C :   -0.311630
  29 N :   -0.081506
  30 N :   -0.064874
  31 C :   -0.298466
  32 C :   -0.298208
  33 N :   -0.372493
  34 N :   -0.377104
  35 C :   -0.271286
  36 C :   -0.312262
  37 N :   -0.068670
  38 N :   -0.067338
  39 C :   -0.307729
  40 C :   -0.309128
  41 N :   -0.302369
  42 N :   -0.300645
  43 H :    0.109504
  44 H :    0.298870
  45 H :    0.182456
  46 H :    0.299717
  47 H :    0.298355
  48 H :    0.299622
  49 H :    0.194425
  50 H :    0.172752
  51 H :    0.171986
  52 H :    0.170748
  53 H :    0.172119
  54 H :    0.177643
  55 H :    0.176586
  56 H :    0.179935
  57 H :    0.175000
  58 H :    0.148232
  59 H :    0.184272
  60 H :    0.150759
  61 H :    0.184877
  62 H :    0.178235
  63 H :    0.144606
  64 H :    0.142768
  65 H :    0.177348
Sum of atomic charges:   -0.0000000

LOEWDIN ATOMIC CHARGES
----------------------
   0 C :   -0.085096
   1 C :   -0.039780
   2 C :   -0.108885
   3 C :   -0.076793
   4 H :    0.194643
   5 C :   -0.126735
   6 C :   -0.087801
   7 H :    0.182624
   8 C :   -0.118154
   9 C :   -0.037946
  10 H :    0.186438
  11 C :   -0.047637
  12 H :    0.137056
  13 H :    0.147228
  14 C :   -0.083010
  15 C :   -0.041483
  16 C :   -0.131842
  17 C :   -0.077759
  18 H :    0.174577
  19 C :   -0.114810
  20 C :   -0.069231
  21 H :    0.191678
  22 C :   -0.118758
  23 C :   -0.047674
  24 H :    0.191704
  25 C :   -0.036747
  26 H :    0.138686
  27 C :   -0.208397
  28 C :   -0.208220
  29 N :   -0.201438
  30 N :   -0.200751
  31 C :   -0.223921
  32 C :   -0.224955
  33 N :   -0.369185
  34 N :   -0.373241
  35 C :   -0.208226
  36 C :   -0.208139
  37 N :   -0.196015
  38 N :   -0.195954
  39 C :   -0.226353
  40 C :   -0.226141
  41 N :   -0.375448
  42 N :   -0.374315
  43 H :    0.145989
  44 H :    0.262178
  45 H :    0.164491
  46 H :    0.262592
  47 H :    0.257821
  48 H :    0.258786
  49 H :    0.164262
  50 H :    0.148974
  51 H :    0.152083
  52 H :    0.151639
  53 H :    0.148695
  54 H :    0.154025
  55 H :    0.152735
  56 H :    0.154670
  57 H :    0.152634
  58 H :    0.146685
  59 H :    0.155559
  60 H :    0.147132
  61 H :    0.155249
  62 H :    0.153739
  63 H :    0.137312
  64 H :    0.140509
  65 H :    0.158442

  Mayer bond orders larger than 0.100000
B(  0-C ,  1-C ) :   0.9221 B(  0-C ,  2-C ) :   1.3055 B(  0-C ,  8-C ) :   1.1590
B(  0-C , 30-N ) :  -0.2729 B(  1-C , 13-H ) :   0.8981 B(  1-C , 30-N ) :   2.0617
B(  2-C ,  3-C ) :   1.3716 B(  2-C ,  4-H ) :   0.8825 B(  3-C ,  5-C ) :   1.4279
B(  3-C , 11-C ) :   0.8342 B(  5-C ,  6-C ) :   1.2344 B(  5-C ,  7-H ) :   0.8641
B(  6-C ,  8-C ) :   1.3959 B(  6-C ,  9-C ) :   0.9208 B(  6-C , 37-N ) :  -0.2762
B(  8-C , 10-H ) :   0.8786 B(  9-C , 12-H ) :   0.9150 B(  9-C , 37-N ) :   2.0786
B( 11-C , 33-N ) :   1.0764 B( 11-C , 34-N ) :   1.0543 B( 11-C , 49-H ) :   0.9367
B( 14-C , 15-C ) :   0.9196 B( 14-C , 16-C ) :   1.3096 B( 14-C , 22-C ) :   1.3121
B( 14-C , 29-N ) :  -0.2574 B( 15-C , 29-N ) :   2.0461 B( 15-C , 43-H ) :   0.8973
B( 16-C , 17-C ) :   1.2886 B( 16-C , 18-H ) :   0.8656 B( 17-C , 19-C ) :   1.3107
B( 17-C , 25-C ) :   1.0031 B( 17-C , 38-N ) :  -0.2347 B( 19-C , 20-C ) :   1.3892
B( 19-C , 21-H ) :   0.8874 B( 19-C , 38-N ) :   0.1111 B( 20-C , 22-C ) :   1.3897
B( 20-C , 23-C ) :   0.9224 B( 22-C , 24-H ) :   0.8839 B( 22-C , 29-N ) :   0.1120
B( 23-C , 41-N ) :   1.0694 B( 23-C , 42-N ) :   1.0725 B( 23-C , 45-H ) :   0.9308
B( 25-C , 26-H ) :   0.8792 B( 25-C , 38-N ) :   2.0245 B( 27-C , 28-C ) :   0.9247
B( 27-C , 29-N ) :   0.9299 B( 27-C , 60-H ) :   0.9329 B( 27-C , 61-H ) :   0.9350
B( 28-C , 30-N ) :   0.9317 B( 28-C , 58-H ) :   0.9302 B( 28-C , 59-H ) :   0.9335
B( 31-C , 32-C ) :   0.8906 B( 31-C , 33-N ) :   1.0248 B( 31-C , 56-H ) :   0.9515
B( 31-C , 57-H ) :   0.9442 B( 32-C , 34-N ) :   1.0257 B( 32-C , 54-H ) :   0.9527
B( 32-C , 55-H ) :   0.9428 B( 33-N , 48-H ) :   0.8725 B( 34-N , 47-H ) :   0.8736
B( 35-C , 36-C ) :   0.9221 B( 35-C , 37-N ) :   0.9228 B( 35-C , 64-H ) :   0.9356
B( 35-C , 65-H ) :   0.9374 B( 36-C , 38-N ) :   0.9252 B( 36-C , 62-H ) :   0.9404
B( 36-C , 63-H ) :   0.9271 B( 39-C , 40-C ) :   0.8977 B( 39-C , 41-N ) :   1.0424
B( 39-C , 52-H ) :   0.9478 B( 39-C , 53-H ) :   0.9544 B( 40-C , 42-N ) :   1.0404
B( 40-C , 50-H ) :   0.9549 B( 40-C , 51-H ) :   0.9469 B( 41-N , 44-H ) :   0.8474
B( 42-N , 46-H ) :   0.8470

Dispersion correction           -0.195155516
FINAL SINGLE POINT ENERGY     -1447.266618078467

DIPOLE MOMENT
-------------
                                X             Y             Z
Electronic contribution:      5.03973      -0.74994      -3.71732
Nuclear contribution   :     -6.07117      -0.87858       3.35606
                        -----------------------------------------
Total Dipole Moment    :     -1.03143      -1.62851      -0.36127
                        -----------------------------------------
Magnitude (a.u.)       :      1.96123
Magnitude (Debye)      :      4.98506

Rotational constants in cm-1:     0.006198     0.002245     0.001764
Rotational constants in MHz :   185.804283    67.296755    52.886580

                             ****ORCA TERMINATED NORMALLY****
TOTAL RUN TIME: 0 days 1 hours 3 minutes 9 seconds 574 msec
