                         Program Version 4.2.1 -  RELEASE  -
|  1> ! RI-MP2 cc-pVTZ cc-pVTZ/C TIGHTSCF printbasis Grid6 NOFINALGRID SlowConv
|  2>
|  3> %base "_o_2_alde1_4_ami2_2_opt_MP2"
|  4> %maxcore 3000
|  5> %pal
|  6>    nprocs 32
|  7> end
|  8>
|  9> * xyzfile 0 1 _o_2_alde1_4_ami2_2_opt_B97-3c.xyz
| 10>
| 11>                          ****END OF INPUT****

CARTESIAN COORDINATES (ANGSTROEM)
---------------------------------
  C     -4.110526   -2.115256   -1.918629
  C     -4.246681   -2.444942   -0.500883
  C     -3.499484   -3.010619   -2.783254
  C     -3.272649   -2.671945   -4.121959
  H     -3.183600   -3.985609   -2.437224
  C     -3.620969   -1.404934   -4.570634
  C     -4.223335   -0.484414   -3.707211
  H     -3.410385   -1.103827   -5.588505
  C     -4.494018   -0.860287   -2.399567
  C     -4.475389    0.901675   -4.091258
  H     -4.957027   -0.164871   -1.713398
  C     -2.648216   -3.618208   -5.044786
  H     -5.040964    1.487381   -3.354694
  H     -3.665186   -3.314432   -0.162839
  C     -2.160270    1.047200    0.253639
  C     -3.337789    0.619857    1.008632
  C     -2.351786    1.743425   -0.930963
  C     -1.273829    2.052382   -1.765469
  H     -3.346332    2.020030   -1.252029
  C      0.007288    1.704209   -1.366422
  C      0.225769    1.053636   -0.146395
  H      0.861093    1.926944   -1.992541
  C     -0.861803    0.706559    0.643239
  C      1.578566    0.736978    0.306069
  H     -0.725116    0.159924    1.567424
  C     -1.483900    2.651285   -3.085834
  H      1.645964    0.185794    1.256126
  H     -0.608995    2.621795   -3.742909
  C     -4.526689   -0.757029    2.517389
  C     -4.852916   -2.043599    1.711068
  N     -3.284250   -0.237458    1.943917
  N     -4.931947   -1.746192    0.306545
  C     -1.632467   -5.630178   -5.660882
  C     -0.229881   -6.095445   -5.197666
  N     -2.249910   -4.769488   -4.687704
  N     -0.261683   -6.745696   -3.884936
  C     -4.160211    2.870309   -5.242236
  C     -2.843058    3.575058   -4.813491
  N     -4.014499    1.438574   -5.146986
  N     -2.605990    3.116414   -3.449259
  C      4.569504    2.116999    0.759134
  C      3.900937    0.811469    0.244055
  N      3.784090    2.766586    1.807571
  N      2.618665    1.077435   -0.339788
  H     -0.752990   -6.133335   -3.243346
  H     -0.826169   -7.586773   -3.943216
  H      2.865066    2.999917    1.450477
  H      3.636495    2.122992    2.577219
  H     -1.560748   -5.162830   -6.654201
  H     -2.257552   -6.522371   -5.758688
  H     -5.824604   -2.406378    2.053345
  H     -4.102134   -2.809071    1.939906
  H      3.841627    0.106101    1.087063
  H      4.543030    0.368241   -0.519647
  C      4.743050    3.106926   -0.384071
  H      5.345108    2.676519   -1.182980
  H      5.233659    4.007543   -0.021904
  H      3.780399    3.383031   -0.808192
  C      5.923237    1.748300    1.349248
  H      6.414693    2.640618    1.729801
  H      6.566819    1.288358    0.601053
  H      5.816678    1.044658    2.176348
  C      0.701398   -4.893798   -5.105845
  H      1.700587   -5.217444   -4.823700
  H      0.352402   -4.184075   -4.357429
  H      0.760391   -4.370301   -6.060059
  C      0.303788   -7.096195   -6.211890
  H     -0.351599   -7.965287   -6.291041
  H      1.287373   -7.445491   -5.905455
  H      0.387852   -6.651520   -7.202465
  C     -1.741031    3.278359   -5.822719
  H     -1.544117    2.211395   -5.890453
  H     -0.814931    3.793951   -5.572429
  H     -2.043606    3.623773   -6.809368
  H     -4.377647    3.148084   -6.273545
  H     -4.962867    3.251768   -4.600271
  C     -3.105758    5.077723   -4.745822
  H     -2.194069    5.605907   -4.470378
  H     -3.864830    5.302430   -3.999996
  H     -3.439530    5.454597   -5.711797
  C     -5.721486    0.192554    2.471542
  H     -5.465702    1.157529    2.907754
  H     -6.544901   -0.225636    3.047981
  H     -6.083151    0.349689    1.459129
  C     -4.228890   -1.149916    3.959304
  H     -3.353295   -1.793824    4.004341
  H     -5.073406   -1.672663    4.407384
  H     -4.023008   -0.263225    4.557032
  H     -2.543617   -3.266914   -6.081551
  H     -4.274903    1.060796    0.659373

 Total Charge           Charge          ....    0
 Multiplicity           Mult            ....    1
 Number of Electrons    NEL             ....  308
 Basis Dimension        Dim             .... 1932

ORBITAL ENERGIES
----------------

  NO   OCC          E(Eh)            E(eV)
   0   2.0000     -15.559292      -423.3899
   1   2.0000     -15.557516      -423.3415
   2   2.0000     -15.556016      -423.3007
   3   2.0000     -15.553001      -423.2187
   4   2.0000     -15.552117      -423.1946
   5   2.0000     -15.548537      -423.0972
   6   2.0000     -15.529556      -422.5807
   7   2.0000     -15.525871      -422.4804
   8   2.0000     -11.285693      -307.0993
   9   2.0000     -11.284306      -307.0616
  10   2.0000     -11.283553      -307.0411
  11   2.0000     -11.280118      -306.9476
  12   2.0000     -11.279664      -306.9353
  13   2.0000     -11.276978      -306.8622
  14   2.0000     -11.266374      -306.5736
  15   2.0000     -11.264384      -306.5195
  16   2.0000     -11.256256      -306.2983
  17   2.0000     -11.255963      -306.2903
  18   2.0000     -11.252197      -306.1879
  19   2.0000     -11.251734      -306.1752
  20   2.0000     -11.251075      -306.1573
  21   2.0000     -11.250788      -306.1495
  22   2.0000     -11.249497      -306.1144
  23   2.0000     -11.248802      -306.0955
  24   2.0000     -11.248769      -306.0946
  25   2.0000     -11.248167      -306.0782
  26   2.0000     -11.248014      -306.0740
  27   2.0000     -11.247950      -306.0723
  28   2.0000     -11.247887      -306.0706
  29   2.0000     -11.247800      -306.0682
  30   2.0000     -11.246829      -306.0418
  31   2.0000     -11.245859      -306.0154
  32   2.0000     -11.245328      -306.0009
  33   2.0000     -11.245270      -305.9993
  34   2.0000     -11.213571      -305.1368
  35   2.0000     -11.211866      -305.0904
  36   2.0000     -11.211233      -305.0732
  37   2.0000     -11.209247      -305.0191
  38   2.0000     -11.208579      -305.0009
  39   2.0000     -11.206874      -304.9546
  40   2.0000     -11.202461      -304.8345
  41   2.0000     -11.199726      -304.7600
  42   2.0000      -1.256824       -34.1999
  43   2.0000      -1.254473       -34.1359
  44   2.0000      -1.246874       -33.9292
  45   2.0000      -1.246211       -33.9111
  46   2.0000      -1.227550       -33.4033
  47   2.0000      -1.222570       -33.2678
  48   2.0000      -1.186888       -32.2969
  49   2.0000      -1.185840       -32.2683
  50   2.0000      -1.170713       -31.8567
  51   2.0000      -1.163606       -31.6633
  52   2.0000      -1.090877       -29.6843
  53   2.0000      -1.078911       -29.3587
  54   2.0000      -1.059660       -28.8348
  55   2.0000      -1.054584       -28.6967
  56   2.0000      -1.046069       -28.4650
  57   2.0000      -1.027423       -27.9576
  58   2.0000      -1.024460       -27.8770
  59   2.0000      -1.023426       -27.8488
  60   2.0000      -0.949910       -25.8484
  61   2.0000      -0.944328       -25.6965
  62   2.0000      -0.943927       -25.6856
  63   2.0000      -0.942699       -25.6521
  64   2.0000      -0.940359       -25.5885
  65   2.0000      -0.939892       -25.5758
  66   2.0000      -0.934247       -25.4222
  67   2.0000      -0.932583       -25.3769
  68   2.0000      -0.893640       -24.3172
  69   2.0000      -0.885101       -24.0848
  70   2.0000      -0.868069       -23.6214
  71   2.0000      -0.867241       -23.5988
  72   2.0000      -0.851303       -23.1651
  73   2.0000      -0.829157       -22.5625
  74   2.0000      -0.797348       -21.6969
  75   2.0000      -0.776099       -21.1187
  76   2.0000      -0.758599       -20.6425
  77   2.0000      -0.753136       -20.4939
  78   2.0000      -0.751824       -20.4582
  79   2.0000      -0.744518       -20.2594
  80   2.0000      -0.733394       -19.9567
  81   2.0000      -0.720449       -19.6044
  82   2.0000      -0.708925       -19.2908
  83   2.0000      -0.705312       -19.1925
  84   2.0000      -0.691819       -18.8253
  85   2.0000      -0.676801       -18.4167
  86   2.0000      -0.669059       -18.2060
  87   2.0000      -0.665333       -18.1046
  88   2.0000      -0.662729       -18.0338
  89   2.0000      -0.658286       -17.9129
  90   2.0000      -0.654141       -17.8001
  91   2.0000      -0.647874       -17.6296
  92   2.0000      -0.644043       -17.5253
  93   2.0000      -0.640844       -17.4382
  94   2.0000      -0.632523       -17.2118
  95   2.0000      -0.631339       -17.1796
  96   2.0000      -0.625692       -17.0260
  97   2.0000      -0.620201       -16.8765
  98   2.0000      -0.618325       -16.8255
  99   2.0000      -0.617347       -16.7989
 100   2.0000      -0.613124       -16.6839
 101   2.0000      -0.607353       -16.5269
 102   2.0000      -0.603207       -16.4141
 103   2.0000      -0.599535       -16.3142
 104   2.0000      -0.598095       -16.2750
 105   2.0000      -0.593671       -16.1546
 106   2.0000      -0.571566       -15.5531
 107   2.0000      -0.567172       -15.4335
 108   2.0000      -0.558454       -15.1963
 109   2.0000      -0.554931       -15.1004
 110   2.0000      -0.553166       -15.0524
 111   2.0000      -0.547885       -14.9087
 112   2.0000      -0.543746       -14.7961
 113   2.0000      -0.542685       -14.7672
 114   2.0000      -0.537858       -14.6359
 115   2.0000      -0.536003       -14.5854
 116   2.0000      -0.534503       -14.5446
 117   2.0000      -0.531146       -14.4532
 118   2.0000      -0.528825       -14.3901
 119   2.0000      -0.527755       -14.3609
 120   2.0000      -0.525837       -14.3088
 121   2.0000      -0.524684       -14.2774
 122   2.0000      -0.522281       -14.2120
 123   2.0000      -0.516596       -14.0573
 124   2.0000      -0.512817       -13.9545
 125   2.0000      -0.510625       -13.8948
 126   2.0000      -0.504898       -13.7390
 127   2.0000      -0.502625       -13.6771
 128   2.0000      -0.497250       -13.5309
 129   2.0000      -0.491495       -13.3743
 130   2.0000      -0.490528       -13.3479
 131   2.0000      -0.486849       -13.2478
 132   2.0000      -0.481411       -13.0999
 133   2.0000      -0.477687       -12.9985
 134   2.0000      -0.471012       -12.8169
 135   2.0000      -0.469030       -12.7630
 136   2.0000      -0.455196       -12.3865
 137   2.0000      -0.454541       -12.3687
 138   2.0000      -0.450796       -12.2668
 139   2.0000      -0.442020       -12.0280
 140   2.0000      -0.414474       -11.2784
 141   2.0000      -0.411985       -11.2107
 142   2.0000      -0.409386       -11.1400
 143   2.0000      -0.407672       -11.0933
 144   2.0000      -0.405337       -11.0298
 145   2.0000      -0.403406       -10.9772
 146   2.0000      -0.397603       -10.8193
 147   2.0000      -0.395317       -10.7571
 148   2.0000      -0.382312       -10.4032
 149   2.0000      -0.381422       -10.3790
 150   2.0000      -0.328290        -8.9332
 151   2.0000      -0.326249        -8.8777
 152   2.0000      -0.324126        -8.8199
 153   2.0000      -0.320053        -8.7091
 154   0.0000       0.066747         1.8163
 155   0.0000       0.070869         1.9284
 156   0.0000       0.075737         2.0609
 157   0.0000       0.080439         2.1888
 158   0.0000       0.126116         3.4318

MULLIKEN ATOMIC CHARGES
-----------------------
   0 C :    0.190197
   1 C :   -0.086631
   2 C :   -0.208365
   3 C :    0.152662
   4 H :    0.161067
   5 C :   -0.208986
   6 C :    0.168704
   7 H :    0.158671
   8 C :   -0.218188
   9 C :   -0.087803
  10 H :    0.166501
  11 C :   -0.090667
  12 H :    0.099909
  13 H :    0.089331
  14 C :    0.189141
  15 C :   -0.127097
  16 C :   -0.221031
  17 C :    0.196811
  18 H :    0.160607
  19 C :   -0.214461
  20 C :    0.159862
  21 H :    0.161314
  22 C :   -0.212994
  23 C :   -0.111970
  24 H :    0.157054
  25 C :   -0.100995
  26 H :    0.090062
  27 H :    0.103640
  28 C :    0.188972
  29 C :   -0.024830
  30 N :   -0.287951
  31 N :   -0.275685
  32 C :   -0.040055
  33 C :    0.157898
  34 N :   -0.268620
  35 N :   -0.382457
  36 C :   -0.031499
  37 C :    0.172038
  38 N :   -0.273172
  39 N :   -0.296197
  40 C :    0.151603
  41 C :   -0.054662
  42 N :   -0.388328
  43 N :   -0.249771
  44 H :    0.144821
  45 H :    0.125025
  46 H :    0.142785
  47 H :    0.125382
  48 H :    0.059901
  49 H :    0.102527
  50 H :    0.103037
  51 H :    0.074680
  52 H :    0.067211
  53 H :    0.105977
  54 C :   -0.291073
  55 H :    0.085792
  56 H :    0.105831
  57 H :    0.107102
  58 C :   -0.303480
  59 H :    0.111387
  60 H :    0.092652
  61 H :    0.090417
  62 C :   -0.312294
  63 H :    0.112536
  64 H :    0.105387
  65 H :    0.086244
  66 C :   -0.307130
  67 H :    0.090671
  68 H :    0.112623
  69 H :    0.091824
  70 C :   -0.351794
  71 H :    0.121422
  72 H :    0.102036
  73 H :    0.111951
  74 H :    0.108087
  75 H :    0.075813
  76 C :   -0.298128
  77 H :    0.102240
  78 H :    0.105996
  79 H :    0.094699
  80 C :   -0.353961
  81 H :    0.110223
  82 H :    0.111323
  83 H :    0.114301
  84 C :   -0.296260
  85 H :    0.103218
  86 H :    0.087931
  87 H :    0.101532
  88 H :    0.093787
  89 H :    0.112121
Sum of atomic charges:   -0.0000000

LOEWDIN ATOMIC CHARGES
----------------------
   0 C :   -0.074524
   1 C :   -0.067113
   2 C :    0.092602
   3 C :   -0.076376
   4 H :   -0.020031
   5 C :    0.093345
   6 C :   -0.073273
   7 H :   -0.017686
   8 C :    0.093106
   9 C :   -0.071116
  10 H :   -0.022424
  11 C :   -0.071646
  12 H :   -0.034900
  13 H :   -0.033270
  14 C :   -0.073033
  15 C :   -0.069497
  16 C :    0.091168
  17 C :   -0.073423
  18 H :   -0.023701
  19 C :    0.090973
  20 C :   -0.078785
  21 H :   -0.019086
  22 C :    0.090843
  23 C :   -0.076641
  24 H :   -0.018861
  25 C :   -0.067510
  26 H :   -0.036464
  27 H :   -0.032550
  28 C :   -0.201752
  29 C :   -0.027559
  30 N :    0.221962
  31 N :    0.223314
  32 C :   -0.038498
  33 C :   -0.194694
  34 N :    0.220929
  35 N :    0.340017
  36 C :   -0.031201
  37 C :   -0.203754
  38 N :    0.209671
  39 N :    0.237257
  40 C :   -0.193151
  41 C :   -0.042018
  42 N :    0.345509
  43 N :    0.223155
  44 H :   -0.109173
  45 H :   -0.108195
  46 H :   -0.109620
  47 H :   -0.109774
  48 H :   -0.036295
  49 H :   -0.029509
  50 H :   -0.025366
  51 H :   -0.034626
  52 H :   -0.039277
  53 H :   -0.026340
  54 C :    0.117280
  55 H :   -0.028151
  56 H :   -0.026969
  57 H :   -0.031898
  58 C :    0.116701
  59 H :   -0.023880
  60 H :   -0.027446
  61 H :   -0.031374
  62 C :    0.113805
  63 H :   -0.025201
  64 H :   -0.030846
  65 H :   -0.030482
  66 C :    0.116660
  67 H :   -0.030761
  68 H :   -0.023347
  69 H :   -0.027987
  70 C :    0.111697
  71 H :   -0.028025
  72 H :   -0.031924
  73 H :   -0.022481
  74 H :   -0.028767
  75 H :   -0.033953
  76 C :    0.118734
  77 H :   -0.027349
  78 H :   -0.027038
  79 H :   -0.026997
  80 C :    0.112406
  81 H :   -0.028186
  82 H :   -0.024047
  83 H :   -0.033046
  84 C :    0.114104
  85 H :   -0.028150
  86 H :   -0.029210
  87 H :   -0.026568
  88 H :   -0.034081
  89 H :   -0.034361

  Mayer bond orders larger than 0.100000
B(  0-C ,  1-C ) :   0.9856 B(  0-C ,  2-C ) :   1.3980 B(  0-C ,  8-C ) :   1.2923
B(  1-C , 13-H ) :   0.9917 B(  1-C , 31-N ) :   1.9889 B(  2-C ,  3-C ) :   1.2988
B(  2-C ,  4-H ) :   0.9643 B(  3-C ,  5-C ) :   1.3923 B(  3-C , 11-C ) :   1.0047
B(  5-C ,  6-C ) :   1.3044 B(  5-C ,  7-H ) :   0.9641 B(  6-C ,  8-C ) :   1.3804
B(  6-C ,  9-C ) :   0.9994 B(  8-C , 10-H ) :   0.9617 B(  9-C , 12-H ) :   0.9905
B(  9-C , 38-N ) :   1.9571 B( 11-C , 34-N ) :   1.9889 B( 11-C , 88-H ) :   0.9890
B( 14-C , 15-C ) :   1.0111 B( 14-C , 16-C ) :   1.3886 B( 14-C , 22-C ) :   1.2995
B( 15-C , 30-N ) :   1.9680 B( 15-C , 89-H ) :   0.9831 B( 16-C , 17-C ) :   1.2921
B( 16-C , 18-H ) :   0.9609 B( 17-C , 19-C ) :   1.4001 B( 17-C , 25-C ) :   1.0012
B( 19-C , 20-C ) :   1.2971 B( 19-C , 21-H ) :   0.9639 B( 20-C , 22-C ) :   1.3878
B( 20-C , 23-C ) :   1.0039 B( 22-C , 24-H ) :   0.9631 B( 23-C , 26-H ) :   0.9887
B( 23-C , 43-N ) :   1.9765 B( 25-C , 27-H ) :   0.9818 B( 25-C , 39-N ) :   1.9681
B( 28-C , 29-C ) :   0.9260 B( 28-C , 30-N ) :   0.9359 B( 28-C , 80-C ) :   0.9522
B( 28-C , 84-C ) :   0.9558 B( 29-C , 31-N ) :   0.9732 B( 29-C , 50-H ) :   0.9795
B( 29-C , 51-H ) :   0.9821 B( 32-C , 33-C ) :   0.9716 B( 32-C , 34-N ) :   0.9651
B( 32-C , 48-H ) :   0.9783 B( 32-C , 49-H ) :   0.9769 B( 33-C , 35-N ) :   0.9658
B( 33-C , 62-C ) :   0.9332 B( 33-C , 66-C ) :   0.9508 B( 35-N , 44-H ) :   0.9943
B( 35-N , 45-H ) :   0.9978 B( 36-C , 37-C ) :   0.9304 B( 36-C , 38-N ) :   0.9736
B( 36-C , 74-H ) :   0.9884 B( 36-C , 75-H ) :   0.9857 B( 37-C , 39-N ) :   0.9398
B( 37-C , 70-C ) :   0.9517 B( 37-C , 76-C ) :   0.9489 B( 40-C , 41-C ) :   0.9518
B( 40-C , 42-N ) :   0.9667 B( 40-C , 54-C ) :   0.9464 B( 40-C , 58-C ) :   0.9487
B( 41-C , 43-N ) :   0.9668 B( 41-C , 52-H ) :   0.9837 B( 41-C , 53-H ) :   0.9801
B( 42-N , 46-H ) :   0.9955 B( 42-N , 47-H ) :   0.9975 B( 54-C , 55-H ) :   0.9853
B( 54-C , 56-H ) :   0.9852 B( 54-C , 57-H ) :   0.9755 B( 58-C , 59-H ) :   0.9839
B( 58-C , 60-H ) :   0.9861 B( 58-C , 61-H ) :   0.9807 B( 62-C , 63-H ) :   0.9844
B( 62-C , 64-H ) :   0.9788 B( 62-C , 65-H ) :   0.9860 B( 66-C , 67-H ) :   0.9804
B( 66-C , 68-H ) :   0.9846 B( 66-C , 69-H ) :   0.9858 B( 70-C , 71-H ) :   0.9760
B( 70-C , 72-H ) :   0.9841 B( 70-C , 73-H ) :   0.9801 B( 76-C , 77-H ) :   0.9811
B( 76-C , 78-H ) :   0.9842 B( 76-C , 79-H ) :   0.9781 B( 80-C , 81-H ) :   0.9858
B( 80-C , 82-H ) :   0.9800 B( 80-C , 83-H ) :   0.9774 B( 84-C , 85-H ) :   0.9842
B( 84-C , 86-H ) :   0.9831 B( 84-C , 87-H ) :   0.9834

MP2 TOTAL ENERGY:    -1758.813976247 Eh
FINAL SINGLE POINT ENERGY     -1758.813976246548

DIPOLE MOMENT
-------------
                                X             Y             Z
Electronic contribution:    -27.53568       1.87407      -0.16069
Nuclear contribution   :     26.85174      -2.14489      -0.19181
                        -----------------------------------------
Total Dipole Moment    :     -0.68394      -0.27082      -0.35250
                        -----------------------------------------
Magnitude (a.u.)       :      0.81570
Magnitude (Debye)      :      2.07335

Rotational constants in cm-1:     0.002030     0.001582     0.001449
Rotational constants in MHz :    60.864293    47.416396    43.443177

                             ****ORCA TERMINATED NORMALLY****
TOTAL RUN TIME: 0 days 1 hours 0 minutes 10 seconds 538 msec
