                         Program Version 4.2.1 -  RELEASE  -
|  1> ! RI-MP2 cc-pVTZ cc-pVTZ/C TIGHTSCF printbasis Grid6 NOFINALGRID SlowConv
|  2>
|  3> %base "_o_3_alde1_4_ami2_1_opt_MP2"
|  4> %maxcore 3000
|  5> %pal
|  6>    nprocs 32
|  7> end
|  8>
|  9> * xyzfile 0 1 _o_3_alde1_4_ami2_1_opt_B97-3c.xyz
| 10>
| 11>                          ****END OF INPUT****

CARTESIAN COORDINATES (ANGSTROEM)
---------------------------------
  C     -3.107282   -2.236414   -0.433083
  C     -2.642105   -2.186422    0.956173
  C     -2.626974   -3.219266   -1.283585
  C     -3.002047   -3.250791   -2.632091
  H     -1.949493   -3.980180   -0.920736
  C     -3.820210   -2.248200   -3.133281
  C     -4.285591   -1.229065   -2.295633
  H     -4.082140   -2.217551   -4.182829
  C     -3.959539   -1.254877   -0.946967
  C     -5.016616   -0.072861   -2.807674
  H     -4.317368   -0.481765   -0.281228
  C     -2.476078   -4.287760   -3.520233
  H     -5.466940    0.567974   -2.038218
  H     -1.776068   -2.820885    1.170477
  H     -2.901191   -4.321316   -4.533050
  C      2.349971   -2.725594    0.321471
  C      2.291097   -2.817914    1.787180
  C      2.937631   -1.615735   -0.267574
  C      2.972893   -1.492266   -1.659823
  H      3.360742   -0.824902    0.338565
  C      2.414628   -2.496310   -2.437517
  C      1.823495   -3.624531   -1.858117
  H      2.406326   -2.415221   -3.516669
  C      1.794435   -3.730531   -0.476823
  C      1.149814   -4.631262   -2.681594
  H      1.326980   -4.578961    0.006358
  C      3.537355   -0.313035   -2.320094
  H      0.651116   -5.423904   -2.119881
  H      2.765390   -1.967269    2.318539
  H      3.405272   -0.296750   -3.405880
  C     -1.711183    1.945925    0.297934
  C     -2.410182    1.423730    1.468970
  C     -2.433288    2.186201   -0.860993
  C     -1.786974    2.529283   -2.052667
  H     -3.507003    2.061304   -0.874715
  C     -0.407161    2.678967   -2.054432
  C      0.332344    2.491346   -0.880315
  H      0.120381    2.935991   -2.963809
  C     -0.323972    2.110125    0.281710
  C      1.783906    2.644503   -0.843026
  H      0.230705    1.912509    1.189621
  C     -2.538215    2.629231   -3.307056
  H      2.241437    2.461497    0.139219
  H     -1.920159    2.662417   -4.210092
  C     -2.634946    0.237178    3.435221
  C     -2.635609   -1.291958    3.166406
  N     -1.810225    0.912092    2.465415
  N     -3.180013   -1.429545    1.819239
  O      1.771865   -3.723758    2.409306
  C     -0.958902   -6.016096   -4.039728
  C      0.299691   -5.434398   -4.756480
  N     -1.561388   -5.077407   -3.134248
  N      1.106899   -4.526890   -3.945295
  C     -5.658676    1.515291   -4.351219
  C     -4.555426    2.583250   -4.583313
  N     -5.073156    0.234210   -4.039875
  N     -3.805862    2.621979   -3.333299
  C      4.616848    1.806048   -2.355959
  C      3.918485    2.995979   -1.657406
  N      4.113837    0.615512   -1.678385
  N      2.491193    2.955996   -1.851257
  H     -3.505778    1.440555    1.406235
  H     -1.644466   -6.358447   -4.823579
  H     -0.668451   -6.893697   -3.460988
  H      4.307242    3.915783   -2.096737
  H      4.198614    2.975342   -0.597336
  H     -2.235516    0.409441    4.434593
  H     -3.676343    0.578966    3.411076
  C      4.393395    1.876318   -3.861168
  H      4.894267    1.059448   -4.379603
  H      4.806473    2.806400   -4.246082
  H      3.335949    1.861102   -4.110975
  C      6.109963    1.883751   -2.044141
  H      6.530397    2.820327   -2.408069
  H      6.638264    1.062583   -2.526080
  H      6.282049    1.813246   -0.972498
  C     -0.143090   -4.612415   -5.965117
  H     -0.762190   -3.772217   -5.657696
  H     -0.707513   -5.220739   -6.670603
  H      0.730151   -4.207339   -6.470476
  C      1.179729   -6.593716   -5.215226
  H      0.622820   -7.258257   -5.875603
  H      1.534108   -7.171879   -4.362957
  H      2.046450   -6.219976   -5.756410
  C     -1.241314   -1.864450    3.384254
  H     -1.214879   -2.945242    3.260394
  H     -0.909259   -1.652242    4.398639
  H     -0.522085   -1.419520    2.701900
  C     -3.631743   -1.941190    4.124525
  H     -4.637860   -1.567188    3.947782
  H     -3.357791   -1.737065    5.158868
  H     -3.640352   -3.020507    3.981525
  C     -5.239424    3.940051   -4.742309
  H     -5.779978    4.205812   -3.836549
  H     -5.940098    3.924327   -5.576413
  H     -4.498561    4.714811   -4.933427
  H     -6.309025    1.883790   -3.548947
  H     -6.249952    1.429864   -5.263212
  C     -3.751826    2.244917   -5.833041
  H     -3.250689    1.285629   -5.729928
  H     -3.009413    3.009803   -6.056912
  H     -4.416570    2.181602   -6.692485

 Total Charge           Charge          ....    0
 Multiplicity           Mult            ....    1
 Number of Electrons    NEL             ....  372
 Basis Dimension        Dim             .... 2260

ORBITAL ENERGIES
----------------

  NO   OCC          E(Eh)            E(eV)
   0   2.0000     -20.554288      -559.3106
   1   2.0000     -15.556248      -423.3070
   2   2.0000     -15.555957      -423.2991
   3   2.0000     -15.552339      -423.2007
   4   2.0000     -15.551833      -423.1869
   5   2.0000     -15.549910      -423.1346
   6   2.0000     -15.549612      -423.1265
   7   2.0000     -15.548779      -423.1038
   8   2.0000     -15.547860      -423.0788
   9   2.0000     -11.334917      -308.4388
  10   2.0000     -11.286172      -307.1124
  11   2.0000     -11.281720      -306.9912
  12   2.0000     -11.280098      -306.9471
  13   2.0000     -11.279627      -306.9343
  14   2.0000     -11.279082      -306.9194
  15   2.0000     -11.277772      -306.8838
  16   2.0000     -11.275830      -306.8309
  17   2.0000     -11.275054      -306.8098
  18   2.0000     -11.269457      -306.6575
  19   2.0000     -11.266259      -306.5705
  20   2.0000     -11.265377      -306.5465
  21   2.0000     -11.260893      -306.4245
  22   2.0000     -11.259997      -306.4001
  23   2.0000     -11.258093      -306.3483
  24   2.0000     -11.256219      -306.2973
  25   2.0000     -11.255639      -306.2815
  26   2.0000     -11.252157      -306.1867
  27   2.0000     -11.251405      -306.1663
  28   2.0000     -11.251267      -306.1626
  29   2.0000     -11.248145      -306.0776
  30   2.0000     -11.247923      -306.0716
  31   2.0000     -11.247342      -306.0557
  32   2.0000     -11.246422      -306.0307
  33   2.0000     -11.246278      -306.0268
  34   2.0000     -11.246208      -306.0249
  35   2.0000     -11.246109      -306.0222
  36   2.0000     -11.245981      -306.0187
  37   2.0000     -11.244943      -305.9904
  38   2.0000     -11.244793      -305.9864
  39   2.0000     -11.244653      -305.9826
  40   2.0000     -11.244432      -305.9765
  41   2.0000     -11.243408      -305.9487
  42   2.0000     -11.243359      -305.9474
  43   2.0000     -11.242548      -305.9253
  44   2.0000     -11.217183      -305.2351
  45   2.0000     -11.213321      -305.1300
  46   2.0000     -11.213250      -305.1280
  47   2.0000     -11.212472      -305.1069
  48   2.0000     -11.211199      -305.0722
  49   2.0000     -11.211019      -305.0673
  50   2.0000     -11.208457      -304.9976
  51   2.0000     -11.201987      -304.8216
  52   2.0000      -1.388750       -37.7898
  53   2.0000      -1.257101       -34.2075
  54   2.0000      -1.255128       -34.1538
  55   2.0000      -1.253160       -34.1002
  56   2.0000      -1.250116       -34.0174
  57   2.0000      -1.228689       -33.4343
  58   2.0000      -1.228060       -33.4172
  59   2.0000      -1.223098       -33.2822
  60   2.0000      -1.219484       -33.1838
  61   2.0000      -1.178792       -32.0766
  62   2.0000      -1.169158       -31.8144
  63   2.0000      -1.162225       -31.6257
  64   2.0000      -1.092475       -29.7278
  65   2.0000      -1.087797       -29.6005
  66   2.0000      -1.085509       -29.5382
  67   2.0000      -1.073272       -29.2052
  68   2.0000      -1.053323       -28.6624
  69   2.0000      -1.052685       -28.6450
  70   2.0000      -1.046694       -28.4820
  71   2.0000      -1.034854       -28.1598
  72   2.0000      -1.032705       -28.1013
  73   2.0000      -1.026004       -27.9190
  74   2.0000      -0.954178       -25.9645
  75   2.0000      -0.945302       -25.7230
  76   2.0000      -0.943138       -25.6641
  77   2.0000      -0.941558       -25.6211
  78   2.0000      -0.940786       -25.6001
  79   2.0000      -0.938716       -25.5438
  80   2.0000      -0.936806       -25.4918
  81   2.0000      -0.934722       -25.4351
  82   2.0000      -0.901706       -24.5367
  83   2.0000      -0.898352       -24.4454
  84   2.0000      -0.891592       -24.2615
  85   2.0000      -0.886553       -24.1243
  86   2.0000      -0.879556       -23.9339
  87   2.0000      -0.865226       -23.5440
  88   2.0000      -0.862479       -23.4692
  89   2.0000      -0.847733       -23.0680
  90   2.0000      -0.829759       -22.5789
  91   2.0000      -0.800827       -21.7916
  92   2.0000      -0.793692       -21.5975
  93   2.0000      -0.786807       -21.4101
  94   2.0000      -0.776281       -21.1237
  95   2.0000      -0.752594       -20.4791
  96   2.0000      -0.743764       -20.2388
  97   2.0000      -0.742820       -20.2132
  98   2.0000      -0.730543       -19.8791
  99   2.0000      -0.726588       -19.7715
 100   2.0000      -0.721663       -19.6374
 101   2.0000      -0.714342       -19.4382
 102   2.0000      -0.707061       -19.2401
 103   2.0000      -0.703953       -19.1555
 104   2.0000      -0.691420       -18.8145
 105   2.0000      -0.684613       -18.6293
 106   2.0000      -0.681223       -18.5370
 107   2.0000      -0.668990       -18.2041
 108   2.0000      -0.664113       -18.0714
 109   2.0000      -0.663710       -18.0605
 110   2.0000      -0.656245       -17.8573
 111   2.0000      -0.652154       -17.7460
 112   2.0000      -0.648532       -17.6474
 113   2.0000      -0.641218       -17.4484
 114   2.0000      -0.640101       -17.4180
 115   2.0000      -0.633957       -17.2509
 116   2.0000      -0.633155       -17.2290
 117   2.0000      -0.629906       -17.1406
 118   2.0000      -0.625306       -17.0154
 119   2.0000      -0.622418       -16.9369
 120   2.0000      -0.621452       -16.9106
 121   2.0000      -0.614667       -16.7259
 122   2.0000      -0.610801       -16.6207
 123   2.0000      -0.606908       -16.5148
 124   2.0000      -0.604443       -16.4477
 125   2.0000      -0.602120       -16.3845
 126   2.0000      -0.598195       -16.2777
 127   2.0000      -0.596801       -16.2398
 128   2.0000      -0.594684       -16.1822
 129   2.0000      -0.582110       -15.8400
 130   2.0000      -0.563763       -15.3408
 131   2.0000      -0.558366       -15.1939
 132   2.0000      -0.557246       -15.1634
 133   2.0000      -0.555828       -15.1249
 134   2.0000      -0.553903       -15.0725
 135   2.0000      -0.552425       -15.0322
 136   2.0000      -0.551208       -14.9991
 137   2.0000      -0.546477       -14.8704
 138   2.0000      -0.543612       -14.7924
 139   2.0000      -0.541758       -14.7420
 140   2.0000      -0.539765       -14.6878
 141   2.0000      -0.536894       -14.6096
 142   2.0000      -0.535486       -14.5713
 143   2.0000      -0.534665       -14.5490
 144   2.0000      -0.533718       -14.5232
 145   2.0000      -0.532434       -14.4883
 146   2.0000      -0.529752       -14.4153
 147   2.0000      -0.527096       -14.3430
 148   2.0000      -0.523956       -14.2576
 149   2.0000      -0.521249       -14.1839
 150   2.0000      -0.519209       -14.1284
 151   2.0000      -0.516319       -14.0498
 152   2.0000      -0.515741       -14.0340
 153   2.0000      -0.510850       -13.9009
 154   2.0000      -0.506752       -13.7894
 155   2.0000      -0.500287       -13.6135
 156   2.0000      -0.495575       -13.4853
 157   2.0000      -0.494043       -13.4436
 158   2.0000      -0.491789       -13.3823
 159   2.0000      -0.488777       -13.3003
 160   2.0000      -0.484081       -13.1725
 161   2.0000      -0.483966       -13.1694
 162   2.0000      -0.479681       -13.0528
 163   2.0000      -0.457858       -12.4589
 164   2.0000      -0.453870       -12.3504
 165   2.0000      -0.449486       -12.2311
 166   2.0000      -0.444136       -12.0856
 167   2.0000      -0.438126       -11.9220
 168   2.0000      -0.430897       -11.7253
 169   2.0000      -0.423473       -11.5233
 170   2.0000      -0.411895       -11.2082
 171   2.0000      -0.407586       -11.0910
 172   2.0000      -0.407030       -11.0759
 173   2.0000      -0.404386       -11.0039
 174   2.0000      -0.403295       -10.9742
 175   2.0000      -0.399999       -10.8845
 176   2.0000      -0.399040       -10.8584
 177   2.0000      -0.393443       -10.7061
 178   2.0000      -0.391405       -10.6507
 179   2.0000      -0.384738       -10.4692
 180   2.0000      -0.343107        -9.3364
 181   2.0000      -0.329935        -8.9780
 182   2.0000      -0.324928        -8.8418
 183   2.0000      -0.322322        -8.7708
 184   2.0000      -0.321637        -8.7522
 185   2.0000      -0.318388        -8.6638
 186   0.0000       0.061101         1.6626
 187   0.0000       0.068796         1.8720
 188   0.0000       0.070714         1.9242
 189   0.0000       0.075478         2.0539
 190   0.0000       0.078091         2.1250

MULLIKEN ATOMIC CHARGES
-----------------------
   0 C :    0.200252
   1 C :   -0.114821
   2 C :   -0.214955
   3 C :    0.175998
   4 H :    0.157733
   5 C :   -0.211851
   6 C :    0.175805
   7 H :    0.154744
   8 C :   -0.221387
   9 C :   -0.089740
  10 H :    0.162017
  11 C :   -0.106023
  12 H :    0.101880
  13 H :    0.111817
  14 H :    0.112033
  15 C :    0.088449
  16 C :    0.163593
  17 C :   -0.194340
  18 C :    0.180566
  19 H :    0.164984
  20 C :   -0.179817
  21 C :    0.144122
  22 H :    0.161358
  23 C :   -0.218545
  24 C :   -0.065854
  25 H :    0.174143
  26 C :   -0.107960
  27 H :    0.116601
  28 H :    0.098301
  29 H :    0.102773
  30 C :    0.180928
  31 C :   -0.094256
  32 C :   -0.222898
  33 C :    0.192965
  34 H :    0.162059
  35 C :   -0.214725
  36 C :    0.162201
  37 H :    0.159044
  38 C :   -0.209054
  39 C :   -0.087755
  40 H :    0.155369
  41 C :   -0.103210
  42 H :    0.091289
  43 H :    0.102693
  44 C :   -0.032954
  45 C :    0.166949
  46 N :   -0.272119
  47 N :   -0.294022
  48 O :   -0.373112
  49 C :   -0.108201
  50 C :    0.172414
  51 N :   -0.274454
  52 N :   -0.289891
  53 C :   -0.031126
  54 C :    0.170465
  55 N :   -0.273782
  56 N :   -0.293558
  57 C :    0.172152
  58 C :   -0.028711
  59 N :   -0.286522
  60 N :   -0.268563
  61 H :    0.104626
  62 H :    0.098735
  63 H :    0.120345
  64 H :    0.108739
  65 H :    0.074582
  66 H :    0.107136
  67 H :    0.075352
  68 C :   -0.354199
  69 H :    0.103614
  70 H :    0.114692
  71 H :    0.119636
  72 C :   -0.298313
  73 H :    0.093461
  74 H :    0.102600
  75 H :    0.105963
  76 C :   -0.306041
  77 H :    0.105617
  78 H :    0.089605
  79 H :    0.111447
  80 C :   -0.303941
  81 H :    0.098773
  82 H :    0.099705
  83 H :    0.109309
  84 C :   -0.347751
  85 H :    0.116973
  86 H :    0.109523
  87 H :    0.115285
  88 C :   -0.299689
  89 H :    0.104367
  90 H :    0.095157
  91 H :    0.102835
  92 C :   -0.299576
  93 H :    0.106459
  94 H :    0.095408
  95 H :    0.101697
  96 H :    0.075638
  97 H :    0.107088
  98 C :   -0.349488
  99 H :    0.122409
 100 H :    0.100336
 101 H :    0.110396
Sum of atomic charges:   -0.0000000

LOEWDIN ATOMIC CHARGES
----------------------
   0 C :   -0.071352
   1 C :   -0.066892
   2 C :    0.090996
   3 C :   -0.075895
   4 H :   -0.021877
   5 C :    0.089272
   6 C :   -0.073516
   7 H :   -0.018795
   8 C :    0.092124
   9 C :   -0.070202
  10 H :   -0.023252
  11 C :   -0.066697
  12 H :   -0.035022
  13 H :   -0.031415
  14 H :   -0.033101
  15 C :   -0.096394
  16 C :   -0.148015
  17 C :    0.101245
  18 C :   -0.072727
  19 H :   -0.017383
  20 C :    0.107874
  21 C :   -0.069799
  22 H :   -0.016653
  23 C :    0.095654
  24 C :   -0.063467
  25 H :   -0.013943
  26 C :   -0.070464
  27 H :   -0.033188
  28 H :   -0.034235
  29 H :   -0.032112
  30 C :   -0.074334
  31 C :   -0.070505
  32 C :    0.091967
  33 C :   -0.072854
  34 H :   -0.023681
  35 C :    0.091128
  36 C :   -0.075403
  37 H :   -0.019495
  38 C :    0.092285
  39 C :   -0.070692
  40 H :   -0.018666
  41 C :   -0.067561
  42 H :   -0.033623
  43 H :   -0.033296
  44 C :   -0.033061
  45 C :   -0.203035
  46 N :    0.212361
  47 N :    0.237772
  48 O :    0.134226
  49 C :   -0.034894
  50 C :   -0.197149
  51 N :    0.220767
  52 N :    0.226890
  53 C :   -0.032828
  54 C :   -0.204013
  55 N :    0.208842
  56 N :    0.238343
  57 C :   -0.205621
  58 C :   -0.034047
  59 N :    0.236805
  60 N :    0.212937
  61 H :   -0.035543
  62 H :   -0.029248
  63 H :   -0.029476
  64 H :   -0.026724
  65 H :   -0.033794
  66 H :   -0.028815
  67 H :   -0.034223
  68 C :    0.111641
  69 H :   -0.030983
  70 H :   -0.021620
  71 H :   -0.030096
  72 C :    0.118869
  73 H :   -0.027481
  74 H :   -0.027449
  75 H :   -0.027026
  76 C :    0.109733
  77 H :   -0.031227
  78 H :   -0.031761
  79 H :   -0.026182
  80 C :    0.118097
  81 H :   -0.026080
  82 H :   -0.029375
  83 H :   -0.024166
  84 C :    0.113570
  85 H :   -0.028712
  86 H :   -0.021873
  87 H :   -0.031322
  88 C :    0.119023
  89 H :   -0.027674
  90 H :   -0.026725
  91 H :   -0.027366
  92 C :    0.119003
  93 H :   -0.026733
  94 H :   -0.026926
  95 H :   -0.028000
  96 H :   -0.033791
  97 H :   -0.029014
  98 C :    0.112191
  99 H :   -0.027470
 100 H :   -0.032916
 101 H :   -0.022668

  Mayer bond orders larger than 0.100000
B(  0-C ,  1-C ) :   0.9944 B(  0-C ,  2-C ) :   1.4071 B(  0-C ,  8-C ) :   1.2930
B(  1-C , 13-H ) :   0.9796 B(  1-C , 47-N ) :   1.9748 B(  2-C ,  3-C ) :   1.2997
B(  2-C ,  4-H ) :   0.9636 B(  3-C ,  5-C ) :   1.3873 B(  3-C , 11-C ) :   0.9975
B(  5-C ,  6-C ) :   1.3032 B(  5-C ,  7-H ) :   0.9659 B(  6-C ,  8-C ) :   1.3813
B(  6-C ,  9-C ) :   0.9949 B(  8-C , 10-H ) :   0.9610 B(  9-C , 12-H ) :   0.9884
B(  9-C , 55-N ) :   1.9560 B( 11-C , 14-H ) :   0.9831 B( 11-C , 51-N ) :   1.9610
B( 15-C , 16-C ) :   0.9340 B( 15-C , 17-C ) :   1.3775 B( 15-C , 23-C ) :   1.2749
B( 16-C , 28-H ) :   1.0208 B( 16-C , 48-O ) :   2.0597 B( 17-C , 18-C ) :   1.2821
B( 17-C , 19-H ) :   0.9604 B( 18-C , 20-C ) :   1.4021 B( 18-C , 26-C ) :   1.0109
B( 20-C , 21-C ) :   1.2929 B( 20-C , 22-H ) :   0.9590 B( 21-C , 23-C ) :   1.3927
B( 21-C , 24-C ) :   1.0204 B( 23-C , 25-H ) :   0.9626 B( 24-C , 27-H ) :   0.9748
B( 24-C , 52-N ) :   1.9774 B( 26-C , 29-H ) :   0.9867 B( 26-C , 59-N ) :   1.9668
B( 30-C , 31-C ) :   0.9932 B( 30-C , 32-C ) :   1.3815 B( 30-C , 38-C ) :   1.3010
B( 31-C , 46-N ) :   1.9527 B( 31-C , 61-H ) :   0.9893 B( 32-C , 33-C ) :   1.2943
B( 32-C , 34-H ) :   0.9606 B( 33-C , 35-C ) :   1.3997 B( 33-C , 41-C ) :   1.0008
B( 35-C , 36-C ) :   1.2965 B( 35-C , 37-H ) :   0.9654 B( 36-C , 38-C ) :   1.3894
B( 36-C , 39-C ) :   1.0048 B( 38-C , 40-H ) :   0.9650 B( 39-C , 42-H ) :   0.9926
B( 39-C , 60-N ) :   1.9774 B( 41-C , 43-H ) :   0.9807 B( 41-C , 56-N ) :   1.9762
B( 44-C , 45-C ) :   0.9312 B( 44-C , 46-N ) :   0.9766 B( 44-C , 66-H ) :   0.9888
B( 44-C , 67-H ) :   0.9866 B( 45-C , 47-N ) :   0.9359 B( 45-C , 84-C ) :   0.9553
B( 45-C , 88-C ) :   0.9487 B( 49-C , 50-C ) :   0.9363 B( 49-C , 51-N ) :   0.9561
B( 49-C , 62-H ) :   0.9821 B( 49-C , 63-H ) :   0.9914 B( 50-C , 52-N ) :   0.9460
B( 50-C , 76-C ) :   0.9443 B( 50-C , 80-C ) :   0.9516 B( 53-C , 54-C ) :   0.9335
B( 53-C , 55-N ) :   0.9751 B( 53-C , 96-H ) :   0.9861 B( 53-C , 97-H ) :   0.9885
B( 54-C , 56-N ) :   0.9406 B( 54-C , 92-C ) :   0.9482 B( 54-C , 98-C ) :   0.9520
B( 57-C , 58-C ) :   0.9333 B( 57-C , 59-N ) :   0.9366 B( 57-C , 68-C ) :   0.9520
B( 57-C , 72-C ) :   0.9510 B( 58-C , 60-N ) :   0.9721 B( 58-C , 64-H ) :   0.9856
B( 58-C , 65-H ) :   0.9839 B( 68-C , 69-H ) :   0.9850 B( 68-C , 70-H ) :   0.9799
B( 68-C , 71-H ) :   0.9753 B( 72-C , 73-H ) :   0.9791 B( 72-C , 74-H ) :   0.9815
B( 72-C , 75-H ) :   0.9842 B( 76-C , 77-H ) :   0.9805 B( 76-C , 78-H ) :   0.9866
B( 76-C , 79-H ) :   0.9820 B( 80-C , 81-H ) :   0.9780 B( 80-C , 82-H ) :   0.9810
B( 80-C , 83-H ) :   0.9813 B( 84-C , 85-H ) :   0.9803 B( 84-C , 86-H ) :   0.9793
B( 84-C , 87-H ) :   0.9764 B( 88-C , 89-H ) :   0.9844 B( 88-C , 90-H ) :   0.9784
B( 88-C , 91-H ) :   0.9810 B( 92-C , 93-H ) :   0.9842 B( 92-C , 94-H ) :   0.9779
B( 92-C , 95-H ) :   0.9809 B( 98-C , 99-H ) :   0.9761 B( 98-C ,100-H ) :   0.9838
B( 98-C ,101-H ) :   0.9801

MP2 TOTAL ENERGY:    -2177.342762312 Eh
FINAL SINGLE POINT ENERGY     -2177.342762311866

DIPOLE MOMENT
-------------
                                X             Y             Z
Electronic contribution:     -2.45127      -4.27343      17.07534
Nuclear contribution   :      2.52315       4.45977     -18.31941
                        -----------------------------------------
Total Dipole Moment    :      0.07188       0.18633      -1.24407
                        -----------------------------------------
Magnitude (a.u.)       :      1.26000
Magnitude (Debye)      :      3.20267

Rotational constants in cm-1:     0.001657     0.001486     0.001369
Rotational constants in MHz :    49.674846    44.546787    41.042330

                             ****ORCA TERMINATED NORMALLY****
TOTAL RUN TIME: 0 days 1 hours 50 minutes 13 seconds 371 msec
