                         Program Version 4.2.1 -  RELEASE  -
|  1> ! RI-MP2 cc-pVTZ cc-pVTZ/C TIGHTSCF printbasis Grid6 NOFINALGRID SlowConv
|  2>
|  3> %base "_o_3_alde1_6_ami2_1_opt_MP2"
|  4> %maxcore 3000
|  5> %pal
|  6>    nprocs 32
|  7> end
|  8>
|  9> * xyzfile 0 1 _o_3_alde1_6_ami2_1_opt_B97-3c.xyz
| 10>
| 11>                          ****END OF INPUT****

CARTESIAN COORDINATES (ANGSTROEM)
---------------------------------
  C     -4.028401   -1.337798    0.088552
  C     -4.648316   -1.974676    1.307124
  C     -3.187818   -2.075655   -0.726259
  C     -2.625935   -1.520697   -1.876185
  H     -2.926079   -3.094135   -0.480204
  C     -2.891324   -0.193351   -2.190326
  C     -3.721828    0.573617   -1.375694
  H     -2.454570    0.268664   -3.066063
  C     -4.282477   -0.010389   -0.239242
  C     -3.979898    1.985321   -1.668401
  H     -4.924292    0.585850    0.399982
  C     -1.792336   -2.328736   -2.770326
  H     -4.380028    2.557606   -0.825784
  H     -1.373037   -1.791323   -3.626206
  C      4.118915   -1.578057    0.710341
  C      4.490260   -1.343469    2.146701
  C      4.742422   -0.881838   -0.311867
  C      4.352593   -1.066019   -1.643552
  H      5.532999   -0.178401   -0.097185
  C      3.338242   -1.960951   -1.941131
  C      2.726584   -2.701670   -0.929720
  H      3.015456   -2.111539   -2.962169
  C      3.124435   -2.503094    0.388895
  C      1.690890   -3.685108   -1.242373
  H      2.647712   -3.056448    1.185778
  C      4.955360   -0.291461   -2.727193
  H      1.234174   -4.194888   -0.382677
  H      4.412031   -0.332677   -3.676048
  C      1.145166    2.263344    0.277655
  C      0.730286    1.687127    1.611932
  C      0.206305    2.726111   -0.625539
  C      0.591674    3.147589   -1.901656
  H     -0.837197    2.750993   -0.353449
  C      1.929387    3.106802   -2.267633
  C      2.897471    2.702941   -1.347061
  H      2.246384    3.417459   -3.254510
  C      2.491128    2.281941   -0.082172
  C      4.320062    2.687787   -1.675523
  H      3.238656    1.944390    0.625418
  C     -0.421149    3.599465   -2.857076
  H      4.986798    2.424439   -0.844009
  H     -0.179268    3.451343   -3.920182
  C     -5.476924   -3.974432    2.113401
  C     -4.055047   -3.859164    2.699754
  N     -5.503776   -3.098256    0.950598
  H     -5.749165   -4.990705    1.835700
  N     -3.637537   -2.506961    2.258471
  C     -4.036093   -3.967416    4.214189
  C     -3.124664   -4.901989    2.092470
  C      3.868607   -0.858866    4.274287
  C      4.874526    0.256515    3.826419
  N      3.351798   -1.473892    3.059312
  H      3.056332   -0.465716    4.881910
  N      5.083557   -0.017481    2.382647
  C      6.199501    0.134276    4.560919
  C      4.286517    1.646198    4.010912
  C     -0.181435   -0.494726    2.038286
  C     -1.273646    0.501832    1.629938
  N      1.055107    0.229986    1.650348
  C     -0.293729   -1.817833    1.313984
  C     -0.187884   -0.726682    3.544074
  N     -0.703180    1.821274    1.877566
  H     -2.207757    0.373898    2.171109
  C     -0.843223   -4.400022   -3.490830
  C      0.343421   -4.950322   -2.671108
  N     -1.613654   -3.568940   -2.572596
  C     -1.756675   -5.573143   -3.848446
  C     -0.348523   -3.723852   -4.762789
  N      1.348828   -3.951989   -2.435545
  H      0.803697   -5.748137   -3.258920
  H      0.216394   -4.434446   -5.363326
  C     -3.901448    3.933203   -3.034643
  C     -2.507690    4.423204   -3.486118
  N     -3.735877    2.500790   -2.801111
  C     -4.869289    4.091982   -4.203966
  C     -4.369721    4.764680   -1.846305
  N     -1.520876    4.109387   -2.486378
  H     -2.557264    5.508264   -3.607583
  H     -5.343737    4.440048   -1.482572
  C      6.475700    1.306594   -3.601550
  C      6.197841    2.724417   -3.020799
  N      6.004229    0.402783   -2.564488
  C      7.985369    1.124346   -3.712450
  C      5.829853    1.165124   -4.973490
  N      4.782416    2.932304   -2.835286
  H      6.579319    3.462678   -3.726731
  H      2.613011   -0.873979    2.683223
  H      5.233588   -2.089986    2.452033
  H      4.520625    0.641181    1.855119
  H     -0.835444    2.071499    2.846514
  H      1.314159   -0.060269    0.715071
  H      1.274815    2.204514    2.405766
  H     -3.563065   -1.890922    3.055579
  H     -5.111865   -3.571307    0.146399
  H     -5.263486   -1.223103    1.815917
  H      4.392774   -1.612889    4.864983
  H      4.212923    1.899123    5.067859
  H      3.286074    1.707984    3.581855
  H      4.909585    2.402940    3.533051
  H     -6.208210   -3.621406    2.844678
  H     -3.153244   -4.869042    1.004859
  H     -3.402067   -5.908019    2.407831
  H     -2.097338   -4.714658    2.398340
  H     -1.495050    0.389678    0.569268
  H     -0.097806    0.208363    4.097428
  H      0.642100   -1.368239    3.831917
  H     -1.114091   -1.213252    3.848724
  H     -0.051035   -5.391535   -1.746934
  H     -1.184671   -3.370768   -5.364733
  H      0.312091   -2.889527   -4.547174
  H     -2.273329    3.984827   -4.463505
  H     -4.467644    5.804922   -2.151069
  H     -3.654334    4.726308   -1.028644
  H      6.764837    2.809402   -2.086388
  H      6.883141    0.922809    4.250434
  H      6.669753   -0.823134    4.342192
  H      6.061676    0.202963    5.640974
  H     -3.035034   -3.794062    4.609376
  H     -4.347127   -4.960159    4.535818
  H     -4.713984   -3.244189    4.667322
  H      0.505331   -2.491081    1.611841
  H     -0.248955   -1.684853    0.234407
  H     -1.246796   -2.283003    1.551425
  H     -1.236698   -6.291885   -4.480254
  H     -2.631564   -5.215083   -4.387846
  H     -2.100125   -6.079972   -2.949483
  H      5.963564    0.158376   -5.367386
  H      6.298965    1.858219   -5.668556
  H      4.768772    1.394908   -4.947980
  H      8.452310    1.197408   -2.733298
  H      8.417496    1.879096   -4.368218
  H      8.216142    0.142220   -4.122152
  H     -4.908593    5.130512   -4.530483
  H     -5.872614    3.787419   -3.911352
  H     -4.560917    3.473820   -5.043754

 Total Charge           Charge          ....    0
 Multiplicity           Mult            ....    1
 Number of Electrons    NEL             ....  462
 Basis Dimension        Dim             .... 2898

ORBITAL ENERGIES
----------------

  NO   OCC          E(Eh)            E(eV)
   0   2.0000     -15.549787      -423.1312
   1   2.0000     -15.549692      -423.1286
   2   2.0000     -15.549114      -423.1129
   3   2.0000     -15.547816      -423.0776
   4   2.0000     -15.547717      -423.0749
   5   2.0000     -15.545168      -423.0055
   6   2.0000     -15.544740      -422.9939
   7   2.0000     -15.544319      -422.9824
   8   2.0000     -15.544018      -422.9742
   9   2.0000     -15.542921      -422.9444
  10   2.0000     -15.535592      -422.7450
  11   2.0000     -15.528539      -422.5530
  12   2.0000     -11.291899      -307.2682
  13   2.0000     -11.289898      -307.2137
  14   2.0000     -11.277164      -306.8672
  15   2.0000     -11.276511      -306.8495
  16   2.0000     -11.275365      -306.8183
  17   2.0000     -11.273652      -306.7717
  18   2.0000     -11.273604      -306.7704
  19   2.0000     -11.272881      -306.7507
  20   2.0000     -11.270233      -306.6786
  21   2.0000     -11.264869      -306.5327
  22   2.0000     -11.261565      -306.4428
  23   2.0000     -11.259781      -306.3942
  24   2.0000     -11.258058      -306.3473
  25   2.0000     -11.255671      -306.2824
  26   2.0000     -11.254653      -306.2547
  27   2.0000     -11.249601      -306.1172
  28   2.0000     -11.245665      -306.0101
  29   2.0000     -11.244598      -305.9811
  30   2.0000     -11.243336      -305.9467
  31   2.0000     -11.241646      -305.9007
  32   2.0000     -11.241495      -305.8966
  33   2.0000     -11.241458      -305.8956
  34   2.0000     -11.241218      -305.8891
  35   2.0000     -11.240200      -305.8614
  36   2.0000     -11.240088      -305.8583
  37   2.0000     -11.239881      -305.8527
  38   2.0000     -11.239010      -305.8290
  39   2.0000     -11.238308      -305.8099
  40   2.0000     -11.238161      -305.8059
  41   2.0000     -11.238088      -305.8039
  42   2.0000     -11.237711      -305.7937
  43   2.0000     -11.236771      -305.7681
  44   2.0000     -11.236575      -305.7628
  45   2.0000     -11.236368      -305.7571
  46   2.0000     -11.235456      -305.7323
  47   2.0000     -11.234701      -305.7117
  48   2.0000     -11.233955      -305.6915
  49   2.0000     -11.231030      -305.6119
  50   2.0000     -11.228873      -305.5532
  51   2.0000     -11.223570      -305.4089
  52   2.0000     -11.215452      -305.1880
  53   2.0000     -11.213335      -305.1304
  54   2.0000     -11.210932      -305.0650
  55   2.0000     -11.209176      -305.0172
  56   2.0000     -11.208187      -304.9903
  57   2.0000     -11.207180      -304.9629
  58   2.0000     -11.206460      -304.9433
  59   2.0000     -11.204891      -304.9006
  60   2.0000     -11.204321      -304.8851
  61   2.0000     -11.204246      -304.8830
  62   2.0000     -11.200287      -304.7753
  63   2.0000      -1.278991       -34.8031
  64   2.0000      -1.275585       -34.7104
  65   2.0000      -1.269946       -34.5570
  66   2.0000      -1.249440       -33.9990
  67   2.0000      -1.248313       -33.9683
  68   2.0000      -1.247756       -33.9532
  69   2.0000      -1.224657       -33.3246
  70   2.0000      -1.220988       -33.2248
  71   2.0000      -1.215565       -33.0772
  72   2.0000      -1.166752       -31.7489
  73   2.0000      -1.161188       -31.5975
  74   2.0000      -1.158411       -31.5220
  75   2.0000      -1.150851       -31.3163
  76   2.0000      -1.148359       -31.2484
  77   2.0000      -1.137737       -30.9594
  78   2.0000      -1.086144       -29.5555
  79   2.0000      -1.083507       -29.4837
  80   2.0000      -1.079048       -29.3624
  81   2.0000      -1.071591       -29.1595
  82   2.0000      -1.067402       -29.0455
  83   2.0000      -1.058194       -28.7949
  84   2.0000      -1.042865       -28.3778
  85   2.0000      -1.029908       -28.0252
  86   2.0000      -1.024209       -27.8701
  87   2.0000      -1.021739       -27.8029
  88   2.0000      -1.018988       -27.7281
  89   2.0000      -1.017851       -27.6971
  90   2.0000      -0.946317       -25.7506
  91   2.0000      -0.941191       -25.6111
  92   2.0000      -0.940829       -25.6012
  93   2.0000      -0.939494       -25.5649
  94   2.0000      -0.938717       -25.5438
  95   2.0000      -0.937722       -25.5167
  96   2.0000      -0.937421       -25.5085
  97   2.0000      -0.936804       -25.4917
  98   2.0000      -0.931822       -25.3562
  99   2.0000      -0.928330       -25.2611
 100   2.0000      -0.923677       -25.1345
 101   2.0000      -0.914671       -24.8895
 102   2.0000      -0.891715       -24.2648
 103   2.0000      -0.881940       -23.9988
 104   2.0000      -0.880786       -23.9674
 105   2.0000      -0.869703       -23.6658
 106   2.0000      -0.861221       -23.4350
 107   2.0000      -0.859676       -23.3930
 108   2.0000      -0.850009       -23.1299
 109   2.0000      -0.840356       -22.8672
 110   2.0000      -0.830007       -22.5856
 111   2.0000      -0.795340       -21.6423
 112   2.0000      -0.788967       -21.4689
 113   2.0000      -0.788328       -21.4515
 114   2.0000      -0.772307       -21.0155
 115   2.0000      -0.770622       -20.9697
 116   2.0000      -0.763640       -20.7797
 117   2.0000      -0.760214       -20.6865
 118   2.0000      -0.752972       -20.4894
 119   2.0000      -0.746727       -20.3195
 120   2.0000      -0.737714       -20.0742
 121   2.0000      -0.719192       -19.5702
 122   2.0000      -0.714355       -19.4386
 123   2.0000      -0.703800       -19.1514
 124   2.0000      -0.701074       -19.0772
 125   2.0000      -0.697991       -18.9933
 126   2.0000      -0.696796       -18.9608
 127   2.0000      -0.684936       -18.6381
 128   2.0000      -0.676165       -18.3994
 129   2.0000      -0.672991       -18.3130
 130   2.0000      -0.670597       -18.2479
 131   2.0000      -0.670226       -18.2378
 132   2.0000      -0.665110       -18.0986
 133   2.0000      -0.658663       -17.9231
 134   2.0000      -0.653948       -17.7948
 135   2.0000      -0.651814       -17.7367
 136   2.0000      -0.643795       -17.5186
 137   2.0000      -0.642272       -17.4771
 138   2.0000      -0.636994       -17.3335
 139   2.0000      -0.635583       -17.2951
 140   2.0000      -0.633203       -17.2303
 141   2.0000      -0.627984       -17.0883
 142   2.0000      -0.625893       -17.0314
 143   2.0000      -0.622044       -16.9267
 144   2.0000      -0.620704       -16.8902
 145   2.0000      -0.619030       -16.8447
 146   2.0000      -0.617951       -16.8153
 147   2.0000      -0.613714       -16.7000
 148   2.0000      -0.612352       -16.6629
 149   2.0000      -0.610187       -16.6040
 150   2.0000      -0.607675       -16.5357
 151   2.0000      -0.603242       -16.4150
 152   2.0000      -0.601246       -16.3607
 153   2.0000      -0.597793       -16.2668
 154   2.0000      -0.596039       -16.2190
 155   2.0000      -0.592726       -16.1289
 156   2.0000      -0.584646       -15.9090
 157   2.0000      -0.583232       -15.8705
 158   2.0000      -0.580103       -15.7854
 159   2.0000      -0.565136       -15.3781
 160   2.0000      -0.563267       -15.3273
 161   2.0000      -0.559808       -15.2331
 162   2.0000      -0.557720       -15.1763
 163   2.0000      -0.556076       -15.1316
 164   2.0000      -0.550787       -14.9877
 165   2.0000      -0.550185       -14.9713
 166   2.0000      -0.549054       -14.9405
 167   2.0000      -0.545152       -14.8343
 168   2.0000      -0.544282       -14.8107
 169   2.0000      -0.542962       -14.7747
 170   2.0000      -0.540030       -14.6950
 171   2.0000      -0.538266       -14.6469
 172   2.0000      -0.537010       -14.6128
 173   2.0000      -0.534545       -14.5457
 174   2.0000      -0.533652       -14.5214
 175   2.0000      -0.533069       -14.5055
 176   2.0000      -0.530873       -14.4458
 177   2.0000      -0.529490       -14.4081
 178   2.0000      -0.528554       -14.3827
 179   2.0000      -0.526187       -14.3183
 180   2.0000      -0.525069       -14.2879
 181   2.0000      -0.523832       -14.2542
 182   2.0000      -0.519927       -14.1479
 183   2.0000      -0.519386       -14.1332
 184   2.0000      -0.518775       -14.1166
 185   2.0000      -0.513881       -13.9834
 186   2.0000      -0.512594       -13.9484
 187   2.0000      -0.511617       -13.9218
 188   2.0000      -0.509385       -13.8611
 189   2.0000      -0.506662       -13.7870
 190   2.0000      -0.505843       -13.7647
 191   2.0000      -0.504257       -13.7215
 192   2.0000      -0.502938       -13.6856
 193   2.0000      -0.496803       -13.5187
 194   2.0000      -0.491937       -13.3863
 195   2.0000      -0.489076       -13.3084
 196   2.0000      -0.486823       -13.2471
 197   2.0000      -0.484393       -13.1810
 198   2.0000      -0.483915       -13.1680
 199   2.0000      -0.480114       -13.0646
 200   2.0000      -0.478771       -13.0280
 201   2.0000      -0.475940       -12.9510
 202   2.0000      -0.473969       -12.8974
 203   2.0000      -0.471908       -12.8413
 204   2.0000      -0.470458       -12.8018
 205   2.0000      -0.467232       -12.7140
 206   2.0000      -0.464899       -12.6506
 207   2.0000      -0.451007       -12.2725
 208   2.0000      -0.439272       -11.9532
 209   2.0000      -0.436527       -11.8785
 210   2.0000      -0.414010       -11.2658
 211   2.0000      -0.409690       -11.1482
 212   2.0000      -0.405231       -11.0269
 213   2.0000      -0.402549       -10.9539
 214   2.0000      -0.401303       -10.9200
 215   2.0000      -0.398057       -10.8317
 216   2.0000      -0.396942       -10.8013
 217   2.0000      -0.395788       -10.7699
 218   2.0000      -0.393655       -10.7119
 219   2.0000      -0.392006       -10.6670
 220   2.0000      -0.390157       -10.6167
 221   2.0000      -0.385150       -10.4805
 222   2.0000      -0.377197       -10.2641
 223   2.0000      -0.375903       -10.2288
 224   2.0000      -0.368067       -10.0156
 225   2.0000      -0.330209        -8.9855
 226   2.0000      -0.326477        -8.8839
 227   2.0000      -0.323190        -8.7944
 228   2.0000      -0.318206        -8.6588
 229   2.0000      -0.316835        -8.6215
 230   2.0000      -0.313634        -8.5344
 231   0.0000       0.076502         2.0817
 232   0.0000       0.079451         2.1620
 233   0.0000       0.082861         2.2548
 234   0.0000       0.097399         2.6504
 235   0.0000       0.100594         2.7373

MULLIKEN ATOMIC CHARGES
-----------------------
   0 C :    0.135206
   1 C :    0.022692
   2 C :   -0.221409
   3 C :    0.122186
   4 H :    0.191223
   5 C :   -0.186638
   6 C :    0.175108
   7 H :    0.153982
   8 C :   -0.236203
   9 C :   -0.129614
  10 H :    0.139446
  11 C :   -0.104980
  12 H :    0.100218
  13 H :    0.106944
  14 C :    0.017107
  15 C :    0.159951
  16 C :   -0.250252
  17 C :    0.216113
  18 H :    0.195445
  19 C :   -0.226259
  20 C :    0.175122
  21 H :    0.162227
  22 C :   -0.271256
  23 C :   -0.104662
  24 H :    0.176212
  25 C :   -0.112657
  26 H :    0.100484
  27 H :    0.103147
  28 C :    0.055785
  29 C :    0.046610
  30 C :   -0.224421
  31 C :    0.209034
  32 H :    0.203769
  33 C :   -0.241175
  34 C :    0.187150
  35 H :    0.159209
  36 C :   -0.258978
  37 C :   -0.126794
  38 H :    0.164207
  39 C :   -0.113684
  40 H :    0.111640
  41 H :    0.089265
  42 C :   -0.089226
  43 C :    0.109294
  44 N :   -0.252720
  45 H :    0.111401
  46 N :   -0.305625
  47 C :   -0.322162
  48 C :   -0.339635
  49 C :   -0.120035
  50 C :    0.123361
  51 N :   -0.331501
  52 H :    0.101173
  53 N :   -0.326059
  54 C :   -0.288973
  55 C :   -0.340942
  56 C :    0.169282
  57 C :   -0.111517
  58 N :   -0.340605
  59 C :   -0.393175
  60 C :   -0.361286
  61 N :   -0.265078
  62 H :    0.099434
  63 C :    0.167257
  64 C :   -0.031683
  65 N :   -0.279188
  66 C :   -0.298615
  67 C :   -0.350303
  68 N :   -0.261068
  69 H :    0.106848
  70 H :    0.112564
  71 C :    0.183412
  72 C :   -0.018228
  73 N :   -0.276847
  74 C :   -0.297443
  75 C :   -0.358917
  76 N :   -0.256508
  77 H :    0.101216
  78 H :    0.100035
  79 C :    0.169374
  80 C :   -0.035916
  81 N :   -0.286351
  82 C :   -0.296592
  83 C :   -0.353956
  84 N :   -0.271958
  85 H :    0.109025
  86 H :    0.159077
  87 H :    0.101806
  88 H :    0.112720
  89 H :    0.098374
  90 H :    0.136390
  91 H :    0.113253
  92 H :    0.118654
  93 H :    0.110927
  94 H :    0.102574
  95 H :    0.100574
  96 H :    0.110523
  97 H :    0.092273
  98 H :    0.112027
  99 H :    0.089897
 100 H :    0.102139
 101 H :    0.117064
 102 H :    0.110939
 103 H :    0.113202
 104 H :    0.092622
 105 H :    0.123194
 106 H :    0.109724
 107 H :    0.075060
 108 H :    0.106484
 109 H :    0.117200
 110 H :    0.070883
 111 H :    0.111077
 112 H :    0.124670
 113 H :    0.080822
 114 H :    0.099163
 115 H :    0.100351
 116 H :    0.088232
 117 H :    0.112428
 118 H :    0.106548
 119 H :    0.096125
 120 H :    0.123046
 121 H :    0.122879
 122 H :    0.138544
 123 H :    0.091368
 124 H :    0.103600
 125 H :    0.103729
 126 H :    0.105678
 127 H :    0.112846
 128 H :    0.116516
 129 H :    0.106916
 130 H :    0.087717
 131 H :    0.100859
 132 H :    0.089894
 133 H :    0.101458
 134 H :    0.105890
Sum of atomic charges:   -0.0000000

LOEWDIN ATOMIC CHARGES
----------------------
   0 C :   -0.049523
   1 C :   -0.139655
   2 C :    0.081290
   3 C :   -0.074933
   4 H :   -0.025773
   5 C :    0.078964
   6 C :   -0.072039
   7 H :   -0.021130
   8 C :    0.062753
   9 C :   -0.070691
  10 H :   -0.024058
  11 C :   -0.067983
  12 H :   -0.035222
  13 H :   -0.033202
  14 C :   -0.045015
  15 C :   -0.155513
  16 C :    0.079055
  17 C :   -0.074036
  18 H :   -0.022789
  19 C :    0.078034
  20 C :   -0.079398
  21 H :   -0.021908
  22 C :    0.070673
  23 C :   -0.069497
  24 H :   -0.024146
  25 C :   -0.066768
  26 H :   -0.034313
  27 H :   -0.033114
  28 C :   -0.051334
  29 C :   -0.127679
  30 C :    0.082103
  31 C :   -0.070828
  32 H :   -0.023093
  33 C :    0.078077
  34 C :   -0.074077
  35 H :   -0.020599
  36 C :    0.060470
  37 C :   -0.069737
  38 H :   -0.027765
  39 C :   -0.069892
  40 H :   -0.033591
  41 H :   -0.036682
  42 C :    0.000222
  43 C :   -0.183052
  44 N :    0.315612
  45 H :   -0.027270
  46 N :    0.330925
  47 C :    0.112779
  48 C :    0.109809
  49 C :    0.000370
  50 C :   -0.168880
  51 N :    0.292319
  52 H :   -0.034610
  53 N :    0.310418
  54 C :    0.108716
  55 C :    0.107583
  56 C :   -0.180266
  57 C :   -0.003256
  58 N :    0.332961
  59 C :    0.118449
  60 C :    0.113130
  61 N :    0.323777
  62 H :   -0.032806
  63 C :   -0.205987
  64 C :   -0.036117
  65 N :    0.237430
  66 C :    0.117857
  67 C :    0.111685
  68 N :    0.224191
  69 H :   -0.025027
  70 H :   -0.021701
  71 C :   -0.206056
  72 C :   -0.031077
  73 N :    0.238510
  74 C :    0.117915
  75 C :    0.110506
  76 N :    0.228640
  77 H :   -0.026352
  78 H :   -0.032599
  79 C :   -0.206685
  80 C :   -0.030729
  81 N :    0.235523
  82 C :    0.117390
  83 C :    0.111182
  84 N :    0.207405
  85 H :   -0.028643
  86 H :   -0.133931
  87 H :   -0.021063
  88 H :   -0.123762
  89 H :   -0.119692
  90 H :   -0.117096
  91 H :   -0.034174
  92 H :   -0.127182
  93 H :   -0.114226
  94 H :   -0.029762
  95 H :   -0.031435
  96 H :   -0.024284
  97 H :   -0.032224
  98 H :   -0.026286
  99 H :   -0.029351
 100 H :   -0.031899
 101 H :   -0.028812
 102 H :   -0.026337
 103 H :   -0.026674
 104 H :   -0.035461
 105 H :   -0.025029
 106 H :   -0.030382
 107 H :   -0.034730
 108 H :   -0.030365
 109 H :   -0.033136
 110 H :   -0.035082
 111 H :   -0.023596
 112 H :   -0.027807
 113 H :   -0.032990
 114 H :   -0.027211
 115 H :   -0.028196
 116 H :   -0.030560
 117 H :   -0.025701
 118 H :   -0.022271
 119 H :   -0.030562
 120 H :   -0.032496
 121 H :   -0.029217
 122 H :   -0.031124
 123 H :   -0.028998
 124 H :   -0.027672
 125 H :   -0.027965
 126 H :   -0.029887
 127 H :   -0.022856
 128 H :   -0.032076
 129 H :   -0.026677
 130 H :   -0.028979
 131 H :   -0.027154
 132 H :   -0.028028
 133 H :   -0.027931
 134 H :   -0.027291

  Mayer bond orders larger than 0.100000
B(  0-C ,  1-C ) :   0.9825 B(  0-C ,  2-C ) :   1.3677 B(  0-C ,  8-C ) :   1.3410
B(  1-C , 44-N ) :   1.0489 B(  1-C , 46-N ) :   1.0066 B(  1-C , 94-H ) :   1.0036
B(  2-C ,  3-C ) :   1.3448 B(  2-C ,  4-H ) :   0.9459 B(  3-C ,  5-C ) :   1.3607
B(  3-C , 11-C ) :   1.0150 B(  5-C ,  6-C ) :   1.3319 B(  5-C ,  7-H ) :   0.9642
B(  6-C ,  8-C ) :   1.3873 B(  6-C ,  9-C ) :   0.9925 B(  8-C , 10-H ) :   0.9748
B(  9-C , 12-H ) :   0.9835 B(  9-C , 73-N ) :   1.9733 B( 11-C , 13-H ) :   0.9821
B( 11-C , 65-N ) :   1.9568 B( 14-C , 15-C ) :   1.0757 B( 14-C , 16-C ) :   1.3948
B( 14-C , 22-C ) :   1.3495 B( 15-C , 51-N ) :   1.0212 B( 15-C , 53-N ) :   1.0326
B( 15-C , 87-H ) :   0.9598 B( 16-C , 17-C ) :   1.2549 B( 16-C , 18-H ) :   0.9443
B( 17-C , 19-C ) :   1.3912 B( 17-C , 25-C ) :   1.0150 B( 19-C , 20-C ) :   1.3196
B( 19-C , 21-H ) :   0.9626 B( 20-C , 22-C ) :   1.3584 B( 20-C , 23-C ) :   0.9940
B( 22-C , 24-H ) :   0.9578 B( 23-C , 26-H ) :   0.9918 B( 23-C , 68-N ) :   1.9858
B( 25-C , 27-H ) :   0.9858 B( 25-C , 81-N ) :   1.9657 B( 28-C , 29-C ) :   1.0288
B( 28-C , 30-C ) :   1.3601 B( 28-C , 36-C ) :   1.3637 B( 29-C , 58-N ) :   0.9940
B( 29-C , 61-N ) :   1.0288 B( 29-C , 91-H ) :   0.9995 B( 30-C , 31-C ) :   1.2979
B( 30-C , 32-H ) :   0.9359 B( 31-C , 33-C ) :   1.3651 B( 31-C , 39-C ) :   0.9704
B( 33-C , 34-C ) :   1.3171 B( 33-C , 35-H ) :   0.9671 B( 34-C , 36-C ) :   1.3871
B( 34-C , 37-C ) :   0.9892 B( 36-C , 38-H ) :   0.9549 B( 37-C , 40-H ) :   0.9948
B( 37-C , 84-N ) :   1.9520 B( 39-C , 41-H ) :   0.9850 B( 39-C , 76-N ) :   2.0035
B( 42-C , 43-C ) :   0.9409 B( 42-C , 44-N ) :   0.9960 B( 42-C , 45-H ) :   0.9897
B( 42-C , 99-H ) :   0.9899 B( 43-C , 46-N ) :   0.9970 B( 43-C , 47-C ) :   0.9511
B( 43-C , 48-C ) :   0.9513 B( 44-N , 93-H ) :   1.0026 B( 46-N , 92-H ) :   0.9725
B( 47-C ,117-H ) :   0.9821 B( 47-C ,118-H ) :   0.9807 B( 47-C ,119-H ) :   0.9827
B( 48-C ,100-H ) :   0.9774 B( 48-C ,101-H ) :   0.9840 B( 48-C ,102-H ) :   0.9833
B( 49-C , 50-C ) :   0.9250 B( 49-C , 51-N ) :   1.0071 B( 49-C , 52-H ) :   0.9914
B( 49-C , 95-H ) :   0.9969 B( 50-C , 53-N ) :   0.9659 B( 50-C , 54-C ) :   0.9633
B( 50-C , 55-C ) :   0.9400 B( 51-N , 86-H ) :   0.9458 B( 53-N , 88-H ) :   0.9864
B( 54-C ,114-H ) :   0.9831 B( 54-C ,115-H ) :   0.9795 B( 54-C ,116-H ) :   0.9832
B( 55-C , 96-H ) :   0.9851 B( 55-C , 97-H ) :   0.9817 B( 55-C , 98-H ) :   0.9852
B( 56-C , 57-C ) :   0.9485 B( 56-C , 58-N ) :   0.9507 B( 56-C , 59-C ) :   0.9566
B( 56-C , 60-C ) :   0.9498 B( 57-C , 61-N ) :   0.9870 B( 57-C , 62-H ) :   0.9914
B( 57-C ,103-H ) :   0.9770 B( 58-N , 90-H ) :   0.9579 B( 59-C ,120-H ) :   0.9824
B( 59-C ,121-H ) :   0.9721 B( 59-C ,122-H ) :   0.9659 B( 60-C ,104-H ) :   0.9795
B( 60-C ,105-H ) :   0.9809 B( 60-C ,106-H ) :   0.9834 B( 61-N , 89-H ) :   1.0074
B( 63-C , 64-C ) :   0.9389 B( 63-C , 65-N ) :   0.9393 B( 63-C , 66-C ) :   0.9534
B( 63-C , 67-C ) :   0.9541 B( 64-C , 68-N ) :   0.9777 B( 64-C , 69-H ) :   0.9805
B( 64-C ,107-H ) :   0.9812 B( 66-C ,123-H ) :   0.9808 B( 66-C ,124-H ) :   0.9823
B( 66-C ,125-H ) :   0.9839 B( 67-C , 70-H ) :   0.9795 B( 67-C ,108-H ) :   0.9850
B( 67-C ,109-H ) :   0.9752 B( 71-C , 72-C ) :   0.9387 B( 71-C , 73-N ) :   0.9411
B( 71-C , 74-C ) :   0.9515 B( 71-C , 75-C ) :   0.9514 B( 72-C , 76-N ) :   0.9721
B( 72-C , 77-H ) :   0.9794 B( 72-C ,110-H ) :   0.9830 B( 74-C ,132-H ) :   0.9790
B( 74-C ,133-H ) :   0.9828 B( 74-C ,134-H ) :   0.9846 B( 75-C , 78-H ) :   0.9855
B( 75-C ,111-H ) :   0.9812 B( 75-C ,112-H ) :   0.9757 B( 79-C , 80-C ) :   0.9244
B( 79-C , 81-N ) :   0.9424 B( 79-C , 82-C ) :   0.9510 B( 79-C , 83-C ) :   0.9515
B( 80-C , 84-N ) :   0.9743 B( 80-C , 85-H ) :   0.9868 B( 80-C ,113-H ) :   0.9818
B( 82-C ,129-H ) :   0.9842 B( 82-C ,130-H ) :   0.9814 B( 82-C ,131-H ) :   0.9824
B( 83-C ,126-H ) :   0.9861 B( 83-C ,127-H ) :   0.9804 B( 83-C ,128-H ) :   0.9743

MP2 TOTAL ENERGY:    -2638.274031182 Eh
FINAL SINGLE POINT ENERGY     -2638.274031182435

DIPOLE MOMENT
-------------
                                X             Y             Z
Electronic contribution:      4.24749      12.78376     -17.62715
Nuclear contribution   :     -5.39583     -13.06117      18.67762
                        -----------------------------------------
Total Dipole Moment    :     -1.14834      -0.27741       1.05046
                        -----------------------------------------
Magnitude (a.u.)       :      1.58086
Magnitude (Debye)      :      4.01822

Rotational constants in cm-1:     0.001420     0.001005     0.000871
Rotational constants in MHz :    42.565460    30.121849    26.110038

                             ****ORCA TERMINATED NORMALLY****
TOTAL RUN TIME: 0 days 4 hours 45 minutes 45 seconds 486 msec
