                         Program Version 4.2.1 -  RELEASE  -
|  1> ! RI-MP2 cc-pVTZ cc-pVTZ/C TIGHTSCF printbasis Grid6 NOFINALGRID SlowConv
|  2>
|  3> %base "_o_3_alde1_5_ami3_1_opt_MP2"
|  4> %maxcore 3000
|  5> %pal
|  6>    nprocs 32
|  7> end
|  8>
|  9> * xyzfile 0 1 _o_3_alde1_5_ami3_1_opt_B97-3c.xyz
| 10>
| 11>                          ****END OF INPUT****

CARTESIAN COORDINATES (ANGSTROEM)
---------------------------------
  C     -2.809283   -1.995845   -0.476480
  C     -2.862245   -1.666166    0.945880
  C     -2.113722   -3.092983   -0.994538
  C     -2.077166   -3.321994   -2.365992
  H     -1.608713   -3.764670   -0.312807
  C     -2.681266   -2.403507   -3.230009
  C     -3.382992   -1.316014   -2.733500
  H     -2.601964   -2.571669   -4.295746
  C     -3.467882   -1.139485   -1.351270
  C     -3.955479   -0.331201   -3.652868
  H     -4.020355   -0.290746   -0.973589
  C     -1.412989   -4.513311   -2.894747
  H     -3.515740   -0.321062   -4.660426
  H     -3.619887   -0.912828    1.194729
  H     -0.981620   -5.187162   -2.144098
  C      2.230897   -2.914159   -0.200626
  C      1.848838   -3.511791    1.124595
  C      2.890832   -1.692718   -0.281574
  C      3.250502   -1.151359   -1.513983
  H      3.082313   -1.141638    0.630016
  C      2.900689   -1.829610   -2.683454
  C      2.253908   -3.054543   -2.615998
  H      3.135348   -1.375765   -3.637208
  C      1.936523   -3.595864   -1.365759
  C      1.804370   -3.731704   -3.830959
  H      1.416957   -4.543107   -1.332950
  C      3.936330    0.136164   -1.552177
  H      1.732789   -3.109735   -4.734585
  H      4.091771    0.610789   -0.573624
  C     -0.620492    1.561473    0.315879
  C     -0.473090    0.750072    1.524755
  C     -1.885628    1.921883   -0.154700
  C     -2.043843    2.504241   -1.404833
  H     -2.748944    1.672637    0.447124
  C     -0.913754    2.764249   -2.184675
  C      0.355414    2.481326   -1.701816
  H     -1.049934    3.176961   -3.175543
  C      0.493551    1.861522   -0.455768
  C      1.530702    2.750952   -2.530353
  H      1.483834    1.582483   -0.123497
  C     -3.396128    2.692072   -1.920653
  H      1.349764    2.793286   -3.614091
  H     -4.198416    2.477084   -1.203001
  C     -1.238047   -0.421027    3.385847
  C     -2.269297   -1.553097    3.171010
  N     -1.426149    0.558583    2.344132
  H     -0.235407   -0.862240    3.341670
  C     -1.439127    0.197565    4.764713
  N     -2.097680   -2.132797    1.850302
  H     -3.257021   -1.079274    3.258661
  C     -2.134678   -2.604287    4.261205
  H     -2.415865    0.684693    4.787988
  C     -1.342356   -0.843333    5.870172
  H     -1.151648   -3.074332    4.182213
  C     -2.312065   -1.993529    5.642856
  H     -1.530237   -0.374234    6.837391
  H     -0.323716   -1.236050    5.911418
  H     -2.181811   -2.759095    6.409571
  H     -3.336772   -1.625513    5.745077
  C      2.569712   -2.796171    3.243335
  C      2.875343   -4.275232    3.051570
  N      1.606513   -2.496671    2.188744
  H      3.494179   -2.247735    3.019000
  C      2.205572   -2.498853    4.675739
  N      2.904579   -4.432660    1.603529
  H      2.010578   -4.839549    3.423136
  C      4.087466   -4.688807    3.845343
  H      1.305705   -3.056821    4.950026
  C      3.380608   -2.929109    5.557660
  H      4.961091   -4.128527    3.498125
  C      3.818230   -4.374881    5.319022
  H      3.128101   -2.791369    6.609663
  H      4.225294   -2.265225    5.356215
  H      4.706242   -4.589897    5.914585
  H      3.037038   -5.048080    5.681538
  C     -0.605204   -5.935914   -4.556793
  C      0.814758   -5.505979   -4.989562
  N     -1.338605   -4.763600   -4.138535
  H     -0.468260   -6.640335   -3.724432
  C     -1.328261   -6.637179   -5.697355
  N      1.451958   -4.950498   -3.826302
  H      0.706358   -4.764308   -5.794909
  C      1.594628   -6.706125   -5.512702
  H     -1.494843   -5.914108   -6.498477
  C     -0.535771   -7.824610   -6.219683
  H      1.757223   -7.399175   -4.685028
  C      0.862112   -7.404325   -6.646697
  H     -1.066648   -8.289182   -7.051990
  H     -0.458532   -8.585349   -5.437596
  H      1.436757   -8.268878   -6.982606
  H      0.787675   -6.728802   -7.503717
  C     -5.221281    1.534568   -4.245964
  C     -5.034372    2.896774   -3.540635
  N     -4.854259    0.496980   -3.311852
  H     -4.566056    1.529060   -5.129185
  C     -6.665793    1.381017   -4.706274
  N     -3.653888    2.994743   -3.127814
  H     -5.710434    2.887014   -2.673146
  C     -5.429939    4.032208   -4.470448
  H     -7.312553    1.345008   -3.827468
  C     -7.078541    2.525074   -5.620294
  H     -4.743337    4.043587   -5.319501
  C     -6.863635    3.876254   -4.954320
  H     -8.122507    2.406237   -5.914416
  H     -6.490408    2.482220   -6.541385
  H     -7.115313    4.684221   -5.643148
  H     -7.546555    3.969901   -4.105072
  C      4.884269    2.022246   -2.520276
  C      3.810370    3.044066   -2.937327
  N      4.320246    0.697238   -2.626098
  H      5.147094    2.262337   -1.479371
  C      6.121267    2.162825   -3.394367
  N      2.690539    2.896931   -2.039282
  H      3.526984    2.824808   -3.977066
  C      4.376026    4.458341   -2.870389
  H      5.853806    1.897348   -4.419251
  C      6.679374    3.576665   -3.345456
  H      4.607185    4.693208   -1.829512
  C      5.621925    4.600306   -3.730898
  H      7.546690    3.658264   -4.002505
  H      7.034987    3.793660   -2.334052
  H      6.019536    5.612624   -3.642571
  H      5.355242    4.462586   -4.782636
  H      0.494590    0.245706    1.640002
  H      3.798334   -4.101797    1.253165
  H      0.928910   -4.085308    0.988279
  H      0.658371   -2.613049    2.521448
  H     -0.696220    0.982822    4.909862
  H     -2.867172   -3.393663    4.089163
  H      1.983850   -1.441643    4.825848
  H      4.312165   -5.746981    3.710425
  H     -2.314494   -6.949329   -5.351564
  H      2.580939   -6.370078   -5.835154
  H     -6.774937    0.422166   -5.214621
  H     -5.297232    4.982187   -3.951357
  H      6.869896    1.438130   -3.072137
  H      3.604679    5.162092   -3.185825

 Total Charge           Charge          ....    0
 Multiplicity           Mult            ....    1
 Number of Electrons    NEL             ....  482
 Basis Dimension        Dim             .... 2990

ORBITAL ENERGIES
----------------

  NO   OCC          E(Eh)            E(eV)
   0   2.0000     -15.551189      -423.1694
   1   2.0000     -15.550850      -423.1601
   2   2.0000     -15.549482      -423.1229
   3   2.0000     -15.547162      -423.0598
   4   2.0000     -15.546831      -423.0508
   5   2.0000     -15.546277      -423.0357
   6   2.0000     -15.545402      -423.0119
   7   2.0000     -15.544826      -422.9962
   8   2.0000     -15.541927      -422.9173
   9   2.0000     -15.539911      -422.8625
  10   2.0000     -11.284013      -307.0536
  11   2.0000     -11.278664      -306.9081
  12   2.0000     -11.278447      -306.9021
  13   2.0000     -11.276400      -306.8464
  14   2.0000     -11.275738      -306.8284
  15   2.0000     -11.274926      -306.8063
  16   2.0000     -11.274620      -306.7980
  17   2.0000     -11.274049      -306.7825
  18   2.0000     -11.272964      -306.7530
  19   2.0000     -11.250737      -306.1481
  20   2.0000     -11.249715      -306.1203
  21   2.0000     -11.249024      -306.1015
  22   2.0000     -11.247986      -306.0733
  23   2.0000     -11.247932      -306.0718
  24   2.0000     -11.247422      -306.0579
  25   2.0000     -11.247341      -306.0557
  26   2.0000     -11.246096      -306.0218
  27   2.0000     -11.246035      -306.0202
  28   2.0000     -11.245482      -306.0051
  29   2.0000     -11.245475      -306.0049
  30   2.0000     -11.244650      -305.9825
  31   2.0000     -11.244249      -305.9716
  32   2.0000     -11.243985      -305.9644
  33   2.0000     -11.243596      -305.9538
  34   2.0000     -11.243457      -305.9500
  35   2.0000     -11.243448      -305.9498
  36   2.0000     -11.243294      -305.9456
  37   2.0000     -11.242709      -305.9297
  38   2.0000     -11.241789      -305.9046
  39   2.0000     -11.241109      -305.8861
  40   2.0000     -11.240713      -305.8753
  41   2.0000     -11.238232      -305.8078
  42   2.0000     -11.237274      -305.7818
  43   2.0000     -11.236525      -305.7614
  44   2.0000     -11.234585      -305.7086
  45   2.0000     -11.233647      -305.6831
  46   2.0000     -11.231497      -305.6246
  47   2.0000     -11.225209      -305.4535
  48   2.0000     -11.224505      -305.4343
  49   2.0000     -11.223908      -305.4181
  50   2.0000     -11.221632      -305.3561
  51   2.0000     -11.218056      -305.2588
  52   2.0000     -11.216950      -305.2287
  53   2.0000     -11.216490      -305.2162
  54   2.0000     -11.215301      -305.1838
  55   2.0000     -11.214506      -305.1622
  56   2.0000     -11.214462      -305.1610
  57   2.0000     -11.214359      -305.1582
  58   2.0000     -11.213864      -305.1448
  59   2.0000     -11.213477      -305.1342
  60   2.0000     -11.213083      -305.1235
  61   2.0000     -11.212926      -305.1192
  62   2.0000     -11.212180      -305.0989
  63   2.0000     -11.211046      -305.0681
  64   2.0000     -11.210768      -305.0605
  65   2.0000     -11.209895      -305.0367
  66   2.0000     -11.209393      -305.0231
  67   2.0000      -1.273863       -34.6636
  68   2.0000      -1.254349       -34.1326
  69   2.0000      -1.252004       -34.0688
  70   2.0000      -1.251412       -34.0527
  71   2.0000      -1.250903       -34.0388
  72   2.0000      -1.225024       -33.3346
  73   2.0000      -1.221859       -33.2485
  74   2.0000      -1.219155       -33.1749
  75   2.0000      -1.218400       -33.1544
  76   2.0000      -1.170382       -31.8477
  77   2.0000      -1.161251       -31.5992
  78   2.0000      -1.160640       -31.5826
  79   2.0000      -1.143814       -31.1247
  80   2.0000      -1.116900       -30.3924
  81   2.0000      -1.115258       -30.3477
  82   2.0000      -1.111097       -30.2345
  83   2.0000      -1.110521       -30.2188
  84   2.0000      -1.104969       -30.0677
  85   2.0000      -1.054507       -28.6946
  86   2.0000      -1.053845       -28.6766
  87   2.0000      -1.052174       -28.6311
  88   2.0000      -1.051268       -28.6065
  89   2.0000      -1.047724       -28.5100
  90   2.0000      -1.047101       -28.4931
  91   2.0000      -1.006723       -27.3943
  92   2.0000      -1.005051       -27.3488
  93   2.0000      -1.003119       -27.2963
  94   2.0000      -1.000951       -27.2373
  95   2.0000      -0.998691       -27.1758
  96   2.0000      -0.998124       -27.1603
  97   2.0000      -0.989043       -26.9132
  98   2.0000      -0.986042       -26.8316
  99   2.0000      -0.985183       -26.8082
 100   2.0000      -0.979374       -26.6501
 101   2.0000      -0.896385       -24.3919
 102   2.0000      -0.893104       -24.3026
 103   2.0000      -0.891746       -24.2656
 104   2.0000      -0.886405       -24.1203
 105   2.0000      -0.880629       -23.9631
 106   2.0000      -0.879290       -23.9267
 107   2.0000      -0.871730       -23.7210
 108   2.0000      -0.868241       -23.6260
 109   2.0000      -0.859667       -23.3927
 110   2.0000      -0.832775       -22.6609
 111   2.0000      -0.830204       -22.5910
 112   2.0000      -0.827331       -22.5128
 113   2.0000      -0.825410       -22.4605
 114   2.0000      -0.823047       -22.3963
 115   2.0000      -0.821108       -22.3435
 116   2.0000      -0.818926       -22.2841
 117   2.0000      -0.812134       -22.0993
 118   2.0000      -0.804866       -21.9015
 119   2.0000      -0.799406       -21.7530
 120   2.0000      -0.783803       -21.3284
 121   2.0000      -0.768872       -20.9221
 122   2.0000      -0.765442       -20.8287
 123   2.0000      -0.764001       -20.7895
 124   2.0000      -0.763736       -20.7823
 125   2.0000      -0.754905       -20.5420
 126   2.0000      -0.748143       -20.3580
 127   2.0000      -0.746920       -20.3247
 128   2.0000      -0.742795       -20.2125
 129   2.0000      -0.740630       -20.1536
 130   2.0000      -0.739640       -20.1266
 131   2.0000      -0.701113       -19.0783
 132   2.0000      -0.696452       -18.9514
 133   2.0000      -0.695060       -18.9136
 134   2.0000      -0.689734       -18.7686
 135   2.0000      -0.685541       -18.6545
 136   2.0000      -0.684532       -18.6271
 137   2.0000      -0.672171       -18.2907
 138   2.0000      -0.667398       -18.1608
 139   2.0000      -0.664639       -18.0857
 140   2.0000      -0.661358       -17.9965
 141   2.0000      -0.657704       -17.8970
 142   2.0000      -0.653214       -17.7749
 143   2.0000      -0.651837       -17.7374
 144   2.0000      -0.650983       -17.7142
 145   2.0000      -0.647282       -17.6134
 146   2.0000      -0.638882       -17.3849
 147   2.0000      -0.632101       -17.2003
 148   2.0000      -0.627744       -17.0818
 149   2.0000      -0.626310       -17.0427
 150   2.0000      -0.624267       -16.9872
 151   2.0000      -0.622870       -16.9491
 152   2.0000      -0.622710       -16.9448
 153   2.0000      -0.622098       -16.9282
 154   2.0000      -0.621251       -16.9051
 155   2.0000      -0.613212       -16.6863
 156   2.0000      -0.609824       -16.5942
 157   2.0000      -0.604314       -16.4442
 158   2.0000      -0.600616       -16.3436
 159   2.0000      -0.598520       -16.2866
 160   2.0000      -0.594434       -16.1754
 161   2.0000      -0.594056       -16.1651
 162   2.0000      -0.591051       -16.0833
 163   2.0000      -0.590193       -16.0600
 164   2.0000      -0.588497       -16.0138
 165   2.0000      -0.587619       -15.9899
 166   2.0000      -0.584773       -15.9125
 167   2.0000      -0.576635       -15.6910
 168   2.0000      -0.572933       -15.5903
 169   2.0000      -0.572599       -15.5812
 170   2.0000      -0.568759       -15.4767
 171   2.0000      -0.560190       -15.2436
 172   2.0000      -0.559539       -15.2258
 173   2.0000      -0.559363       -15.2210
 174   2.0000      -0.558639       -15.2013
 175   2.0000      -0.557256       -15.1637
 176   2.0000      -0.553320       -15.0566
 177   2.0000      -0.540387       -14.7047
 178   2.0000      -0.539118       -14.6702
 179   2.0000      -0.537491       -14.6259
 180   2.0000      -0.535173       -14.5628
 181   2.0000      -0.534314       -14.5394
 182   2.0000      -0.532455       -14.4888
 183   2.0000      -0.530602       -14.4384
 184   2.0000      -0.524545       -14.2736
 185   2.0000      -0.522163       -14.2088
 186   2.0000      -0.519794       -14.1443
 187   2.0000      -0.516545       -14.0559
 188   2.0000      -0.514380       -13.9970
 189   2.0000      -0.511568       -13.9205
 190   2.0000      -0.508080       -13.8255
 191   2.0000      -0.502275       -13.6676
 192   2.0000      -0.496395       -13.5076
 193   2.0000      -0.493712       -13.4346
 194   2.0000      -0.492105       -13.3909
 195   2.0000      -0.491004       -13.3609
 196   2.0000      -0.489312       -13.3149
 197   2.0000      -0.487278       -13.2595
 198   2.0000      -0.486073       -13.2267
 199   2.0000      -0.483931       -13.1684
 200   2.0000      -0.483243       -13.1497
 201   2.0000      -0.477557       -12.9950
 202   2.0000      -0.472683       -12.8623
 203   2.0000      -0.470372       -12.7995
 204   2.0000      -0.469669       -12.7803
 205   2.0000      -0.469246       -12.7688
 206   2.0000      -0.468302       -12.7431
 207   2.0000      -0.467554       -12.7228
 208   2.0000      -0.464058       -12.6277
 209   2.0000      -0.462535       -12.5862
 210   2.0000      -0.461067       -12.5463
 211   2.0000      -0.460318       -12.5259
 212   2.0000      -0.459255       -12.4970
 213   2.0000      -0.455475       -12.3941
 214   2.0000      -0.454546       -12.3688
 215   2.0000      -0.451515       -12.2863
 216   2.0000      -0.450304       -12.2534
 217   2.0000      -0.436825       -11.8866
 218   2.0000      -0.433082       -11.7848
 219   2.0000      -0.428645       -11.6640
 220   2.0000      -0.425663       -11.5829
 221   2.0000      -0.423868       -11.5340
 222   2.0000      -0.409615       -11.1462
 223   2.0000      -0.407401       -11.0859
 224   2.0000      -0.406629       -11.0649
 225   2.0000      -0.404649       -11.0111
 226   2.0000      -0.403465       -10.9788
 227   2.0000      -0.403334       -10.9753
 228   2.0000      -0.400133       -10.8882
 229   2.0000      -0.396970       -10.8021
 230   2.0000      -0.394508       -10.7351
 231   2.0000      -0.388639       -10.5754
 232   2.0000      -0.385631       -10.4936
 233   2.0000      -0.381988       -10.3944
 234   2.0000      -0.372875       -10.1464
 235   2.0000      -0.324702        -8.8356
 236   2.0000      -0.323274        -8.7967
 237   2.0000      -0.321963        -8.7611
 238   2.0000      -0.318473        -8.6661
 239   2.0000      -0.316281        -8.6065
 240   2.0000      -0.312927        -8.5152
 241   0.0000       0.072631         1.9764
 242   0.0000       0.073452         1.9987
 243   0.0000       0.081578         2.2198
 244   0.0000       0.084476         2.2987
 245   0.0000       0.086899         2.3646

MULLIKEN ATOMIC CHARGES
-----------------------
   0 C :    0.184014
   1 C :   -0.128562
   2 C :   -0.207794
   3 C :    0.182405
   4 H :    0.158892
   5 C :   -0.217701
   6 C :    0.214994
   7 H :    0.157001
   8 C :   -0.222658
   9 C :   -0.095787
  10 H :    0.159584
  11 C :   -0.133302
  12 H :    0.088131
  13 H :    0.102339
  14 H :    0.110099
  15 C :    0.110298
  16 C :    0.039975
  17 C :   -0.267267
  18 C :    0.191457
  19 H :    0.164208
  20 C :   -0.237016
  21 C :    0.229799
  22 H :    0.152193
  23 C :   -0.238637
  24 C :   -0.112138
  25 H :    0.168268
  26 C :   -0.127284
  27 H :    0.093735
  28 H :    0.097255
  29 C :    0.209318
  30 C :   -0.099448
  31 C :   -0.234325
  32 C :    0.183489
  33 H :    0.162145
  34 C :   -0.230825
  35 C :    0.213919
  36 H :    0.156749
  37 C :   -0.210492
  38 C :   -0.107175
  39 H :    0.153557
  40 C :   -0.109257
  41 H :    0.088440
  42 H :    0.101503
  43 C :    0.093377
  44 C :    0.056325
  45 N :   -0.307275
  46 H :    0.089698
  47 C :   -0.202816
  48 N :   -0.288645
  49 H :    0.095933
  50 C :   -0.212349
  51 H :    0.101780
  52 C :   -0.220191
  53 H :    0.092160
  54 C :   -0.204343
  55 H :    0.117384
  56 H :    0.096325
  57 H :    0.112515
  58 H :    0.092446
  59 C :    0.071208
  60 C :    0.051809
  61 N :   -0.325383
  62 H :    0.075933
  63 C :   -0.285942
  64 N :   -0.282827
  65 H :    0.091817
  66 C :   -0.220057
  67 H :    0.099672
  68 C :   -0.195997
  69 H :    0.088873
  70 C :   -0.202837
  71 H :    0.115014
  72 H :    0.094206
  73 H :    0.114652
  74 H :    0.093678
  75 C :    0.092160
  76 C :    0.083807
  77 N :   -0.281610
  78 H :    0.081814
  79 C :   -0.200548
  80 N :   -0.284967
  81 H :    0.078478
  82 C :   -0.203624
  83 H :    0.094376
  84 C :   -0.204545
  85 H :    0.100190
  86 C :   -0.205094
  87 H :    0.111632
  88 H :    0.087649
  89 H :    0.112382
  90 H :    0.087027
  91 C :    0.090566
  92 C :    0.097835
  93 N :   -0.293523
  94 H :    0.077367
  95 C :   -0.203571
  96 N :   -0.290245
  97 H :    0.077776
  98 C :   -0.204298
  99 H :    0.099274
 100 C :   -0.206605
 101 H :    0.095120
 102 C :   -0.204600
 103 H :    0.112653
 104 H :    0.088307
 105 H :    0.111999
 106 H :    0.088075
 107 C :    0.100591
 108 C :    0.081966
 109 N :   -0.282099
 110 H :    0.075645
 111 C :   -0.203217
 112 N :   -0.286251
 113 H :    0.079007
 114 C :   -0.202241
 115 H :    0.095287
 116 C :   -0.204545
 117 H :    0.099532
 118 C :   -0.205817
 119 H :    0.111858
 120 H :    0.087287
 121 H :    0.112331
 122 H :    0.088241
 123 H :    0.103245
 124 H :    0.097568
 125 H :    0.110511
 126 H :    0.138149
 127 H :    0.109025
 128 H :    0.117178
 129 H :    0.125810
 130 H :    0.123089
 131 H :    0.109185
 132 H :    0.108180
 133 H :    0.108177
 134 H :    0.109979
 135 H :    0.108990
 136 H :    0.107839
Sum of atomic charges:   -0.0000000

LOEWDIN ATOMIC CHARGES
----------------------
   0 C :   -0.072482
   1 C :   -0.066769
   2 C :    0.092604
   3 C :   -0.072355
   4 H :   -0.020144
   5 C :    0.094256
   6 C :   -0.073558
   7 H :   -0.019162
   8 C :    0.092941
   9 C :   -0.064110
  10 H :   -0.022307
  11 C :   -0.065548
  12 H :   -0.034477
  13 H :   -0.033271
  14 H :   -0.035062
  15 C :   -0.052088
  16 C :   -0.113258
  17 C :    0.064069
  18 C :   -0.075362
  19 H :   -0.025395
  20 C :    0.081811
  21 C :   -0.072490
  22 H :   -0.021316
  23 C :    0.082897
  24 C :   -0.062514
  25 H :   -0.021555
  26 C :   -0.070641
  27 H :   -0.035245
  28 H :   -0.036593
  29 C :   -0.072622
  30 C :   -0.057990
  31 C :    0.089834
  32 C :   -0.075760
  33 H :   -0.023376
  34 C :    0.091344
  35 C :   -0.071180
  36 H :   -0.018745
  37 C :    0.092423
  38 C :   -0.065831
  39 H :   -0.020657
  40 C :   -0.068817
  41 H :   -0.035148
  42 H :   -0.035403
  43 C :   -0.109814
  44 C :   -0.108979
  45 N :    0.226393
  46 H :   -0.033524
  47 C :    0.063193
  48 N :    0.209734
  49 H :   -0.028975
  50 C :    0.057827
  51 H :   -0.024085
  52 C :    0.058026
  53 H :   -0.030814
  54 C :    0.059668
  55 H :   -0.025316
  56 H :   -0.026756
  57 H :   -0.025752
  58 H :   -0.025277
  59 C :   -0.107271
  60 C :   -0.104880
  61 N :    0.315819
  62 H :   -0.028553
  63 C :    0.057722
  64 N :    0.310173
  65 H :   -0.021024
  66 C :    0.065812
  67 H :   -0.028121
  68 C :    0.068179
  69 H :   -0.026833
  70 C :    0.066639
  71 H :   -0.025473
  72 H :   -0.025577
  73 H :   -0.025347
  74 H :   -0.025673
  75 C :   -0.110228
  76 C :   -0.110196
  77 N :    0.225716
  78 H :   -0.030624
  79 C :    0.059152
  80 N :    0.234717
  81 H :   -0.033119
  82 C :    0.061496
  83 H :   -0.024567
  84 C :    0.057982
  85 H :   -0.023073
  86 C :    0.057886
  87 H :   -0.026145
  88 H :   -0.026141
  89 H :   -0.025874
  90 H :   -0.026446
  91 C :   -0.107909
  92 C :   -0.112020
  93 N :    0.231766
  94 H :   -0.032463
  95 C :    0.062008
  96 N :    0.221469
  97 H :   -0.030813
  98 C :    0.060330
  99 H :   -0.024079
 100 C :    0.058764
 101 H :   -0.024356
 102 C :    0.058608
 103 H :   -0.025781
 104 H :   -0.026193
 105 H :   -0.025831
 106 H :   -0.026218
 107 C :   -0.113775
 108 C :   -0.109205
 109 N :    0.224782
 110 H :   -0.031108
 111 C :    0.060442
 112 N :    0.234629
 113 H :   -0.032243
 114 C :    0.062257
 115 H :   -0.024205
 116 C :    0.058257
 117 H :   -0.023711
 118 C :    0.058488
 119 H :   -0.026005
 120 H :   -0.026377
 121 H :   -0.025842
 122 H :   -0.026278
 123 H :   -0.033624
 124 H :   -0.112837
 125 H :   -0.028471
 126 H :   -0.123261
 127 H :   -0.025280
 128 H :   -0.024113
 129 H :   -0.026490
 130 H :   -0.022646
 131 H :   -0.025245
 132 H :   -0.025662
 133 H :   -0.025929
 134 H :   -0.024973
 135 H :   -0.025309
 136 H :   -0.026180

  Mayer bond orders larger than 0.100000
B(  0-C ,  1-C ) :   1.0051 B(  0-C ,  2-C ) :   1.3166 B(  0-C ,  8-C ) :   1.3631
B(  1-C , 13-H ) :   0.9895 B(  1-C , 48-N ) :   1.9759 B(  2-C ,  3-C ) :   1.3866
B(  2-C ,  4-H ) :   0.9612 B(  3-C ,  5-C ) :   1.2984 B(  3-C , 11-C ) :   0.9937
B(  5-C ,  6-C ) :   1.3770 B(  5-C ,  7-H ) :   0.9651 B(  6-C ,  8-C ) :   1.2953
B(  6-C ,  9-C ) :   0.9817 B(  8-C , 10-H ) :   0.9648 B(  9-C , 12-H ) :   0.9852
B(  9-C , 93-N ) :   1.9793 B( 11-C , 14-H ) :   0.9914 B( 11-C , 77-N ) :   1.9706
B( 15-C , 16-C ) :   1.0286 B( 15-C , 17-C ) :   1.3165 B( 15-C , 23-C ) :   1.4004
B( 16-C , 61-N ) :   1.0023 B( 16-C , 64-N ) :   1.0190 B( 16-C ,125-H ) :   0.9893
B( 17-C , 18-C ) :   1.3795 B( 17-C , 19-H ) :   0.9630 B( 18-C , 20-C ) :   1.3109
B( 18-C , 26-C ) :   0.9984 B( 20-C , 21-C ) :   1.3702 B( 20-C , 22-H ) :   0.9663
B( 21-C , 23-C ) :   1.2902 B( 21-C , 24-C ) :   0.9810 B( 23-C , 25-H ) :   0.9604
B( 24-C , 27-H ) :   0.9874 B( 24-C , 80-N ) :   1.9792 B( 26-C , 28-H ) :   0.9927
B( 26-C ,109-N ) :   1.9777 B( 29-C , 30-C ) :   0.9874 B( 29-C , 31-C ) :   1.2901
B( 29-C , 37-C ) :   1.3860 B( 30-C , 45-N ) :   1.9587 B( 30-C ,123-H ) :   0.9815
B( 31-C , 32-C ) :   1.3707 B( 31-C , 33-H ) :   0.9614 B( 32-C , 34-C ) :   1.2975
B( 32-C , 40-C ) :   1.0035 B( 34-C , 35-C ) :   1.3736 B( 34-C , 36-H ) :   0.9665
B( 35-C , 37-C ) :   1.3096 B( 35-C , 38-C ) :   0.9745 B( 37-C , 39-H ) :   0.9654
B( 38-C , 41-H ) :   0.9841 B( 38-C ,112-N ) :   1.9828 B( 40-C , 42-H ) :   0.9905
B( 40-C , 96-N ) :   1.9657 B( 43-C , 44-C ) :   0.9309 B( 43-C , 45-N ) :   0.9380
B( 43-C , 46-H ) :   0.9723 B( 43-C , 47-C ) :   0.9592 B( 44-C , 48-N ) :   0.9164
B( 44-C , 49-H ) :   0.9813 B( 44-C , 50-C ) :   0.9541 B( 47-C , 51-H ) :   0.9848
B( 47-C , 52-C ) :   0.9410 B( 47-C ,127-H ) :   0.9907 B( 50-C , 53-H ) :   0.9839
B( 50-C , 54-C ) :   0.9460 B( 50-C ,128-H ) :   0.9905 B( 52-C , 54-C ) :   0.9432
B( 52-C , 55-H ) :   0.9945 B( 52-C , 56-H ) :   0.9840 B( 54-C , 57-H ) :   0.9955
B( 54-C , 58-H ) :   0.9860 B( 59-C , 60-C ) :   0.9410 B( 59-C , 61-N ) :   1.0222
B( 59-C , 62-H ) :   0.9689 B( 59-C , 63-C ) :   0.9470 B( 60-C , 64-N ) :   1.0099
B( 60-C , 65-H ) :   0.9750 B( 60-C , 66-C ) :   0.9612 B( 61-N ,126-H ) :   0.9624
B( 63-C , 67-H ) :   0.9803 B( 63-C , 68-C ) :   0.9672 B( 63-C ,129-H ) :   0.9903
B( 64-N ,124-H ) :   1.0003 B( 66-C , 69-H ) :   0.9813 B( 66-C , 70-C ) :   0.9475
B( 66-C ,130-H ) :   0.9904 B( 68-C , 70-C ) :   0.9444 B( 68-C , 71-H ) :   0.9950
B( 68-C , 72-H ) :   0.9866 B( 70-C , 73-H ) :   0.9942 B( 70-C , 74-H ) :   0.9854
B( 75-C , 76-C ) :   0.9312 B( 75-C , 77-N ) :   0.9342 B( 75-C , 78-H ) :   0.9718
B( 75-C , 79-C ) :   0.9559 B( 76-C , 80-N ) :   0.9425 B( 76-C , 81-H ) :   0.9700
B( 76-C , 82-C ) :   0.9524 B( 79-C , 83-H ) :   0.9842 B( 79-C , 84-C ) :   0.9439
B( 79-C ,131-H ) :   0.9916 B( 82-C , 85-H ) :   0.9833 B( 82-C , 86-C ) :   0.9410
B( 82-C ,132-H ) :   0.9914 B( 84-C , 86-C ) :   0.9434 B( 84-C , 87-H ) :   0.9960
B( 84-C , 88-H ) :   0.9847 B( 86-C , 89-H ) :   0.9954 B( 86-C , 90-H ) :   0.9850
B( 91-C , 92-C ) :   0.9307 B( 91-C , 93-N ) :   0.9367 B( 91-C , 94-H ) :   0.9723
B( 91-C , 95-C ) :   0.9501 B( 92-C , 96-N ) :   0.9358 B( 92-C , 97-H ) :   0.9737
B( 92-C , 98-C ) :   0.9554 B( 95-C , 99-H ) :   0.9832 B( 95-C ,100-C ) :   0.9414
B( 95-C ,133-H ) :   0.9914 B( 98-C ,101-H ) :   0.9847 B( 98-C ,102-C ) :   0.9442
B( 98-C ,134-H ) :   0.9914 B(100-C ,102-C ) :   0.9438 B(100-C ,103-H ) :   0.9950
B(100-C ,104-H ) :   0.9850 B(102-C ,105-H ) :   0.9957 B(102-C ,106-H ) :   0.9848
B(107-C ,108-C ) :   0.9364 B(107-C ,109-N ) :   0.9330 B(107-C ,110-H ) :   0.9732
B(107-C ,111-C ) :   0.9550 B(108-C ,112-N ) :   0.9416 B(108-C ,113-H ) :   0.9727
B(108-C ,114-C ) :   0.9502 B(111-C ,115-H ) :   0.9843 B(111-C ,116-C ) :   0.9437
B(111-C ,135-H ) :   0.9916 B(114-C ,117-H ) :   0.9827 B(114-C ,118-C ) :   0.9411
B(114-C ,136-H ) :   0.9914 B(116-C ,118-C ) :   0.9437 B(116-C ,119-H ) :   0.9958
B(116-C ,120-H ) :   0.9849 B(118-C ,121-H ) :   0.9950 B(118-C ,122-H ) :   0.9850

MP2 TOTAL ENERGY:    -2755.933162660 Eh
FINAL SINGLE POINT ENERGY     -2755.933162660336

DIPOLE MOMENT
-------------
                                X             Y             Z
Electronic contribution:     -9.70776       5.99395     -11.76641
Nuclear contribution   :      9.82520      -5.95704      12.31855
                        -----------------------------------------
Total Dipole Moment    :      0.11743       0.03691       0.55214
                        -----------------------------------------
Magnitude (a.u.)       :      0.56570
Magnitude (Debye)      :      1.43788

Rotational constants in cm-1:     0.000990     0.000813     0.000789
Rotational constants in MHz :    29.679612    24.367016    23.656747

                             ****ORCA TERMINATED NORMALLY****
TOTAL RUN TIME: 0 days 5 hours 9 minutes 51 seconds 594 msec
