                         Program Version 4.2.1 -  RELEASE  -
|  1> ! RI-MP2 cc-pVTZ cc-pVTZ/C TIGHTSCF printbasis Grid6 NOFINALGRID SlowConv
|  2>
|  3> %base "_o_3_alde1_5_ami1_1_opt_MP2"
|  4> %maxcore 3000
|  5> %pal
|  6>    nprocs 32
|  7> end
|  8>
|  9> * xyzfile 0 1 _o_3_alde1_5_ami1_1_opt_B97-3c.xyz
| 10>
| 11>                          ****END OF INPUT****

CARTESIAN COORDINATES (ANGSTROEM)
---------------------------------
  C     -3.078239   -2.010602   -0.487261
  C     -3.225666   -1.631043    0.914069
  C     -2.334185   -3.117599   -0.907991
  C     -2.164179   -3.380051   -2.262198
  H     -1.886586   -3.765499   -0.165550
  C     -2.699741   -2.495834   -3.204365
  C     -3.452910   -1.403598   -2.803256
  H     -2.517018   -2.687775   -4.253245
  C     -3.660699   -1.186176   -1.439811
  C     -3.946565   -0.444474   -3.789839
  H     -4.248833   -0.330136   -1.140539
  C     -1.406050   -4.556796   -2.682810
  H     -3.479318   -0.504802   -4.782805
  H     -3.968696   -0.843768    1.091045
  H     -1.029193   -5.188423   -1.868644
  C      1.778207   -2.331098    0.226228
  C      1.177276   -2.768480    1.542233
  C      2.527477   -1.166215    0.122045
  C      3.044513   -0.752924   -1.104777
  H      2.711319   -0.585378    1.016413
  C      2.787691   -1.512014   -2.245499
  C      2.068817   -2.694735   -2.146451
  H      3.167816   -1.169262   -3.198474
  C      1.565717   -3.094069   -0.906796
  C      1.805892   -3.507213   -3.331142
  H      1.014663   -4.017308   -0.833300
  C      3.812761    0.482784   -1.160932
  H      1.875186   -2.989676   -4.298500
  H      3.956108    0.984014   -0.194543
  C     -0.788304    1.563360    0.340902
  C     -0.706332    0.753318    1.555590
  C     -2.028574    1.864110   -0.228292
  C     -2.114297    2.450280   -1.482805
  H     -2.923221    1.575070    0.305754
  C     -0.938934    2.786479   -2.159338
  C      0.299552    2.567349   -1.574355
  H     -1.013014    3.218200   -3.148662
  C      0.368584    1.934463   -0.329157
  C      1.516224    2.924727   -2.300992
  H      1.341014    1.710272    0.084845
  C     -3.428814    2.601425   -2.099263
  H      1.403456    3.026192   -3.389705
  H     -4.278968    2.396636   -1.435917
  C     -1.591862   -0.438080    3.363107
  C     -2.725090   -1.476628    3.169100
  N     -1.719091    0.514187    2.283102
  H     -0.633568   -0.965755    3.297063
  C     -1.621796    0.274145    4.727439
  N     -2.529871   -2.096979    1.870288
  H     -3.661649   -0.905894    3.176014
  C     -2.822791   -2.542970    4.266583
  H     -1.552417   -0.512459    5.481856
  C     -2.898639    1.063517    4.976831
  C     -0.390873    1.156173    4.885398
  H     -2.995332   -2.012105    5.204995
  C     -1.558581   -3.374082    4.415516
  C     -4.033797   -3.433169    4.022363
  H     -0.411026    1.992996    4.189669
  H      0.526445    0.595624    4.703573
  H     -0.338182    1.565834    5.893010
  H     -3.783787    0.429801    4.968484
  H     -3.034608    1.831555    4.218633
  H     -2.856960    1.553812    5.949066
  H     -4.946127   -2.843359    3.933538
  H     -4.170309   -4.136350    4.842898
  H     -3.918668   -4.006622    3.104298
  H     -1.682327   -4.133405    5.186804
  H     -0.698973   -2.767478    4.694775
  H     -1.327605   -3.879558    3.480070
  C      3.024806   -3.110110    2.883487
  C      2.572029   -4.487136    2.287331
  N      1.901684   -2.186225    2.672206
  H      3.855413   -2.748999    2.272495
  C      3.507714   -3.144577    4.332802
  N      1.252351   -4.226417    1.683359
  H      2.448316   -5.228436    3.080964
  C      3.568725   -5.059619    1.272305
  H      4.267279   -3.928766    4.370239
  C      2.417229   -3.514742    5.332249
  C      4.175532   -1.833734    4.730878
  H      3.696486   -4.310414    0.487417
  C      3.032135   -6.328287    0.627960
  C      4.928125   -5.316806    1.908670
  H      4.573625   -1.888013    5.744242
  H      3.466517   -1.007825    4.693840
  H      5.000109   -1.588278    4.062071
  H      1.710034   -2.697897    5.483489
  H      2.853411   -3.729205    6.306875
  H      1.849976   -4.392919    5.026320
  H      4.844572   -6.030024    2.731328
  H      5.386933   -4.409571    2.298490
  H      5.620527   -5.739213    1.180973
  H      2.905379   -7.117546    1.373105
  H      3.719016   -6.699424   -0.132980
  H      2.069567   -6.148808    0.158262
  C     -0.333222   -5.974680   -4.182458
  C      1.096266   -5.438564   -4.441915
  N     -1.178597   -4.833320   -3.901292
  H     -0.264994   -6.621253   -3.299066
  C     -0.920045   -6.803049   -5.333233
  N      1.484928   -4.731044   -3.246680
  H      1.047537   -4.755757   -5.299862
  C      2.120960   -6.537882   -4.774572
  H     -0.263021   -7.666120   -5.461021
  C     -0.982139   -6.049150   -6.653923
  C     -2.293685   -7.331414   -4.942245
  H      1.758876   -7.032721   -5.678052
  C      2.266593   -7.584426   -3.678769
  C      3.467797   -5.912561   -5.112018
  H     -3.002850   -6.514628   -4.819178
  H     -2.254653   -7.882634   -4.002201
  H     -2.684162   -8.001729   -5.706911
  H      0.005751   -5.774435   -7.020172
  H     -1.564330   -5.136435   -6.547139
  H     -1.454093   -6.662171   -7.421377
  H      4.167926   -6.670143   -5.461696
  H      3.906793   -5.430769   -4.240161
  H      3.373067   -5.161457   -5.896750
  H      3.037569   -8.307003   -3.945771
  H      1.344801   -8.139218   -3.512183
  H      2.548382   -7.120067   -2.736475
  C     -5.133037    1.436247   -4.505344
  C     -4.954344    2.821088   -3.832046
  N     -4.813532    0.437661   -3.510137
  H     -4.427040    1.381608   -5.342863
  C     -6.545834    1.201457   -5.071946
  N     -3.598719    2.880683   -3.326079
  H     -5.669963    2.858687   -3.001161
  C     -5.235541    4.013854   -4.755787
  H     -6.731527    2.016718   -5.773713
  C     -7.639567    1.224234   -4.013539
  C     -6.586969   -0.094542   -5.869841
  H     -6.278962    3.929438   -5.067561
  C     -4.362880    4.032336   -6.002813
  C     -5.101450    5.316467   -3.978565
  H     -5.819520   -0.110120   -6.644028
  H     -7.552923   -0.214159   -6.358310
  H     -6.432575   -0.960749   -5.228776
  H     -7.698640    2.182789   -3.501180
  H     -7.468657    0.456983   -3.261419
  H     -8.611143    1.037916   -4.470426
  H     -5.736625    5.317447   -3.092401
  H     -5.388502    6.166494   -4.596340
  H     -4.074603    5.471704   -3.652133
  H     -3.309062    4.033004   -5.732702
  H     -4.560753    4.926586   -6.593107
  H     -4.541917    3.172544   -6.646504
  C      4.874448    2.291298   -2.146540
  C      3.799493    3.330011   -2.551342
  N      4.263464    0.983877   -2.237448
  H      5.146561    2.511271   -1.106291
  C      6.154723    2.343110   -2.991023
  N      2.635808    3.081924   -1.728353
  H      3.561102    3.165170   -3.608819
  C      4.260565    4.792454   -2.400822
  H      6.566887    3.347904   -2.875901
  C      5.918662    2.090358   -4.473878
  C      7.181452    1.367191   -2.432065
  H      5.188671    4.881335   -2.968700
  C      4.542098    5.196093   -0.960011
  C      3.251525    5.736025   -3.041597
  H      6.832225    0.339955   -2.522446
  H      7.378583    1.561145   -1.377358
  H      8.125469    1.448458   -2.969580
  H      6.866473    2.088299   -5.011770
  H      5.287983    2.851822   -4.930389
  H      5.441036    1.125186   -4.628466
  H      3.066827    5.475131   -4.083968
  H      3.615330    6.762395   -3.017344
  H      2.297725    5.713119   -2.516869
  H      3.649334    5.092835   -0.347164
  H      4.865423    6.235741   -0.914052
  H      5.324807    4.590712   -0.506709
  H      0.275342    0.308256    1.763352
  H      0.532734   -4.504918    2.335804
  H      0.130632   -2.462380    1.565660
  H      1.286215   -2.242039    3.474143

 Total Charge           Charge          ....    0
 Multiplicity           Mult            ....    1
 Number of Electrons    NEL             ....  572
 Basis Dimension        Dim             .... 3710

ORBITAL ENERGIES
----------------

  NO   OCC          E(Eh)            E(eV)
   0   2.0000     -15.550841      -423.1599
   1   2.0000     -15.549817      -423.1320
   2   2.0000     -15.549520      -423.1240
   3   2.0000     -15.547679      -423.0738
   4   2.0000     -15.545697      -423.0199
   5   2.0000     -15.544099      -422.9764
   6   2.0000     -15.543641      -422.9640
   7   2.0000     -15.542571      -422.9348
   8   2.0000     -15.539755      -422.8582
   9   2.0000     -15.538719      -422.8300
  10   2.0000     -11.280003      -306.9445
  11   2.0000     -11.279515      -306.9312
  12   2.0000     -11.279020      -306.9177
  13   2.0000     -11.278634      -306.9072
  14   2.0000     -11.275545      -306.8232
  15   2.0000     -11.275118      -306.8116
  16   2.0000     -11.273410      -306.7651
  17   2.0000     -11.271777      -306.7206
  18   2.0000     -11.269530      -306.6595
  19   2.0000     -11.253808      -306.2317
  20   2.0000     -11.252038      -306.1835
  21   2.0000     -11.249892      -306.1251
  22   2.0000     -11.247760      -306.0671
  23   2.0000     -11.247618      -306.0633
  24   2.0000     -11.247267      -306.0537
  25   2.0000     -11.247188      -306.0516
  26   2.0000     -11.246292      -306.0272
  27   2.0000     -11.246259      -306.0263
  28   2.0000     -11.245532      -306.0065
  29   2.0000     -11.245437      -306.0039
  30   2.0000     -11.245358      -306.0018
  31   2.0000     -11.244845      -305.9878
  32   2.0000     -11.244653      -305.9826
  33   2.0000     -11.244458      -305.9773
  34   2.0000     -11.244036      -305.9658
  35   2.0000     -11.243728      -305.9574
  36   2.0000     -11.243563      -305.9529
  37   2.0000     -11.243151      -305.9417
  38   2.0000     -11.242775      -305.9315
  39   2.0000     -11.242624      -305.9274
  40   2.0000     -11.242059      -305.9120
  41   2.0000     -11.234456      -305.7051
  42   2.0000     -11.233984      -305.6922
  43   2.0000     -11.232317      -305.6469
  44   2.0000     -11.231735      -305.6310
  45   2.0000     -11.230677      -305.6023
  46   2.0000     -11.229270      -305.5640
  47   2.0000     -11.227204      -305.5078
  48   2.0000     -11.227143      -305.5061
  49   2.0000     -11.225151      -305.4519
  50   2.0000     -11.223558      -305.4085
  51   2.0000     -11.221740      -305.3591
  52   2.0000     -11.220033      -305.3126
  53   2.0000     -11.219674      -305.3029
  54   2.0000     -11.219560      -305.2997
  55   2.0000     -11.217644      -305.2476
  56   2.0000     -11.217396      -305.2409
  57   2.0000     -11.215121      -305.1790
  58   2.0000     -11.213612      -305.1379
  59   2.0000     -11.211802      -305.0887
  60   2.0000     -11.208943      -305.0109
  61   2.0000     -11.208763      -305.0059
  62   2.0000     -11.207292      -304.9659
  63   2.0000     -11.206621      -304.9476
  64   2.0000     -11.206494      -304.9442
  65   2.0000     -11.205281      -304.9112
  66   2.0000     -11.204238      -304.8828
  67   2.0000     -11.202681      -304.8405
  68   2.0000     -11.202644      -304.8394
  69   2.0000     -11.202364      -304.8318
  70   2.0000     -11.201885      -304.8188
  71   2.0000     -11.200651      -304.7852
  72   2.0000     -11.200521      -304.7817
  73   2.0000     -11.200486      -304.7807
  74   2.0000     -11.199877      -304.7642
  75   2.0000     -11.199866      -304.7638
  76   2.0000     -11.195141      -304.6353
  77   2.0000      -1.277352       -34.7585
  78   2.0000      -1.257256       -34.2117
  79   2.0000      -1.254376       -34.1333
  80   2.0000      -1.251751       -34.0619
  81   2.0000      -1.251038       -34.0425
  82   2.0000      -1.227440       -33.4003
  83   2.0000      -1.221771       -33.2461
  84   2.0000      -1.220411       -33.2091
  85   2.0000      -1.217426       -33.1278
  86   2.0000      -1.171102       -31.8673
  87   2.0000      -1.162741       -31.6398
  88   2.0000      -1.157389       -31.4942
  89   2.0000      -1.149411       -31.2771
  90   2.0000      -1.105797       -30.0903
  91   2.0000      -1.099807       -29.9273
  92   2.0000      -1.097752       -29.8714
  93   2.0000      -1.095155       -29.8007
  94   2.0000      -1.088493       -29.6194
  95   2.0000      -1.075672       -29.2705
  96   2.0000      -1.070591       -29.1323
  97   2.0000      -1.065799       -29.0019
  98   2.0000      -1.065327       -28.9890
  99   2.0000      -1.060562       -28.8594
 100   2.0000      -1.047209       -28.4960
 101   2.0000      -1.044192       -28.4139
 102   2.0000      -1.042225       -28.3604
 103   2.0000      -1.040627       -28.3169
 104   2.0000      -1.035385       -28.1743
 105   2.0000      -1.032664       -28.1002
 106   2.0000      -0.979348       -26.6494
 107   2.0000      -0.971230       -26.4285
 108   2.0000      -0.969937       -26.3933
 109   2.0000      -0.967108       -26.3163
 110   2.0000      -0.961904       -26.1747
 111   2.0000      -0.939343       -25.5608
 112   2.0000      -0.936670       -25.4881
 113   2.0000      -0.931686       -25.3525
 114   2.0000      -0.929851       -25.3025
 115   2.0000      -0.927670       -25.2432
 116   2.0000      -0.926412       -25.2089
 117   2.0000      -0.925631       -25.1877
 118   2.0000      -0.923637       -25.1334
 119   2.0000      -0.923097       -25.1188
 120   2.0000      -0.922945       -25.1146
 121   2.0000      -0.905757       -24.6469
 122   2.0000      -0.901715       -24.5369
 123   2.0000      -0.900173       -24.4949
 124   2.0000      -0.897762       -24.4294
 125   2.0000      -0.877392       -23.8750
 126   2.0000      -0.875515       -23.8240
 127   2.0000      -0.865507       -23.5516
 128   2.0000      -0.864629       -23.5278
 129   2.0000      -0.850580       -23.1455
 130   2.0000      -0.846376       -23.0311
 131   2.0000      -0.843953       -22.9651
 132   2.0000      -0.839301       -22.8385
 133   2.0000      -0.827327       -22.5127
 134   2.0000      -0.824639       -22.4396
 135   2.0000      -0.794728       -21.6257
 136   2.0000      -0.788025       -21.4433
 137   2.0000      -0.785865       -21.3845
 138   2.0000      -0.781086       -21.2544
 139   2.0000      -0.774247       -21.0683
 140   2.0000      -0.765852       -20.8399
 141   2.0000      -0.762405       -20.7461
 142   2.0000      -0.760992       -20.7077
 143   2.0000      -0.755718       -20.5641
 144   2.0000      -0.747824       -20.3493
 145   2.0000      -0.744877       -20.2691
 146   2.0000      -0.738627       -20.0991
 147   2.0000      -0.738184       -20.0870
 148   2.0000      -0.733091       -19.9484
 149   2.0000      -0.732462       -19.9313
 150   2.0000      -0.725915       -19.7532
 151   2.0000      -0.702912       -19.1272
 152   2.0000      -0.700210       -19.0537
 153   2.0000      -0.697207       -18.9720
 154   2.0000      -0.691984       -18.8298
 155   2.0000      -0.682753       -18.5786
 156   2.0000      -0.681469       -18.5437
 157   2.0000      -0.677631       -18.4393
 158   2.0000      -0.668060       -18.1788
 159   2.0000      -0.663591       -18.0572
 160   2.0000      -0.663008       -18.0414
 161   2.0000      -0.658318       -17.9138
 162   2.0000      -0.655726       -17.8432
 163   2.0000      -0.652309       -17.7502
 164   2.0000      -0.649072       -17.6621
 165   2.0000      -0.646574       -17.5942
 166   2.0000      -0.645000       -17.5513
 167   2.0000      -0.638778       -17.3820
 168   2.0000      -0.636030       -17.3073
 169   2.0000      -0.634919       -17.2770
 170   2.0000      -0.630785       -17.1645
 171   2.0000      -0.629405       -17.1270
 172   2.0000      -0.624801       -17.0017
 173   2.0000      -0.621611       -16.9149
 174   2.0000      -0.619567       -16.8593
 175   2.0000      -0.616482       -16.7753
 176   2.0000      -0.611684       -16.6448
 177   2.0000      -0.609315       -16.5803
 178   2.0000      -0.606757       -16.5107
 179   2.0000      -0.603120       -16.4117
 180   2.0000      -0.601872       -16.3778
 181   2.0000      -0.600692       -16.3457
 182   2.0000      -0.596820       -16.2403
 183   2.0000      -0.594002       -16.1636
 184   2.0000      -0.592365       -16.1191
 185   2.0000      -0.591664       -16.1000
 186   2.0000      -0.588511       -16.0142
 187   2.0000      -0.586217       -15.9518
 188   2.0000      -0.581916       -15.8347
 189   2.0000      -0.580506       -15.7964
 190   2.0000      -0.578694       -15.7471
 191   2.0000      -0.577041       -15.7021
 192   2.0000      -0.575741       -15.6667
 193   2.0000      -0.573412       -15.6033
 194   2.0000      -0.572552       -15.5799
 195   2.0000      -0.570590       -15.5265
 196   2.0000      -0.569890       -15.5075
 197   2.0000      -0.567445       -15.4410
 198   2.0000      -0.563606       -15.3365
 199   2.0000      -0.560921       -15.2634
 200   2.0000      -0.560103       -15.2412
 201   2.0000      -0.556605       -15.1460
 202   2.0000      -0.549804       -14.9609
 203   2.0000      -0.548126       -14.9153
 204   2.0000      -0.542394       -14.7593
 205   2.0000      -0.541816       -14.7436
 206   2.0000      -0.540835       -14.7169
 207   2.0000      -0.539654       -14.6847
 208   2.0000      -0.539317       -14.6756
 209   2.0000      -0.538444       -14.6518
 210   2.0000      -0.535679       -14.5766
 211   2.0000      -0.533868       -14.5273
 212   2.0000      -0.533460       -14.5162
 213   2.0000      -0.531658       -14.4672
 214   2.0000      -0.531423       -14.4607
 215   2.0000      -0.530667       -14.4402
 216   2.0000      -0.527841       -14.3633
 217   2.0000      -0.526957       -14.3392
 218   2.0000      -0.525587       -14.3019
 219   2.0000      -0.524051       -14.2602
 220   2.0000      -0.522107       -14.2072
 221   2.0000      -0.520462       -14.1625
 222   2.0000      -0.518276       -14.1030
 223   2.0000      -0.517163       -14.0727
 224   2.0000      -0.517066       -14.0701
 225   2.0000      -0.515539       -14.0285
 226   2.0000      -0.511394       -13.9158
 227   2.0000      -0.510611       -13.8944
 228   2.0000      -0.508767       -13.8443
 229   2.0000      -0.506348       -13.7784
 230   2.0000      -0.503406       -13.6984
 231   2.0000      -0.499098       -13.5812
 232   2.0000      -0.496746       -13.5172
 233   2.0000      -0.494514       -13.4564
 234   2.0000      -0.492503       -13.4017
 235   2.0000      -0.492118       -13.3912
 236   2.0000      -0.488656       -13.2970
 237   2.0000      -0.484007       -13.1705
 238   2.0000      -0.482032       -13.1168
 239   2.0000      -0.478872       -13.0308
 240   2.0000      -0.478219       -13.0130
 241   2.0000      -0.476595       -12.9688
 242   2.0000      -0.476358       -12.9624
 243   2.0000      -0.474490       -12.9115
 244   2.0000      -0.474107       -12.9011
 245   2.0000      -0.473831       -12.8936
 246   2.0000      -0.473242       -12.8776
 247   2.0000      -0.468820       -12.7572
 248   2.0000      -0.468159       -12.7393
 249   2.0000      -0.466493       -12.6939
 250   2.0000      -0.465045       -12.6545
 251   2.0000      -0.462550       -12.5866
 252   2.0000      -0.461656       -12.5623
 253   2.0000      -0.459300       -12.4982
 254   2.0000      -0.457696       -12.4545
 255   2.0000      -0.454679       -12.3724
 256   2.0000      -0.454241       -12.3605
 257   2.0000      -0.452852       -12.3227
 258   2.0000      -0.450720       -12.2647
 259   2.0000      -0.450246       -12.2518
 260   2.0000      -0.449731       -12.2378
 261   2.0000      -0.445679       -12.1276
 262   2.0000      -0.441743       -12.0204
 263   2.0000      -0.437371       -11.9015
 264   2.0000      -0.432485       -11.7685
 265   2.0000      -0.429363       -11.6836
 266   2.0000      -0.426810       -11.6141
 267   2.0000      -0.409933       -11.1548
 268   2.0000      -0.404872       -11.0171
 269   2.0000      -0.404194       -10.9987
 270   2.0000      -0.401163       -10.9162
 271   2.0000      -0.400121       -10.8879
 272   2.0000      -0.399712       -10.8767
 273   2.0000      -0.396987       -10.8026
 274   2.0000      -0.392827       -10.6894
 275   2.0000      -0.391581       -10.6555
 276   2.0000      -0.390131       -10.6160
 277   2.0000      -0.388766       -10.5789
 278   2.0000      -0.387574       -10.5464
 279   2.0000      -0.376028       -10.2322
 280   2.0000      -0.324900        -8.8410
 281   2.0000      -0.324390        -8.8271
 282   2.0000      -0.321600        -8.7512
 283   2.0000      -0.319923        -8.7055
 284   2.0000      -0.317367        -8.6360
 285   2.0000      -0.308475        -8.3940
 286   0.0000       0.070533         1.9193
 287   0.0000       0.071863         1.9555
 288   0.0000       0.080387         2.1874
 289   0.0000       0.083078         2.2607
 290   0.0000       0.087874         2.3912

MULLIKEN ATOMIC CHARGES
-----------------------
   0 C :    0.202539
   1 C :   -0.122973
   2 C :   -0.231904
   3 C :    0.186375
   4 H :    0.170975
   5 C :   -0.221102
   6 C :    0.216889
   7 H :    0.165617
   8 C :   -0.230303
   9 C :   -0.117764
  10 H :    0.163535
  11 C :   -0.132610
  12 H :    0.096601
  13 H :    0.105109
  14 H :    0.107642
  15 C :    0.060945
  16 C :    0.060250
  17 C :   -0.305240
  18 C :    0.208102
  19 H :    0.186386
  20 C :   -0.237169
  21 C :    0.237393
  22 H :    0.160583
  23 C :   -0.243784
  24 C :   -0.120452
  25 H :    0.195811
  26 C :   -0.121930
  27 H :    0.094471
  28 H :    0.094238
  29 C :    0.221201
  30 C :   -0.147578
  31 C :   -0.237659
  32 C :    0.190261
  33 H :    0.164242
  34 C :   -0.233328
  35 C :    0.215460
  36 H :    0.164013
  37 C :   -0.216552
  38 C :   -0.120158
  39 H :    0.161047
  40 C :   -0.109344
  41 H :    0.095820
  42 H :    0.097977
  43 C :    0.041995
  44 C :    0.042773
  45 N :   -0.299131
  46 H :    0.114122
  47 C :   -0.071276
  48 N :   -0.298057
  49 H :    0.113321
  50 C :   -0.058196
  51 H :    0.114669
  52 C :   -0.319543
  53 C :   -0.341775
  54 H :    0.118048
  55 C :   -0.363538
  56 C :   -0.328376
  57 H :    0.103365
  58 H :    0.105518
  59 H :    0.113110
  60 H :    0.096078
  61 H :    0.112383
  62 H :    0.105692
  63 H :    0.097709
  64 H :    0.106027
  65 H :    0.103717
  66 H :    0.124550
  67 H :    0.097488
  68 H :    0.108477
  69 C :   -0.045842
  70 C :   -0.035895
  71 N :   -0.326150
  72 H :    0.126092
  73 C :   -0.055151
  74 N :   -0.289949
  75 H :    0.114934
  76 C :   -0.045359
  77 H :    0.118596
  78 C :   -0.357427
  79 C :   -0.310211
  80 H :    0.130031
  81 C :   -0.331924
  82 C :   -0.341079
  83 H :    0.102050
  84 H :    0.103005
  85 H :    0.099545
  86 H :    0.088693
  87 H :    0.125318
  88 H :    0.110837
  89 H :    0.089203
  90 H :    0.100160
  91 H :    0.115991
  92 H :    0.086320
  93 H :    0.098190
  94 H :    0.122033
  95 C :    0.053564
  96 C :    0.046693
  97 N :   -0.290698
  98 H :    0.108689
  99 C :   -0.067498
 100 N :   -0.295000
 101 H :    0.108630
 102 C :   -0.066912
 103 H :    0.113529
 104 C :   -0.319915
 105 C :   -0.326249
 106 H :    0.114334
 107 C :   -0.328606
 108 C :   -0.332127
 109 H :    0.103579
 110 H :    0.093516
 111 H :    0.103479
 112 H :    0.094328
 113 H :    0.110047
 114 H :    0.104200
 115 H :    0.107656
 116 H :    0.102143
 117 H :    0.095821
 118 H :    0.103755
 119 H :    0.094746
 120 H :    0.126093
 121 C :    0.046602
 122 C :    0.051582
 123 N :   -0.293393
 124 H :    0.111352
 125 C :   -0.068972
 126 N :   -0.293472
 127 H :    0.106304
 128 C :   -0.068832
 129 H :    0.115372
 130 C :   -0.313984
 131 C :   -0.330449
 132 H :    0.112345
 133 C :   -0.319955
 134 C :   -0.324567
 135 H :    0.097371
 136 H :    0.109645
 137 H :    0.101376
 138 H :    0.095511
 139 H :    0.109128
 140 H :    0.104240
 141 H :    0.093453
 142 H :    0.104041
 143 H :    0.103908
 144 H :    0.111084
 145 H :    0.104731
 146 H :    0.093676
 147 C :    0.052198
 148 C :    0.039136
 149 N :   -0.289710
 150 H :    0.104650
 151 C :   -0.066873
 152 N :   -0.288131
 153 H :    0.110469
 154 C :   -0.065626
 155 H :    0.110563
 156 C :   -0.318726
 157 C :   -0.323441
 158 H :    0.113772
 159 C :   -0.311417
 160 C :   -0.328993
 161 H :    0.104580
 162 H :    0.092139
 163 H :    0.103155
 164 H :    0.103221
 165 H :    0.091966
 166 H :    0.111833
 167 H :    0.097211
 168 H :    0.108995
 169 H :    0.100740
 170 H :    0.109342
 171 H :    0.102319
 172 H :    0.094496
 173 H :    0.121642
 174 H :    0.108652
 175 H :    0.178140
 176 H :    0.113012
Sum of atomic charges:   -0.0000000

LOEWDIN ATOMIC CHARGES
----------------------
   0 C :   -0.074307
   1 C :   -0.067273
   2 C :    0.093272
   3 C :   -0.071478
   4 H :   -0.018710
   5 C :    0.094656
   6 C :   -0.074613
   7 H :   -0.018686
   8 C :    0.092645
   9 C :   -0.063902
  10 H :   -0.022879
  11 C :   -0.067039
  12 H :   -0.033252
  13 H :   -0.032567
  14 H :   -0.033363
  15 C :   -0.045119
  16 C :   -0.148251
  17 C :    0.061552
  18 C :   -0.078494
  19 H :   -0.028979
  20 C :    0.080690
  21 C :   -0.074542
  22 H :   -0.021414
  23 C :    0.086762
  24 C :   -0.062227
  25 H :   -0.026677
  26 C :   -0.071783
  27 H :   -0.035236
  28 H :   -0.035452
  29 C :   -0.072776
  30 C :   -0.060407
  31 C :    0.090383
  32 C :   -0.074962
  33 H :   -0.023750
  34 C :    0.091884
  35 C :   -0.071218
  36 H :   -0.018323
  37 C :    0.094303
  38 C :   -0.066957
  39 H :   -0.021050
  40 C :   -0.069407
  41 H :   -0.034065
  42 H :   -0.035307
  43 C :   -0.101038
  44 C :   -0.099976
  45 N :    0.236138
  46 H :   -0.033703
  47 C :   -0.024583
  48 N :    0.222140
  49 H :   -0.028705
  50 C :   -0.025545
  51 H :   -0.024542
  52 C :    0.117920
  53 C :    0.116041
  54 H :   -0.023279
  55 C :    0.114477
  56 C :    0.117556
  57 H :   -0.029580
  58 H :   -0.030963
  59 H :   -0.028756
  60 H :   -0.034420
  61 H :   -0.027956
  62 H :   -0.028368
  63 H :   -0.029157
  64 H :   -0.029917
  65 H :   -0.029701
  66 H :   -0.026536
  67 H :   -0.038980
  68 H :   -0.032574
  69 C :   -0.064871
  70 C :   -0.053556
  71 N :    0.315403
  72 H :   -0.026137
  73 C :   -0.028343
  74 N :    0.327878
  75 H :   -0.031992
  76 C :   -0.029805
  77 H :   -0.018420
  78 C :    0.113820
  79 C :    0.119139
  80 H :   -0.022214
  81 C :    0.115755
  82 C :    0.114488
  83 H :   -0.028728
  84 H :   -0.030020
  85 H :   -0.028350
  86 H :   -0.035099
  87 H :   -0.024379
  88 H :   -0.032347
  89 H :   -0.031464
  90 H :   -0.033964
  91 H :   -0.025854
  92 H :   -0.033131
  93 H :   -0.030516
  94 H :   -0.032291
  95 C :   -0.100739
  96 C :   -0.100265
  97 N :    0.231198
  98 H :   -0.029581
  99 C :   -0.026546
 100 N :    0.240743
 101 H :   -0.031648
 102 C :   -0.023787
 103 H :   -0.024587
 104 C :    0.116221
 105 C :    0.115581
 106 H :   -0.024426
 107 C :    0.117340
 108 C :    0.115176
 109 H :   -0.029639
 110 H :   -0.030535
 111 H :   -0.030932
 112 H :   -0.035462
 113 H :   -0.029662
 114 H :   -0.029435
 115 H :   -0.029689
 116 H :   -0.030212
 117 H :   -0.031194
 118 H :   -0.029332
 119 H :   -0.034787
 120 H :   -0.027545
 121 C :   -0.096837
 122 C :   -0.099872
 123 N :    0.238674
 124 H :   -0.031002
 125 C :   -0.023408
 126 N :    0.229025
 127 H :   -0.030857
 128 C :   -0.026543
 129 H :   -0.023807
 130 C :    0.117254
 131 C :    0.115568
 132 H :   -0.025142
 133 C :    0.116456
 134 C :    0.115863
 135 H :   -0.031079
 136 H :   -0.028703
 137 H :   -0.030776
 138 H :   -0.034651
 139 H :   -0.028881
 140 H :   -0.028874
 141 H :   -0.030645
 142 H :   -0.030463
 143 H :   -0.029679
 144 H :   -0.029225
 145 H :   -0.029279
 146 H :   -0.035611
 147 C :   -0.101869
 148 C :   -0.095602
 149 N :    0.227883
 150 H :   -0.031015
 151 C :   -0.025776
 152 N :    0.241121
 153 H :   -0.031559
 154 C :   -0.022161
 155 H :   -0.026083
 156 C :    0.116261
 157 C :    0.115519
 158 H :   -0.024304
 159 C :    0.117118
 160 C :    0.115113
 161 H :   -0.029221
 162 H :   -0.031181
 163 H :   -0.030889
 164 H :   -0.029727
 165 H :   -0.036070
 166 H :   -0.029183
 167 H :   -0.031421
 168 H :   -0.028751
 169 H :   -0.030979
 170 H :   -0.028764
 171 H :   -0.029610
 172 H :   -0.034810
 173 H :   -0.031054
 174 H :   -0.124411
 175 H :   -0.028349
 176 H :   -0.126667

  Mayer bond orders larger than 0.100000
B(  0-C ,  1-C ) :   1.0010 B(  0-C ,  2-C ) :   1.3067 B(  0-C ,  8-C ) :   1.3722
B(  1-C , 13-H ) :   0.9927 B(  1-C , 48-N ) :   1.9398 B(  2-C ,  3-C ) :   1.3986
B(  2-C ,  4-H ) :   0.9576 B(  3-C ,  5-C ) :   1.2997 B(  3-C , 11-C ) :   0.9910
B(  5-C ,  6-C ) :   1.3872 B(  5-C ,  7-H ) :   0.9635 B(  6-C ,  8-C ) :   1.2923
B(  6-C ,  9-C ) :   0.9899 B(  8-C , 10-H ) :   0.9636 B(  9-C , 12-H ) :   0.9868
B(  9-C ,123-N ) :   1.9531 B( 11-C , 14-H ) :   0.9968 B( 11-C , 97-N ) :   1.9506
B( 15-C , 16-C ) :   1.0527 B( 15-C , 17-C ) :   1.3346 B( 15-C , 23-C ) :   1.3804
B( 16-C , 71-N ) :   0.9662 B( 16-C , 74-N ) :   1.0037 B( 16-C ,175-H ) :   0.9487
B( 17-C , 18-C ) :   1.3666 B( 17-C , 19-H ) :   0.9471 B( 18-C , 20-C ) :   1.3250
B( 18-C , 26-C ) :   0.9959 B( 20-C , 21-C ) :   1.3633 B( 20-C , 22-H ) :   0.9660
B( 21-C , 23-C ) :   1.3094 B( 21-C , 24-C ) :   0.9870 B( 23-C , 25-H ) :   0.9491
B( 24-C , 27-H ) :   0.9861 B( 24-C ,100-N ) :   1.9497 B( 26-C , 28-H ) :   0.9976
B( 26-C ,149-N ) :   1.9538 B( 29-C , 30-C ) :   0.9954 B( 29-C , 31-C ) :   1.2923
B( 29-C , 37-C ) :   1.3923 B( 30-C , 45-N ) :   1.9373 B( 30-C ,173-H ) :   0.9796
B( 31-C , 32-C ) :   1.3783 B( 31-C , 33-H ) :   0.9619 B( 32-C , 34-C ) :   1.3037
B( 32-C , 40-C ) :   0.9965 B( 34-C , 35-C ) :   1.3796 B( 34-C , 36-H ) :   0.9667
B( 35-C , 37-C ) :   1.3088 B( 35-C , 38-C ) :   0.9848 B( 37-C , 39-H ) :   0.9612
B( 38-C , 41-H ) :   0.9847 B( 38-C ,152-N ) :   1.9524 B( 40-C , 42-H ) :   0.9953
B( 40-C ,126-N ) :   1.9490 B( 43-C , 44-C ) :   0.9778 B( 43-C , 45-N ) :   0.9196
B( 43-C , 46-H ) :   0.9770 B( 43-C , 47-C ) :   0.9508 B( 44-C , 48-N ) :   0.9188
B( 44-C , 49-H ) :   0.9804 B( 44-C , 50-C ) :   0.9450 B( 47-C , 51-H ) :   0.9781
B( 47-C , 52-C ) :   0.9520 B( 47-C , 53-C ) :   0.9464 B( 50-C , 54-H ) :   0.9802
B( 50-C , 55-C ) :   0.9554 B( 50-C , 56-C ) :   0.9509 B( 52-C , 60-H ) :   0.9840
B( 52-C , 61-H ) :   0.9747 B( 52-C , 62-H ) :   0.9871 B( 53-C , 57-H ) :   0.9803
B( 53-C , 58-H ) :   0.9816 B( 53-C , 59-H ) :   0.9870 B( 55-C , 66-H ) :   0.9886
B( 55-C , 67-H ) :   0.9817 B( 55-C , 68-H ) :   0.9701 B( 56-C , 63-H ) :   0.9855
B( 56-C , 64-H ) :   0.9874 B( 56-C , 65-H ) :   0.9802 B( 69-C , 70-C ) :   0.9532
B( 69-C , 71-N ) :   0.9808 B( 69-C , 72-H ) :   0.9808 B( 69-C , 73-C ) :   0.9545
B( 70-C , 74-N ) :   0.9899 B( 70-C , 75-H ) :   0.9815 B( 70-C , 76-C ) :   0.9660
B( 71-N ,176-H ) :   0.9849 B( 73-C , 77-H ) :   0.9804 B( 73-C , 78-C ) :   0.9393
B( 73-C , 79-C ) :   0.9588 B( 74-N ,174-H ) :   0.9976 B( 76-C , 80-H ) :   0.9653
B( 76-C , 81-C ) :   0.9560 B( 76-C , 82-C ) :   0.9454 B( 78-C , 86-H ) :   0.9774
B( 78-C , 87-H ) :   0.9834 B( 78-C , 88-H ) :   0.9838 B( 79-C , 83-H ) :   0.9875
B( 79-C , 84-H ) :   0.9747 B( 79-C , 85-H ) :   0.9863 B( 81-C , 92-H ) :   0.9834
B( 81-C , 93-H ) :   0.9883 B( 81-C , 94-H ) :   0.9777 B( 82-C , 89-H ) :   0.9814
B( 82-C , 90-H ) :   0.9843 B( 82-C , 91-H ) :   0.9875 B( 95-C , 96-C ) :   0.9722
B( 95-C , 97-N ) :   0.9188 B( 95-C , 98-H ) :   0.9797 B( 95-C , 99-C ) :   0.9482
B( 96-C ,100-N ) :   0.9281 B( 96-C ,101-H ) :   0.9773 B( 96-C ,102-C ) :   0.9429
B( 99-C ,103-H ) :   0.9807 B( 99-C ,104-C ) :   0.9481 B( 99-C ,105-C ) :   0.9504
B(102-C ,106-H ) :   0.9800 B(102-C ,107-C ) :   0.9489 B(102-C ,108-C ) :   0.9466
B(104-C ,112-H ) :   0.9839 B(104-C ,113-H ) :   0.9747 B(104-C ,114-H ) :   0.9882
B(105-C ,109-H ) :   0.9802 B(105-C ,110-H ) :   0.9861 B(105-C ,111-H ) :   0.9882
B(107-C ,118-H ) :   0.9880 B(107-C ,119-H ) :   0.9840 B(107-C ,120-H ) :   0.9697
B(108-C ,115-H ) :   0.9879 B(108-C ,116-H ) :   0.9809 B(108-C ,117-H ) :   0.9861
B(121-C ,122-C ) :   0.9750 B(121-C ,123-N ) :   0.9196 B(121-C ,124-H ) :   0.9781
B(121-C ,125-C ) :   0.9459 B(122-C ,126-N ) :   0.9205 B(122-C ,127-H ) :   0.9811
B(122-C ,128-C ) :   0.9505 B(125-C ,129-H ) :   0.9792 B(125-C ,130-C ) :   0.9482
B(125-C ,131-C ) :   0.9464 B(128-C ,132-H ) :   0.9813 B(128-C ,133-C ) :   0.9480
B(128-C ,134-C ) :   0.9499 B(130-C ,138-H ) :   0.9840 B(130-C ,139-H ) :   0.9740
B(130-C ,140-H ) :   0.9873 B(131-C ,135-H ) :   0.9861 B(131-C ,136-H ) :   0.9875
B(131-C ,137-H ) :   0.9802 B(133-C ,144-H ) :   0.9742 B(133-C ,145-H ) :   0.9881
B(133-C ,146-H ) :   0.9839 B(134-C ,141-H ) :   0.9859 B(134-C ,142-H ) :   0.9879
B(134-C ,143-H ) :   0.9801 B(147-C ,148-C ) :   0.9770 B(147-C ,149-N ) :   0.9192
B(147-C ,150-H ) :   0.9818 B(147-C ,151-C ) :   0.9518 B(148-C ,152-N ) :   0.9205
B(148-C ,153-H ) :   0.9809 B(148-C ,154-C ) :   0.9482 B(151-C ,155-H ) :   0.9826
B(151-C ,156-C ) :   0.9480 B(151-C ,157-C ) :   0.9499 B(154-C ,158-H ) :   0.9797
B(154-C ,159-C ) :   0.9481 B(154-C ,160-C ) :   0.9460 B(156-C ,164-H ) :   0.9881
B(156-C ,165-H ) :   0.9845 B(156-C ,166-H ) :   0.9741 B(157-C ,161-H ) :   0.9795
B(157-C ,162-H ) :   0.9861 B(157-C ,163-H ) :   0.9880 B(159-C ,170-H ) :   0.9735
B(159-C ,171-H ) :   0.9871 B(159-C ,172-H ) :   0.9847 B(160-C ,167-H ) :   0.9862
B(160-C ,168-H ) :   0.9873 B(160-C ,169-H ) :   0.9799

MP2 TOTAL ENERGY:    -3154.135792956 Eh
FINAL SINGLE POINT ENERGY     -3154.135792956440

DIPOLE MOMENT
-------------
                                X             Y             Z
Electronic contribution:    -19.81317      12.77638      -7.88198
Nuclear contribution   :     19.70148     -12.90295       8.65009
                        -----------------------------------------
Total Dipole Moment    :     -0.11170      -0.12658       0.76811
                        -----------------------------------------
Magnitude (a.u.)       :      0.78644
Magnitude (Debye)      :      1.99898

Rotational constants in cm-1:     0.000812     0.000685     0.000646
Rotational constants in MHz :    24.342959    20.545319    19.361740

                             ****ORCA TERMINATED NORMALLY****
TOTAL RUN TIME: 0 days 10 hours 11 minutes 31 seconds 59 msec
