                         Program Version 4.2.1 -  RELEASE  -
|  1> ! RI-MP2 cc-pVTZ cc-pVTZ/C TIGHTSCF printbasis Grid6 NOFINALGRID SlowConv
|  2>
|  3> %base "_o_3_alde1_5_ami2_1_opt_MP2"
|  4> %maxcore 3000
|  5> %pal
|  6>    nprocs 32
|  7> end
|  8>
|  9> * xyzfile 0 1 _o_3_alde1_5_ami2_1_opt_B97-3c.xyz
| 10>
| 11>                          ****END OF INPUT****

CARTESIAN COORDINATES (ANGSTROEM)
---------------------------------
  C     -3.720632   -1.838589   -1.123987
  C     -4.572231   -0.891138   -0.408067
  C     -3.191363   -2.968660   -0.504891
  C     -2.292114   -3.786644   -1.180781
  H     -3.466298   -3.202707    0.512471
  C     -1.894785   -3.440342   -2.473885
  C     -2.425146   -2.322567   -3.112118
  H     -1.158373   -4.050691   -2.984576
  C     -3.358341   -1.541519   -2.433624
  C     -1.929784   -1.927261   -4.431349
  H     -3.757648   -0.667777   -2.929700
  C     -1.726108   -4.977670   -0.547339
  H     -1.025807   -2.453322   -4.755449
  H     -5.034229   -0.114317   -1.031926
  H     -0.947348   -5.499066   -1.121072
  C      3.168548   -2.899721   -0.843751
  C      3.689428   -3.381927   -2.185061
  C      3.567013   -1.672955   -0.336097
  C      3.052949   -1.197748    0.870789
  H      4.249928   -1.056635   -0.899020
  C      2.141141   -1.980566    1.573833
  C      1.771199   -3.237783    1.101696
  H      1.719605   -1.610812    2.502558
  C      2.289466   -3.687595   -0.112201
  C      0.814812   -4.043574    1.861171
  H      1.970086   -4.644282   -0.496293
  C      3.413172    0.127403    1.366926
  H      0.316582   -3.514897    2.680927
  H      2.852333    0.475650    2.247735
  C     -1.508389    1.987566   -0.258172
  C     -2.345263    1.740795    0.918787
  C     -2.029135    1.869065   -1.548977
  C     -1.202291    1.944079   -2.661245
  H     -3.084552    1.664939   -1.662240
  C      0.160952    2.198656   -2.482875
  C      0.684940    2.378656   -1.210030
  H      0.801002    2.251243   -3.353490
  C     -0.154948    2.245922   -0.099636
  C      2.111830    2.666947   -1.049037
  H      0.277952    2.343777    0.887230
  C     -1.786611    1.678465   -3.972134
  H      2.704337    2.567917   -1.963354
  H     -2.883709    1.663185   -3.990139
  C     -4.423457    1.260877    1.989722
  C     -5.427436    0.222118    1.420361
  N     -3.607736    1.653128    0.845620
  N     -4.723978   -0.900174    0.853188
  H     -6.055445    0.738100    0.684059
  C      2.934157   -1.903857   -3.878531
  C      1.901640   -3.030910   -3.559851
  N      4.105975   -2.261790   -3.037511
  N      2.633934   -4.111486   -2.904945
  C     -1.402170   -6.505167    1.170281
  C     -0.426883   -6.036285    2.279054
  N     -2.097323   -5.384412    0.596727
  H     -2.132768   -7.176419    1.623969
  N      0.581253   -5.256735    1.575288
  C      0.280039   -7.268700    2.838731
  C     -1.899208   -0.508955   -6.349911
  C     -1.876492    1.034692   -6.181307
  N     -2.479100   -1.008732   -5.111473
  C     -0.504770   -1.017614   -6.690629
  N     -1.111923    1.424773   -5.019980
  H     -2.917089    1.373895   -6.123782
  C      4.480019    2.191497    1.302521
  C      4.039191    3.224864    0.236676
  N      4.294837    0.853952    0.812556
  H      3.918650    2.392455    2.224401
  N      2.607925    3.000347    0.069445
  H     -1.786378    1.591349    1.848358
  H      3.083712   -4.678515   -3.615025
  H      4.538780   -4.046154   -2.014063
  H      4.855527   -2.582006   -3.635643
  H     -6.062949   -0.123939    2.236055
  H     -0.819526   -7.069084    0.431995
  C     -1.190523   -5.321731    3.387065
  C     -2.873749   -0.844424   -7.476261
  H     -1.423056    1.468279   -7.073016
  H      5.541392    2.350651    1.502854
  C      4.896514    3.085250   -1.015467
  C      4.199044    4.622152    0.831229
  H      4.599459    3.800189   -1.782288
  H      4.844737    2.080397   -1.425661
  H      5.938251    3.284395   -0.771031
  C     -5.214632    2.489863    2.431135
  C     -3.669782    0.663708    3.172161
  H     -5.722924    2.945395    1.584296
  H     -4.546498    3.231963    2.865107
  H     -5.956861    2.218731    3.180939
  H     -3.881042   -0.525304   -7.219506
  H     -2.893003   -1.918904   -7.650256
  H     -2.575425   -0.353639   -8.401591
  H     -1.921983   -5.999378    3.823272
  H     -1.732035   -4.458223    3.010372
  H     -0.522817   -5.002067    4.186610
  H     -4.376608    0.344254    3.935565
  H     -3.001964    1.388225    3.636281
  H     -3.093453   -0.207091    2.869764
  H      0.202637   -0.771448   -5.903833
  H     -0.155470   -0.549415   -7.608739
  H     -0.493820   -2.094950   -6.852291
  H      3.898740    5.377209    0.106677
  H      5.236661    4.807712    1.105761
  H      3.575685    4.736744    1.715069
  H     -0.439708   -7.964237    3.268459
  H      0.980243   -6.976720    3.619603
  H      0.839381   -7.778225    2.057440
  H      1.392250   -3.397220   -4.448556
  H      1.145783   -2.653423   -2.871921
  C      2.386935   -0.539620   -3.485358
  H      1.478263   -0.303216   -4.038394
  H      3.119141    0.241501   -3.684907
  H      2.147544   -0.509805   -2.425797
  C      3.336542   -1.917726   -5.344871
  H      3.636509   -2.918753   -5.660977
  H      4.172846   -1.241999   -5.525065
  H      2.514430   -1.598183   -5.982121

 Total Charge           Charge          ....    0
 Multiplicity           Mult            ....    1
 Number of Electrons    NEL             ....  412
 Basis Dimension        Dim             .... 2550

ORBITAL ENERGIES
----------------

  NO   OCC          E(Eh)            E(eV)
   0   2.0000     -15.551970      -423.1906
   1   2.0000     -15.549874      -423.1336
   2   2.0000     -15.549628      -423.1269
   3   2.0000     -15.549248      -423.1165
   4   2.0000     -15.547239      -423.0619
   5   2.0000     -15.545467      -423.0137
   6   2.0000     -15.544395      -422.9845
   7   2.0000     -15.544231      -422.9800
   8   2.0000     -15.542570      -422.9348
   9   2.0000     -15.541464      -422.9047
  10   2.0000     -11.288061      -307.1638
  11   2.0000     -11.279850      -306.9403
  12   2.0000     -11.277559      -306.8780
  13   2.0000     -11.276374      -306.8457
  14   2.0000     -11.273229      -306.7602
  15   2.0000     -11.273145      -306.7579
  16   2.0000     -11.273063      -306.7556
  17   2.0000     -11.272639      -306.7441
  18   2.0000     -11.270056      -306.6738
  19   2.0000     -11.266534      -306.5780
  20   2.0000     -11.262549      -306.4695
  21   2.0000     -11.261659      -306.4453
  22   2.0000     -11.259495      -306.3864
  23   2.0000     -11.257293      -306.3265
  24   2.0000     -11.248207      -306.0793
  25   2.0000     -11.247883      -306.0705
  26   2.0000     -11.246824      -306.0416
  27   2.0000     -11.244388      -305.9754
  28   2.0000     -11.243921      -305.9627
  29   2.0000     -11.243526      -305.9519
  30   2.0000     -11.243357      -305.9473
  31   2.0000     -11.242630      -305.9275
  32   2.0000     -11.242445      -305.9225
  33   2.0000     -11.242316      -305.9190
  34   2.0000     -11.242175      -305.9151
  35   2.0000     -11.241710      -305.9025
  36   2.0000     -11.241208      -305.8888
  37   2.0000     -11.240819      -305.8782
  38   2.0000     -11.240146      -305.8599
  39   2.0000     -11.240072      -305.8579
  40   2.0000     -11.238660      -305.8195
  41   2.0000     -11.237081      -305.7765
  42   2.0000     -11.233719      -305.6850
  43   2.0000     -11.233492      -305.6789
  44   2.0000     -11.229951      -305.5825
  45   2.0000     -11.226626      -305.4920
  46   2.0000     -11.224619      -305.4374
  47   2.0000     -11.221012      -305.3392
  48   2.0000     -11.214966      -305.1747
  49   2.0000     -11.213874      -305.1450
  50   2.0000     -11.210829      -305.0622
  51   2.0000     -11.208527      -304.9995
  52   2.0000     -11.207372      -304.9681
  53   2.0000     -11.205404      -304.9145
  54   2.0000     -11.205366      -304.9135
  55   2.0000     -11.203756      -304.8697
  56   2.0000     -11.203549      -304.8641
  57   2.0000      -1.278576       -34.7918
  58   2.0000      -1.253939       -34.1214
  59   2.0000      -1.249854       -34.0103
  60   2.0000      -1.247584       -33.9485
  61   2.0000      -1.245953       -33.9041
  62   2.0000      -1.225214       -33.3398
  63   2.0000      -1.219588       -33.1867
  64   2.0000      -1.219062       -33.1724
  65   2.0000      -1.215988       -33.0887
  66   2.0000      -1.168189       -31.7880
  67   2.0000      -1.160046       -31.5665
  68   2.0000      -1.155660       -31.4471
  69   2.0000      -1.149046       -31.2671
  70   2.0000      -1.088097       -29.6086
  71   2.0000      -1.083539       -29.4846
  72   2.0000      -1.079235       -29.3675
  73   2.0000      -1.070176       -29.1210
  74   2.0000      -1.061735       -28.8913
  75   2.0000      -1.049004       -28.5449
  76   2.0000      -1.041240       -28.3336
  77   2.0000      -1.030168       -28.0323
  78   2.0000      -1.025843       -27.9146
  79   2.0000      -1.022587       -27.8260
  80   2.0000      -1.016378       -27.6570
  81   2.0000      -0.946512       -25.7559
  82   2.0000      -0.943210       -25.6660
  83   2.0000      -0.940528       -25.5931
  84   2.0000      -0.938547       -25.5392
  85   2.0000      -0.937607       -25.5136
  86   2.0000      -0.937311       -25.5055
  87   2.0000      -0.936520       -25.4840
  88   2.0000      -0.934248       -25.4222
  89   2.0000      -0.933593       -25.4044
  90   2.0000      -0.920825       -25.0569
  91   2.0000      -0.893674       -24.3181
  92   2.0000      -0.889659       -24.2088
  93   2.0000      -0.882221       -24.0064
  94   2.0000      -0.880494       -23.9595
  95   2.0000      -0.868524       -23.6337
  96   2.0000      -0.859036       -23.3756
  97   2.0000      -0.849569       -23.1180
  98   2.0000      -0.841741       -22.9049
  99   2.0000      -0.829161       -22.5626
 100   2.0000      -0.793560       -21.5939
 101   2.0000      -0.784642       -21.3512
 102   2.0000      -0.775747       -21.1092
 103   2.0000      -0.764929       -20.8148
 104   2.0000      -0.761931       -20.7332
 105   2.0000      -0.757435       -20.6109
 106   2.0000      -0.754941       -20.5430
 107   2.0000      -0.731238       -19.8980
 108   2.0000      -0.726506       -19.7692
 109   2.0000      -0.722755       -19.6672
 110   2.0000      -0.714588       -19.4449
 111   2.0000      -0.704594       -19.1730
 112   2.0000      -0.702422       -19.1139
 113   2.0000      -0.696570       -18.9546
 114   2.0000      -0.686917       -18.6920
 115   2.0000      -0.684373       -18.6227
 116   2.0000      -0.674399       -18.3513
 117   2.0000      -0.670781       -18.2529
 118   2.0000      -0.663412       -18.0524
 119   2.0000      -0.658016       -17.9055
 120   2.0000      -0.656076       -17.8527
 121   2.0000      -0.653821       -17.7914
 122   2.0000      -0.649539       -17.6749
 123   2.0000      -0.645886       -17.5754
 124   2.0000      -0.636802       -17.3283
 125   2.0000      -0.633912       -17.2496
 126   2.0000      -0.630874       -17.1670
 127   2.0000      -0.627114       -17.0646
 128   2.0000      -0.622986       -16.9523
 129   2.0000      -0.622678       -16.9439
 130   2.0000      -0.619293       -16.8518
 131   2.0000      -0.619020       -16.8444
 132   2.0000      -0.615064       -16.7367
 133   2.0000      -0.610726       -16.6187
 134   2.0000      -0.604445       -16.4478
 135   2.0000      -0.600951       -16.3527
 136   2.0000      -0.599172       -16.3043
 137   2.0000      -0.597242       -16.2518
 138   2.0000      -0.596253       -16.2249
 139   2.0000      -0.594271       -16.1709
 140   2.0000      -0.593290       -16.1442
 141   2.0000      -0.589516       -16.0416
 142   2.0000      -0.573310       -15.6006
 143   2.0000      -0.557634       -15.1740
 144   2.0000      -0.555117       -15.1055
 145   2.0000      -0.553859       -15.0713
 146   2.0000      -0.553466       -15.0606
 147   2.0000      -0.550628       -14.9833
 148   2.0000      -0.549230       -14.9453
 149   2.0000      -0.545414       -14.8415
 150   2.0000      -0.542331       -14.7576
 151   2.0000      -0.541298       -14.7295
 152   2.0000      -0.539882       -14.6909
 153   2.0000      -0.539031       -14.6678
 154   2.0000      -0.536986       -14.6121
 155   2.0000      -0.536397       -14.5961
 156   2.0000      -0.534693       -14.5497
 157   2.0000      -0.533995       -14.5307
 158   2.0000      -0.531533       -14.4638
 159   2.0000      -0.529776       -14.4159
 160   2.0000      -0.527972       -14.3668
 161   2.0000      -0.526562       -14.3285
 162   2.0000      -0.525454       -14.2983
 163   2.0000      -0.520802       -14.1718
 164   2.0000      -0.517925       -14.0934
 165   2.0000      -0.516090       -14.0435
 166   2.0000      -0.513752       -13.9799
 167   2.0000      -0.509233       -13.8569
 168   2.0000      -0.508071       -13.8253
 169   2.0000      -0.505952       -13.7677
 170   2.0000      -0.500362       -13.6155
 171   2.0000      -0.498541       -13.5660
 172   2.0000      -0.493522       -13.4294
 173   2.0000      -0.491570       -13.3763
 174   2.0000      -0.488609       -13.2957
 175   2.0000      -0.485284       -13.2053
 176   2.0000      -0.484724       -13.1900
 177   2.0000      -0.480940       -13.0870
 178   2.0000      -0.478744       -13.0273
 179   2.0000      -0.476868       -12.9763
 180   2.0000      -0.471945       -12.8423
 181   2.0000      -0.469490       -12.7755
 182   2.0000      -0.449230       -12.2242
 183   2.0000      -0.449189       -12.2230
 184   2.0000      -0.441452       -12.0125
 185   2.0000      -0.439732       -11.9657
 186   2.0000      -0.434219       -11.8157
 187   2.0000      -0.406776       -11.0689
 188   2.0000      -0.405735       -11.0406
 189   2.0000      -0.403401       -10.9771
 190   2.0000      -0.401976       -10.9383
 191   2.0000      -0.400072       -10.8865
 192   2.0000      -0.398147       -10.8341
 193   2.0000      -0.397234       -10.8093
 194   2.0000      -0.395848       -10.7716
 195   2.0000      -0.394971       -10.7477
 196   2.0000      -0.391527       -10.6540
 197   2.0000      -0.390561       -10.6277
 198   2.0000      -0.388719       -10.5776
 199   2.0000      -0.378758       -10.3065
 200   2.0000      -0.325141        -8.8475
 201   2.0000      -0.323033        -8.7902
 202   2.0000      -0.320628        -8.7247
 203   2.0000      -0.318635        -8.6705
 204   2.0000      -0.314539        -8.5590
 205   2.0000      -0.307299        -8.3620
 206   0.0000       0.068433         1.8621
 207   0.0000       0.076250         2.0749
 208   0.0000       0.080210         2.1826
 209   0.0000       0.084329         2.2947
 210   0.0000       0.087513         2.3814

MULLIKEN ATOMIC CHARGES
-----------------------
   0 C :    0.183926
   1 C :   -0.094457
   2 C :   -0.190057
   3 C :    0.178116
   4 H :    0.182749
   5 C :   -0.259728
   6 C :    0.214809
   7 H :    0.157371
   8 C :   -0.233929
   9 C :   -0.121916
  10 H :    0.161302
  11 C :   -0.116808
  12 H :    0.095777
  13 H :    0.100531
  14 H :    0.101366
  15 C :    0.027800
  16 C :    0.103072
  17 C :   -0.262169
  18 C :    0.191822
  19 H :    0.199545
  20 C :   -0.246363
  21 C :    0.207356
  22 H :    0.131295
  23 C :   -0.200877
  24 C :   -0.129718
  25 H :    0.178448
  26 C :   -0.106877
  27 H :    0.096276
  28 H :    0.084000
  29 C :    0.198263
  30 C :   -0.103157
  31 C :   -0.224207
  32 C :    0.188324
  33 H :    0.160895
  34 C :   -0.235999
  35 C :    0.191097
  36 H :    0.166440
  37 C :   -0.215403
  38 C :   -0.112903
  39 H :    0.152564
  40 C :   -0.097552
  41 H :    0.104980
  42 H :    0.105233
  43 C :    0.170177
  44 C :   -0.028730
  45 N :   -0.293516
  46 N :   -0.265811
  47 H :    0.073742
  48 C :    0.101026
  49 C :   -0.159711
  50 N :   -0.262466
  51 N :   -0.253784
  52 C :   -0.031158
  53 C :    0.169118
  54 N :   -0.254115
  55 H :    0.107353
  56 N :   -0.277393
  57 C :   -0.298186
  58 C :    0.180366
  59 C :   -0.028834
  60 N :   -0.289987
  61 C :   -0.367069
  62 N :   -0.278876
  63 H :    0.076281
  64 C :   -0.027067
  65 C :    0.175224
  66 N :   -0.258767
  67 H :    0.069427
  68 N :   -0.282030
  69 H :    0.098683
  70 H :    0.091829
  71 H :    0.119734
  72 H :    0.092544
  73 H :    0.107234
  74 H :    0.074515
  75 C :   -0.352905
  76 C :   -0.302640
  77 H :    0.106816
  78 H :    0.104661
  79 C :   -0.359362
  80 C :   -0.298079
  81 H :    0.101692
  82 H :    0.129524
  83 H :    0.112306
  84 C :   -0.299546
  85 C :   -0.351596
  86 H :    0.106182
  87 H :    0.100989
  88 H :    0.095196
  89 H :    0.107614
  90 H :    0.101221
  91 H :    0.094844
  92 H :    0.111858
  93 H :    0.125680
  94 H :    0.100322
  95 H :    0.110708
  96 H :    0.098751
  97 H :    0.125260
  98 H :    0.115789
  99 H :    0.116610
 100 H :    0.104340
 101 H :    0.101907
 102 H :    0.090795
 103 H :    0.104615
 104 H :    0.090391
 105 H :    0.100500
 106 H :    0.105697
 107 H :    0.112576
 108 H :    0.122189
 109 C :   -0.331205
 110 H :    0.124805
 111 H :    0.098946
 112 H :    0.130054
 113 C :   -0.328439
 114 H :    0.090410
 115 H :    0.110998
 116 H :    0.108531
Sum of atomic charges:   -0.0000000

LOEWDIN ATOMIC CHARGES
----------------------
   0 C :   -0.073125
   1 C :   -0.070172
   2 C :    0.113918
   3 C :   -0.073906
   4 H :   -0.015757
   5 C :    0.072815
   6 C :   -0.076809
   7 H :   -0.021159
   8 C :    0.089815
   9 C :   -0.070148
  10 H :   -0.024030
  11 C :   -0.068922
  12 H :   -0.036497
  13 H :   -0.036231
  14 H :   -0.033893
  15 C :   -0.049514
  16 C :   -0.136854
  17 C :    0.086208
  18 C :   -0.080319
  19 H :   -0.025086
  20 C :    0.059168
  21 C :   -0.076952
  22 H :   -0.025210
  23 C :    0.086952
  24 C :   -0.070370
  25 H :   -0.024030
  26 C :   -0.071167
  27 H :   -0.035167
  28 H :   -0.037064
  29 C :   -0.073081
  30 C :   -0.068387
  31 C :    0.091295
  32 C :   -0.075067
  33 H :   -0.023600
  34 C :    0.092372
  35 C :   -0.072118
  36 H :   -0.018575
  37 C :    0.090532
  38 C :   -0.068629
  39 H :   -0.021476
  40 C :   -0.069255
  41 H :   -0.033923
  42 H :   -0.034412
  43 C :   -0.203481
  44 C :   -0.033427
  45 N :    0.237761
  46 N :    0.214472
  47 H :   -0.034249
  48 C :   -0.164572
  49 C :   -0.000656
  50 N :    0.325993
  51 N :    0.307121
  52 C :   -0.035060
  53 C :   -0.207339
  54 N :    0.220947
  55 H :   -0.027757
  56 N :    0.237869
  57 C :    0.118158
  58 C :   -0.205420
  59 C :   -0.031865
  60 N :    0.239314
  61 C :    0.110245
  62 N :    0.204349
  63 H :   -0.033413
  64 C :   -0.036223
  65 C :   -0.205744
  66 N :    0.221166
  67 H :   -0.035453
  68 N :    0.237217
  69 H :   -0.033881
  70 H :   -0.117288
  71 H :   -0.024239
  72 H :   -0.120738
  73 H :   -0.028670
  74 H :   -0.033937
  75 C :    0.111477
  76 C :    0.119319
  77 H :   -0.028872
  78 H :   -0.027317
  79 C :    0.111324
  80 C :    0.117752
  81 H :   -0.031388
  82 H :   -0.029705
  83 H :   -0.022861
  84 C :    0.118767
  85 C :    0.112079
  86 H :   -0.026860
  87 H :   -0.028303
  88 H :   -0.026780
  89 H :   -0.026351
  90 H :   -0.028162
  91 H :   -0.027105
  92 H :   -0.022321
  93 H :   -0.029644
  94 H :   -0.032128
  95 H :   -0.022455
  96 H :   -0.033805
  97 H :   -0.027417
  98 H :   -0.033183
  99 H :   -0.021883
 100 H :   -0.032548
 101 H :   -0.027815
 102 H :   -0.028421
 103 H :   -0.027573
 104 H :   -0.028685
 105 H :   -0.028209
 106 H :   -0.026957
 107 H :   -0.036767
 108 H :   -0.030287
 109 C :    0.110847
 110 H :   -0.029470
 111 H :   -0.029970
 112 H :   -0.027364
 113 C :    0.108436
 114 H :   -0.032863
 115 H :   -0.025474
 116 H :   -0.024428

  Mayer bond orders larger than 0.100000
B(  0-C ,  1-C ) :   0.9952 B(  0-C ,  2-C ) :   1.3123 B(  0-C ,  8-C ) :   1.3429
B(  1-C , 13-H ) :   0.9901 B(  1-C , 46-N ) :   1.9615 B(  2-C ,  3-C ) :   1.3424
B(  2-C ,  4-H ) :   0.9504 B(  3-C ,  5-C ) :   1.3517 B(  3-C , 11-C ) :   0.9855
B(  5-C ,  6-C ) :   1.3735 B(  5-C ,  7-H ) :   0.9696 B(  6-C ,  8-C ) :   1.3316
B(  6-C ,  9-C ) :   0.9933 B(  8-C , 10-H ) :   0.9610 B(  9-C , 12-H ) :   0.9835
B(  9-C , 60-N ) :   1.9749 B( 11-C , 14-H ) :   0.9943 B( 11-C , 54-N ) :   1.9857
B( 15-C , 16-C ) :   1.0170 B( 15-C , 17-C ) :   1.3447 B( 15-C , 23-C ) :   1.3461
B( 16-C , 50-N ) :   1.0326 B( 16-C , 51-N ) :   1.0149 B( 16-C , 71-H ) :   0.9902
B( 17-C , 18-C ) :   1.3108 B( 17-C , 19-H ) :   0.9393 B( 18-C , 20-C ) :   1.3694
B( 18-C , 26-C ) :   0.9939 B( 20-C , 21-C ) :   1.3688 B( 20-C , 22-H ) :   0.9779
B( 21-C , 23-C ) :   1.3237 B( 21-C , 24-C ) :   0.9977 B( 23-C , 25-H ) :   0.9476
B( 24-C , 27-H ) :   0.9882 B( 24-C , 56-N ) :   1.9729 B( 26-C , 28-H ) :   0.9958
B( 26-C , 66-N ) :   1.9858 B( 29-C , 30-C ) :   0.9987 B( 29-C , 31-C ) :   1.2987
B( 29-C , 37-C ) :   1.3964 B( 30-C , 45-N ) :   1.9790 B( 30-C , 69-H ) :   0.9810
B( 31-C , 32-C ) :   1.3783 B( 31-C , 33-H ) :   0.9614 B( 32-C , 34-C ) :   1.3026
B( 32-C , 40-C ) :   0.9922 B( 34-C , 35-C ) :   1.3934 B( 34-C , 36-H ) :   0.9604
B( 35-C , 37-C ) :   1.3036 B( 35-C , 38-C ) :   0.9991 B( 37-C , 39-H ) :   0.9635
B( 38-C , 41-H ) :   0.9851 B( 38-C , 68-N ) :   1.9724 B( 40-C , 42-H ) :   0.9902
B( 40-C , 62-N ) :   1.9480 B( 43-C , 44-C ) :   0.9339 B( 43-C , 45-N ) :   0.9398
B( 43-C , 84-C ) :   0.9479 B( 43-C , 85-C ) :   0.9528 B( 44-C , 46-N ) :   0.9745
B( 44-C , 47-H ) :   0.9854 B( 44-C , 73-H ) :   0.9883 B( 48-C , 49-C ) :   0.9220
B( 48-C , 50-N ) :   1.0009 B( 48-C ,109-C ) :   0.9769 B( 48-C ,113-C ) :   0.9515
B( 49-C , 51-N ) :   0.9946 B( 49-C ,107-H ) :   0.9889 B( 49-C ,108-H ) :   0.9765
B( 50-N , 72-H ) :   0.9958 B( 51-N , 70-H ) :   0.9977 B( 52-C , 53-C ) :   0.9324
B( 52-C , 54-N ) :   0.9721 B( 52-C , 55-H ) :   0.9866 B( 52-C , 74-H ) :   0.9836
B( 53-C , 56-N ) :   0.9396 B( 53-C , 57-C ) :   0.9485 B( 53-C , 75-C ) :   0.9519
B( 57-C ,104-H ) :   0.9803 B( 57-C ,105-H ) :   0.9824 B( 57-C ,106-H ) :   0.9845
B( 58-C , 59-C ) :   0.9265 B( 58-C , 60-N ) :   0.9433 B( 58-C , 61-C ) :   0.9620
B( 58-C , 76-C ) :   0.9493 B( 59-C , 62-N ) :   0.9793 B( 59-C , 63-H ) :   0.9862
B( 59-C , 77-H ) :   0.9878 B( 61-C , 98-H ) :   0.9805 B( 61-C , 99-H ) :   0.9793
B( 61-C ,100-H ) :   0.9803 B( 64-C , 65-C ) :   0.9313 B( 64-C , 66-N ) :   0.9763
B( 64-C , 67-H ) :   0.9830 B( 64-C , 78-H ) :   0.9850 B( 65-C , 68-N ) :   0.9368
B( 65-C , 79-C ) :   0.9523 B( 65-C , 80-C ) :   0.9505 B( 75-C , 92-H ) :   0.9804
B( 75-C , 93-H ) :   0.9735 B( 75-C , 94-H ) :   0.9854 B( 76-C , 89-H ) :   0.9843
B( 76-C , 90-H ) :   0.9813 B( 76-C , 91-H ) :   0.9786 B( 79-C , 81-H ) :   0.9858
B( 79-C , 82-H ) :   0.9731 B( 79-C , 83-H ) :   0.9807 B( 80-C ,101-H ) :   0.9824
B( 80-C ,102-H ) :   0.9800 B( 80-C ,103-H ) :   0.9846 B( 84-C , 86-H ) :   0.9843
B( 84-C , 87-H ) :   0.9812 B( 84-C , 88-H ) :   0.9781 B( 85-C , 95-H ) :   0.9803
B( 85-C , 96-H ) :   0.9839 B( 85-C , 97-H ) :   0.9750 B(109-C ,110-H ) :   0.9731
B(109-C ,111-H ) :   0.9752 B(109-C ,112-H ) :   0.9687 B(113-C ,114-H ) :   0.9818
B(113-C ,115-H ) :   0.9844 B(113-C ,116-H ) :   0.9796

MP2 TOTAL ENERGY:    -2369.645791379 Eh
FINAL SINGLE POINT ENERGY     -2369.645791379499

DIPOLE MOMENT
-------------
                                X             Y             Z
Electronic contribution:     -8.37698      -3.50085       4.96671
Nuclear contribution   :      8.94428       3.41656      -5.83225
                        -----------------------------------------
Total Dipole Moment    :      0.56730      -0.08429      -0.86554
                        -----------------------------------------
Magnitude (a.u.)       :      1.03831
Magnitude (Debye)      :      2.63917

Rotational constants in cm-1:     0.001434     0.001358     0.001260
Rotational constants in MHz :    42.989476    40.706807    37.759235

                             ****ORCA TERMINATED NORMALLY****
TOTAL RUN TIME: 0 days 2 hours 44 minutes 35 seconds 222 msec
