                         Program Version 4.2.1 -  RELEASE  -
|  1> ! RI-MP2 cc-pVTZ cc-pVTZ/C TIGHTSCF printbasis Grid6 NOFINALGRID SlowConv
|  2>
|  3> %base "_o_3_alde1_5_ami2_2_opt_MP2"
|  4> %maxcore 3000
|  5> %pal
|  6>    nprocs 32
|  7> end
|  8>
|  9> * xyzfile 0 1 _o_3_alde1_5_ami2_2_opt_B97-3c.xyz
| 10>
| 11>                          ****END OF INPUT****

CARTESIAN COORDINATES (ANGSTROEM)
---------------------------------
  C     -4.680727   -1.178854   -0.679416
  C     -5.580206   -0.639815    0.337893
  C     -3.924671   -2.326351   -0.459004
  C     -2.989665   -2.746517   -1.399092
  H     -4.051627   -2.889624    0.453065
  C     -2.793690   -1.988450   -2.555998
  C     -3.549315   -0.843359   -2.796372
  H     -2.036583   -2.291581   -3.271437
  C     -4.506338   -0.462139   -1.858437
  C     -3.271588    0.003332   -3.960830
  H     -5.078947    0.434997   -2.046874
  C     -2.205280   -3.961404   -1.170932
  H     -2.324019   -0.207412   -4.467908
  H     -6.177284    0.225309    0.020119
  H     -1.538053   -4.270070   -1.988577
  C      3.964641   -3.303418   -1.935902
  C      4.729820   -4.140371   -2.857075
  C      4.298893   -1.963650   -1.710517
  C      3.547804   -1.183703   -0.843471
  H      5.147891   -1.545387   -2.234951
  C      2.460976   -1.756143   -0.171092
  C      2.133288   -3.089761   -0.361382
  H      1.889885   -1.138102    0.509026
  C      2.886507   -3.854162   -1.259079
  C      1.042370   -3.693448    0.411370
  H      2.618235   -4.892851   -1.398949
  C      3.900357    0.221483   -0.655511
  H      0.557100   -3.026970    1.131608
  H      4.356530   -5.168305   -2.974455
  H      4.851009    0.534153   -1.111650
  C     -2.817591    2.126723    1.105376
  C     -3.501160    1.465245    2.219043
  C     -3.519540    2.547109   -0.023230
  C     -2.847337    3.014329   -1.148316
  H     -4.595663    2.440442   -0.028977
  C     -1.459303    3.127410   -1.121681
  C     -0.742027    2.739562    0.003365
  H     -0.930199    3.471689   -1.997395
  C     -1.428301    2.218511    1.101883
  C      0.723188    2.778690    0.015648
  H     -0.868183    1.860938    1.959344
  C     -3.603173    3.216962   -2.382741
  H      1.192106    2.280346    0.867978
  H     -4.693540    3.123527   -2.286301
  C     -5.439587    0.607007    3.311456
  C     -6.389992   -0.292418    2.470667
  N     -4.764885    1.437812    2.321446
  N     -5.627263   -1.073291    1.531046
  C      7.930401   -4.815104   -3.934314
  C      6.445074   -4.662144   -4.343237
  N      8.650227   -3.539330   -3.961127
  N      5.755600   -3.733983   -3.485396
  C     -1.498756   -5.801255    0.087389
  C     -0.316447   -5.552350    1.057719
  N     -2.301553   -4.624607   -0.092608
  N      0.726358   -4.913015    0.262664
  C     -3.701514    1.901532   -5.346842
  C     -3.895924    3.289946   -4.673602
  N     -4.049290    0.943970   -4.304217
  N     -3.050685    3.386696   -3.513750
  C      3.564419    2.416897    0.048484
  C      2.831069    3.320445   -0.975537
  N      3.160252    1.037163   -0.024205
  N      1.377561    3.317500   -0.927102
  H      8.674086   -3.191078   -4.913572
  H      8.110492   -2.861051   -3.435166
  H     -2.835059    0.946292    2.916562
  C      8.601701   -5.763001   -4.916864
  C      8.016986   -5.374777   -2.520676
  C     -4.545242   -0.260550    4.188724
  C     -6.295213    1.527877    4.176035
  H     -7.120185    0.362679    1.980661
  H     -6.920344   -0.958780    3.151516
  H      4.640636    2.546859   -0.123636
  H      3.352789    2.782030    1.054883
  C      3.201858    2.901333   -2.396988
  C      3.279840    4.762342   -0.733961
  H     -1.083930   -6.190945   -0.850079
  H     -2.131088   -6.572565    0.529454
  H     -4.960276    3.398336   -4.432556
  H     -3.619379    4.060326   -5.394049
  C     -4.736415    1.758882   -6.459235
  C     -2.292926    1.793454   -5.917594
  C      0.253312   -6.909576    1.466588
  C     -0.777441   -4.790306    2.294362
  H     -3.955584   -0.954813    3.595057
  H     -5.158540   -0.849274    4.868280
  H     -3.875119    0.344041    4.799056
  H     -6.910803    2.174242    3.555229
  H     -5.659688    2.158421    4.795324
  H     -6.943923    0.949509    4.832456
  H     -2.133281    0.838270   -6.417028
  H     -1.540288    1.919721   -5.143148
  H     -2.137158    2.574512   -6.659568
  H     -4.625878    2.555792   -7.193161
  H     -5.744367    1.793289   -6.053145
  H     -4.609662    0.805976   -6.970212
  H      0.057840   -4.623678    2.974240
  H     -1.531066   -5.369393    2.823870
  H     -1.231875   -3.835204    2.048388
  H     -0.479037   -7.478700    2.037134
  H      1.138580   -6.773817    2.084995
  H      0.542661   -7.484367    0.589452
  H      2.768084    5.428727   -1.423702
  H      4.353568    4.864959   -0.885528
  H      3.040764    5.077519    0.280683
  H      2.841458    1.899018   -2.615598
  H      4.281956    2.920876   -2.539057
  H      2.743668    3.582960   -3.108722
  H      7.474808   -6.316661   -2.437302
  H      7.590301   -4.679561   -1.799847
  H      9.056543   -5.545113   -2.250954
  H      8.542705   -5.379429   -5.936954
  H      8.132287   -6.745510   -4.901909
  H      9.653144   -5.879050   -4.662916
  H      5.961901   -5.650353   -4.364673
  H      6.422919   -4.259987   -5.360022

 Total Charge           Charge          ....    0
 Multiplicity           Mult            ....    1
 Number of Electrons    NEL             ....  412
 Basis Dimension        Dim             .... 2550

ORBITAL ENERGIES
----------------

  NO   OCC          E(Eh)            E(eV)
   0   2.0000     -15.561121      -423.4396
   1   2.0000     -15.559750      -423.4023
   2   2.0000     -15.555025      -423.2737
   3   2.0000     -15.551837      -423.1870
   4   2.0000     -15.549643      -423.1273
   5   2.0000     -15.549021      -423.1104
   6   2.0000     -15.546726      -423.0479
   7   2.0000     -15.545688      -423.0197
   8   2.0000     -15.545665      -423.0191
   9   2.0000     -15.527382      -422.5215
  10   2.0000     -11.287505      -307.1486
  11   2.0000     -11.286979      -307.1343
  12   2.0000     -11.282171      -307.0035
  13   2.0000     -11.281068      -306.9735
  14   2.0000     -11.277429      -306.8744
  15   2.0000     -11.277153      -306.8669
  16   2.0000     -11.274773      -306.8022
  17   2.0000     -11.274256      -306.7881
  18   2.0000     -11.272459      -306.7392
  19   2.0000     -11.265502      -306.5499
  20   2.0000     -11.264830      -306.5316
  21   2.0000     -11.263065      -306.4836
  22   2.0000     -11.262828      -306.4771
  23   2.0000     -11.257302      -306.3268
  24   2.0000     -11.253568      -306.2252
  25   2.0000     -11.253488      -306.2230
  26   2.0000     -11.252619      -306.1993
  27   2.0000     -11.252028      -306.1833
  28   2.0000     -11.251216      -306.1612
  29   2.0000     -11.251008      -306.1555
  30   2.0000     -11.250804      -306.1499
  31   2.0000     -11.249871      -306.1245
  32   2.0000     -11.249305      -306.1092
  33   2.0000     -11.248100      -306.0763
  34   2.0000     -11.248046      -306.0749
  35   2.0000     -11.244428      -305.9764
  36   2.0000     -11.244266      -305.9720
  37   2.0000     -11.243929      -305.9628
  38   2.0000     -11.243921      -305.9626
  39   2.0000     -11.243194      -305.9428
  40   2.0000     -11.243120      -305.9408
  41   2.0000     -11.241899      -305.9076
  42   2.0000     -11.241209      -305.8888
  43   2.0000     -11.240181      -305.8609
  44   2.0000     -11.239831      -305.8513
  45   2.0000     -11.238385      -305.8120
  46   2.0000     -11.235516      -305.7339
  47   2.0000     -11.211384      -305.0773
  48   2.0000     -11.210602      -305.0560
  49   2.0000     -11.210323      -305.0484
  50   2.0000     -11.210028      -305.0404
  51   2.0000     -11.209999      -305.0396
  52   2.0000     -11.209399      -305.0232
  53   2.0000     -11.208966      -305.0115
  54   2.0000     -11.208032      -304.9861
  55   2.0000     -11.206952      -304.9567
  56   2.0000     -11.203600      -304.8654
  57   2.0000      -1.255149       -34.1543
  58   2.0000      -1.253225       -34.1020
  59   2.0000      -1.252298       -34.0768
  60   2.0000      -1.250459       -34.0267
  61   2.0000      -1.248186       -33.9649
  62   2.0000      -1.228702       -33.4347
  63   2.0000      -1.227425       -33.3999
  64   2.0000      -1.221459       -33.2376
  65   2.0000      -1.217782       -33.1375
  66   2.0000      -1.187740       -32.3201
  67   2.0000      -1.171334       -31.8736
  68   2.0000      -1.166609       -31.7450
  69   2.0000      -1.160154       -31.5694
  70   2.0000      -1.089088       -29.6356
  71   2.0000      -1.086093       -29.5541
  72   2.0000      -1.084495       -29.5106
  73   2.0000      -1.068826       -29.0842
  74   2.0000      -1.058594       -28.8058
  75   2.0000      -1.051690       -28.6179
  76   2.0000      -1.045362       -28.4458
  77   2.0000      -1.034407       -28.1476
  78   2.0000      -1.027092       -27.9486
  79   2.0000      -1.024385       -27.8749
  80   2.0000      -1.018798       -27.7229
  81   2.0000      -0.953531       -25.9469
  82   2.0000      -0.946762       -25.7627
  83   2.0000      -0.944310       -25.6960
  84   2.0000      -0.941743       -25.6261
  85   2.0000      -0.939610       -25.5681
  86   2.0000      -0.939571       -25.5670
  87   2.0000      -0.937836       -25.5198
  88   2.0000      -0.936986       -25.4967
  89   2.0000      -0.935671       -25.4609
  90   2.0000      -0.935066       -25.4444
  91   2.0000      -0.895905       -24.3788
  92   2.0000      -0.893740       -24.3199
  93   2.0000      -0.890235       -24.2245
  94   2.0000      -0.872852       -23.7515
  95   2.0000      -0.869074       -23.6487
  96   2.0000      -0.858679       -23.3659
  97   2.0000      -0.853066       -23.2131
  98   2.0000      -0.843897       -22.9636
  99   2.0000      -0.833919       -22.6921
 100   2.0000      -0.795133       -21.6367
 101   2.0000      -0.791814       -21.5464
 102   2.0000      -0.772635       -21.0245
 103   2.0000      -0.764198       -20.7949
 104   2.0000      -0.758997       -20.6534
 105   2.0000      -0.754333       -20.5265
 106   2.0000      -0.750678       -20.4270
 107   2.0000      -0.741648       -20.1813
 108   2.0000      -0.729828       -19.8596
 109   2.0000      -0.726136       -19.7592
 110   2.0000      -0.720851       -19.6154
 111   2.0000      -0.709682       -19.3114
 112   2.0000      -0.699529       -19.0352
 113   2.0000      -0.694977       -18.9113
 114   2.0000      -0.689562       -18.7639
 115   2.0000      -0.680058       -18.5053
 116   2.0000      -0.675886       -18.3918
 117   2.0000      -0.670700       -18.2507
 118   2.0000      -0.663871       -18.0649
 119   2.0000      -0.661207       -17.9924
 120   2.0000      -0.660085       -17.9618
 121   2.0000      -0.654539       -17.8109
 122   2.0000      -0.652243       -17.7484
 123   2.0000      -0.648241       -17.6395
 124   2.0000      -0.646209       -17.5842
 125   2.0000      -0.639597       -17.4043
 126   2.0000      -0.639214       -17.3939
 127   2.0000      -0.628710       -17.1081
 128   2.0000      -0.627469       -17.0743
 129   2.0000      -0.624763       -17.0007
 130   2.0000      -0.623498       -16.9663
 131   2.0000      -0.621489       -16.9116
 132   2.0000      -0.620850       -16.8942
 133   2.0000      -0.614549       -16.7227
 134   2.0000      -0.613602       -16.6970
 135   2.0000      -0.606567       -16.5055
 136   2.0000      -0.603011       -16.4088
 137   2.0000      -0.599182       -16.3046
 138   2.0000      -0.598239       -16.2789
 139   2.0000      -0.596555       -16.2331
 140   2.0000      -0.595394       -16.2015
 141   2.0000      -0.590545       -16.0696
 142   2.0000      -0.575641       -15.6640
 143   2.0000      -0.566984       -15.4284
 144   2.0000      -0.561622       -15.2825
 145   2.0000      -0.557041       -15.1578
 146   2.0000      -0.554509       -15.0890
 147   2.0000      -0.551221       -14.9995
 148   2.0000      -0.548701       -14.9309
 149   2.0000      -0.548520       -14.9260
 150   2.0000      -0.547836       -14.9074
 151   2.0000      -0.545594       -14.8464
 152   2.0000      -0.539521       -14.6811
 153   2.0000      -0.536990       -14.6122
 154   2.0000      -0.535370       -14.5682
 155   2.0000      -0.534613       -14.5476
 156   2.0000      -0.533547       -14.5186
 157   2.0000      -0.532529       -14.4909
 158   2.0000      -0.531569       -14.4647
 159   2.0000      -0.531404       -14.4602
 160   2.0000      -0.530324       -14.4308
 161   2.0000      -0.528049       -14.3690
 162   2.0000      -0.526385       -14.3237
 163   2.0000      -0.524307       -14.2671
 164   2.0000      -0.517370       -14.0784
 165   2.0000      -0.515701       -14.0329
 166   2.0000      -0.514354       -13.9963
 167   2.0000      -0.510454       -13.8902
 168   2.0000      -0.508218       -13.8293
 169   2.0000      -0.506427       -13.7806
 170   2.0000      -0.503765       -13.7081
 171   2.0000      -0.496927       -13.5221
 172   2.0000      -0.493639       -13.4326
 173   2.0000      -0.492619       -13.4049
 174   2.0000      -0.492337       -13.3972
 175   2.0000      -0.488485       -13.2924
 176   2.0000      -0.485570       -13.2130
 177   2.0000      -0.484033       -13.1712
 178   2.0000      -0.483023       -13.1437
 179   2.0000      -0.478557       -13.0222
 180   2.0000      -0.470506       -12.8031
 181   2.0000      -0.461124       -12.5478
 182   2.0000      -0.456920       -12.4334
 183   2.0000      -0.448569       -12.2062
 184   2.0000      -0.446444       -12.1483
 185   2.0000      -0.442182       -12.0324
 186   2.0000      -0.437074       -11.8934
 187   2.0000      -0.419516       -11.4156
 188   2.0000      -0.415451       -11.3050
 189   2.0000      -0.411130       -11.1874
 190   2.0000      -0.404999       -11.0206
 191   2.0000      -0.403028       -10.9669
 192   2.0000      -0.401953       -10.9377
 193   2.0000      -0.401523       -10.9260
 194   2.0000      -0.397990       -10.8299
 195   2.0000      -0.397055       -10.8044
 196   2.0000      -0.390765       -10.6333
 197   2.0000      -0.390208       -10.6181
 198   2.0000      -0.387395       -10.5416
 199   2.0000      -0.379751       -10.3336
 200   2.0000      -0.328967        -8.9516
 201   2.0000      -0.327171        -8.9028
 202   2.0000      -0.324517        -8.8305
 203   2.0000      -0.320442        -8.7197
 204   2.0000      -0.316158        -8.6031
 205   2.0000      -0.313611        -8.5338
 206   0.0000       0.065542         1.7835
 207   0.0000       0.069382         1.8880
 208   0.0000       0.070869         1.9284
 209   0.0000       0.077491         2.1086
 210   0.0000       0.082994         2.2584

MULLIKEN ATOMIC CHARGES
-----------------------
   0 C :    0.174608
   1 C :   -0.096031
   2 C :   -0.185483
   3 C :    0.165301
   4 H :    0.181871
   5 C :   -0.238050
   6 C :    0.203743
   7 H :    0.137111
   8 C :   -0.218931
   9 C :   -0.111490
  10 H :    0.163046
  11 C :   -0.121227
  12 H :    0.099805
  13 H :    0.100627
  14 H :    0.105906
  15 C :    0.154389
  16 C :   -0.089409
  17 C :   -0.200144
  18 C :    0.160298
  19 H :    0.159834
  20 C :   -0.194719
  21 C :    0.156617
  22 H :    0.159847
  23 C :   -0.198508
  24 C :   -0.121183
  25 H :    0.160826
  26 C :   -0.107658
  27 H :    0.112785
  28 H :    0.091705
  29 H :    0.100222
  30 C :    0.205355
  31 C :   -0.103833
  32 C :   -0.230047
  33 C :    0.171973
  34 H :    0.163771
  35 C :   -0.177826
  36 C :    0.159079
  37 H :    0.180155
  38 C :   -0.249128
  39 C :   -0.082919
  40 H :    0.133772
  41 C :   -0.087149
  42 H :    0.104502
  43 H :    0.097797
  44 C :    0.172464
  45 C :   -0.029579
  46 N :   -0.292368
  47 N :   -0.266285
  48 C :    0.161125
  49 C :   -0.040822
  50 N :   -0.382632
  51 N :   -0.268801
  52 C :   -0.042378
  53 C :    0.160988
  54 N :   -0.252165
  55 N :   -0.273908
  56 C :    0.174206
  57 C :   -0.029042
  58 N :   -0.290951
  59 N :   -0.266378
  60 C :   -0.114918
  61 C :    0.193040
  62 N :   -0.263204
  63 N :   -0.281444
  64 H :    0.125124
  65 H :    0.144086
  66 H :    0.095407
  67 C :   -0.307770
  68 C :   -0.314269
  69 C :   -0.355771
  70 C :   -0.297886
  71 H :    0.074618
  72 H :    0.107484
  73 H :    0.098005
  74 H :    0.118292
  75 C :   -0.321699
  76 C :   -0.303056
  77 H :    0.080058
  78 H :    0.111291
  79 H :    0.072374
  80 H :    0.106641
  81 C :   -0.298031
  82 C :   -0.353305
  83 C :   -0.294581
  84 C :   -0.343131
  85 H :    0.125055
  86 H :    0.112506
  87 H :    0.099977
  88 H :    0.106031
  89 H :    0.100628
  90 H :    0.092622
  91 H :    0.098400
  92 H :    0.127818
  93 H :    0.110796
  94 H :    0.093381
  95 H :    0.106159
  96 H :    0.100162
  97 H :    0.105482
  98 H :    0.114080
  99 H :    0.119615
 100 H :    0.091494
 101 H :    0.101929
 102 H :    0.103762
 103 H :    0.114386
 104 H :    0.092498
 105 H :    0.098554
 106 H :    0.110495
 107 H :    0.089396
 108 H :    0.120226
 109 H :    0.086586
 110 H :    0.105501
 111 H :    0.113061
 112 H :    0.090693
 113 H :    0.092087
 114 H :    0.113134
 115 H :    0.059044
 116 H :    0.102400
Sum of atomic charges:   -0.0000000

LOEWDIN ATOMIC CHARGES
----------------------
   0 C :   -0.074562
   1 C :   -0.069442
   2 C :    0.111257
   3 C :   -0.078351
   4 H :   -0.016874
   5 C :    0.069939
   6 C :   -0.073810
   7 H :   -0.021990
   8 C :    0.092144
   9 C :   -0.068194
  10 H :   -0.023317
  11 C :   -0.070641
  12 H :   -0.034600
  13 H :   -0.035749
  14 H :   -0.035161
  15 C :   -0.078294
  16 C :   -0.072874
  17 C :    0.090402
  18 C :   -0.076267
  19 H :   -0.019799
  20 C :    0.092119
  21 C :   -0.075088
  22 H :   -0.019323
  23 C :    0.091826
  24 C :   -0.069564
  25 H :   -0.020582
  26 C :   -0.069675
  27 H :   -0.032658
  28 H :   -0.034011
  29 H :   -0.032547
  30 C :   -0.076051
  31 C :   -0.069589
  32 C :    0.089343
  33 C :   -0.074679
  34 H :   -0.023729
  35 C :    0.113125
  36 C :   -0.073717
  37 H :   -0.016775
  38 C :    0.068258
  39 C :   -0.067109
  40 H :   -0.023016
  41 C :   -0.069757
  42 H :   -0.038387
  43 H :   -0.036614
  44 C :   -0.204292
  45 C :   -0.031915
  46 N :    0.236319
  47 N :    0.214794
  48 C :   -0.194934
  49 C :   -0.038351
  50 N :    0.340500
  51 N :    0.219222
  52 C :   -0.033825
  53 C :   -0.202684
  54 N :    0.225622
  55 N :    0.236470
  56 C :   -0.204109
  57 C :   -0.032553
  58 N :    0.239395
  59 N :    0.217544
  60 C :   -0.040535
  61 C :   -0.204133
  62 N :    0.218078
  63 N :    0.240304
  64 H :   -0.108442
  65 H :   -0.108569
  66 H :   -0.034825
  67 C :    0.116810
  68 C :    0.113778
  69 C :    0.110896
  70 C :    0.118065
  71 H :   -0.034416
  72 H :   -0.028501
  73 H :   -0.029258
  74 H :   -0.029550
  75 C :    0.113175
  76 C :    0.120240
  77 H :   -0.034523
  78 H :   -0.024632
  79 H :   -0.035052
  80 H :   -0.028587
  81 C :    0.118163
  82 C :    0.111484
  83 C :    0.116491
  84 C :    0.112817
  85 H :   -0.028498
  86 H :   -0.022360
  87 H :   -0.032416
  88 H :   -0.027078
  89 H :   -0.028008
  90 H :   -0.027431
  91 H :   -0.032988
  92 H :   -0.026980
  93 H :   -0.022647
  94 H :   -0.027277
  95 H :   -0.027183
  96 H :   -0.028214
  97 H :   -0.029920
  98 H :   -0.020480
  99 H :   -0.033444
 100 H :   -0.028816
 101 H :   -0.027812
 102 H :   -0.027028
 103 H :   -0.023305
 104 H :   -0.029005
 105 H :   -0.029353
 106 H :   -0.030889
 107 H :   -0.032440
 108 H :   -0.023829
 109 H :   -0.030601
 110 H :   -0.031053
 111 H :   -0.025129
 112 H :   -0.030597
 113 H :   -0.027843
 114 H :   -0.023261
 115 H :   -0.036330
 116 H :   -0.029891

  Mayer bond orders larger than 0.100000
B(  0-C ,  1-C ) :   1.0005 B(  0-C ,  2-C ) :   1.3144 B(  0-C ,  8-C ) :   1.3403
B(  1-C , 13-H ) :   0.9924 B(  1-C , 47-N ) :   1.9617 B(  2-C ,  3-C ) :   1.3441
B(  2-C ,  4-H ) :   0.9502 B(  3-C ,  5-C ) :   1.3443 B(  3-C , 11-C ) :   0.9912
B(  5-C ,  6-C ) :   1.3846 B(  5-C ,  7-H ) :   0.9773 B(  6-C ,  8-C ) :   1.3355
B(  6-C ,  9-C ) :   0.9900 B(  8-C , 10-H ) :   0.9601 B(  9-C , 12-H ) :   0.9824
B(  9-C , 58-N ) :   1.9768 B( 11-C , 14-H ) :   0.9908 B( 11-C , 54-N ) :   1.9708
B( 15-C , 16-C ) :   1.0063 B( 15-C , 17-C ) :   1.2943 B( 15-C , 23-C ) :   1.3958
B( 16-C , 28-H ) :   0.9892 B( 16-C , 51-N ) :   1.9866 B( 17-C , 18-C ) :   1.3949
B( 17-C , 19-H ) :   0.9655 B( 18-C , 20-C ) :   1.2983 B( 18-C , 26-C ) :   0.9985
B( 20-C , 21-C ) :   1.4065 B( 20-C , 22-H ) :   0.9646 B( 21-C , 23-C ) :   1.2958
B( 21-C , 24-C ) :   1.0049 B( 23-C , 25-H ) :   0.9604 B( 24-C , 27-H ) :   0.9840
B( 24-C , 55-N ) :   1.9764 B( 26-C , 29-H ) :   0.9871 B( 26-C , 62-N ) :   1.9777
B( 30-C , 31-C ) :   0.9978 B( 30-C , 32-C ) :   1.3261 B( 30-C , 38-C ) :   1.3818
B( 31-C , 46-N ) :   1.9702 B( 31-C , 66-H ) :   0.9849 B( 32-C , 33-C ) :   1.3403
B( 32-C , 34-H ) :   0.9610 B( 33-C , 35-C ) :   1.3123 B( 33-C , 41-C ) :   1.0018
B( 35-C , 36-C ) :   1.3496 B( 35-C , 37-H ) :   0.9490 B( 36-C , 38-C ) :   1.3450
B( 36-C , 39-C ) :   1.0081 B( 38-C , 40-H ) :   0.9788 B( 39-C , 42-H ) :   0.9801
B( 39-C , 63-N ) :   1.9737 B( 41-C , 43-H ) :   0.9916 B( 41-C , 59-N ) :   1.9609
B( 44-C , 45-C ) :   0.9283 B( 44-C , 46-N ) :   0.9394 B( 44-C , 69-C ) :   0.9512
B( 44-C , 70-C ) :   0.9489 B( 45-C , 47-N ) :   0.9748 B( 45-C , 71-H ) :   0.9841
B( 45-C , 72-H ) :   0.9876 B( 48-C , 49-C ) :   0.9702 B( 48-C , 50-N ) :   0.9653
B( 48-C , 67-C ) :   0.9504 B( 48-C , 68-C ) :   0.9320 B( 49-C , 51-N ) :   0.9638
B( 49-C ,115-H ) :   0.9778 B( 49-C ,116-H ) :   0.9773 B( 50-N , 64-H ) :   0.9982
B( 50-N , 65-H ) :   0.9939 B( 52-C , 53-C ) :   0.9320 B( 52-C , 54-N ) :   0.9748
B( 52-C , 77-H ) :   0.9822 B( 52-C , 78-H ) :   0.9840 B( 53-C , 55-N ) :   0.9265
B( 53-C , 83-C ) :   0.9528 B( 53-C , 84-C ) :   0.9583 B( 56-C , 57-C ) :   0.9285
B( 56-C , 58-N ) :   0.9381 B( 56-C , 81-C ) :   0.9481 B( 56-C , 82-C ) :   0.9520
B( 57-C , 59-N ) :   0.9758 B( 57-C , 79-H ) :   0.9845 B( 57-C , 80-H ) :   0.9879
B( 60-C , 61-C ) :   0.9344 B( 60-C , 62-N ) :   0.9530 B( 60-C , 73-H ) :   0.9830
B( 60-C , 74-H ) :   0.9892 B( 61-C , 63-N ) :   0.9539 B( 61-C , 75-C ) :   0.9368
B( 61-C , 76-C ) :   0.9495 B( 67-C ,112-H ) :   0.9802 B( 67-C ,113-H ) :   0.9860
B( 67-C ,114-H ) :   0.9845 B( 68-C ,109-H ) :   0.9860 B( 68-C ,110-H ) :   0.9788
B( 68-C ,111-H ) :   0.9845 B( 69-C , 85-H ) :   0.9739 B( 69-C , 86-H ) :   0.9804
B( 69-C , 87-H ) :   0.9849 B( 70-C , 88-H ) :   0.9845 B( 70-C , 89-H ) :   0.9819
B( 70-C , 90-H ) :   0.9790 B( 75-C ,106-H ) :   0.9787 B( 75-C ,107-H ) :   0.9839
B( 75-C ,108-H ) :   0.9825 B( 76-C ,103-H ) :   0.9816 B( 76-C ,104-H ) :   0.9792
B( 76-C ,105-H ) :   0.9810 B( 81-C , 94-H ) :   0.9787 B( 81-C , 95-H ) :   0.9844
B( 81-C , 96-H ) :   0.9819 B( 82-C , 91-H ) :   0.9847 B( 82-C , 92-H ) :   0.9744
B( 82-C , 93-H ) :   0.9803 B( 83-C ,100-H ) :   0.9825 B( 83-C ,101-H ) :   0.9820
B( 83-C ,102-H ) :   0.9833 B( 84-C , 97-H ) :   0.9845 B( 84-C , 98-H ) :   0.9780
B( 84-C , 99-H ) :   0.9718

MP2 TOTAL ENERGY:    -2369.622464194 Eh
FINAL SINGLE POINT ENERGY     -2369.622464193651

DIPOLE MOMENT
-------------
                                X             Y             Z
Electronic contribution:    -27.92956      12.55780       5.90139
Nuclear contribution   :     28.16703     -12.99273      -5.99339
                        -----------------------------------------
Total Dipole Moment    :      0.23747      -0.43493      -0.09200
                        -----------------------------------------
Magnitude (a.u.)       :      0.50400
Magnitude (Debye)      :      1.28107

Rotational constants in cm-1:     0.001691     0.000858     0.000752
Rotational constants in MHz :    50.702759    25.718278    22.558351

                             ****ORCA TERMINATED NORMALLY****
TOTAL RUN TIME: 0 days 2 hours 37 minutes 16 seconds 438 msec
