                         Program Version 4.2.1 -  RELEASE  -
|  1> ! RI-MP2 cc-pVTZ cc-pVTZ/C TIGHTSCF printbasis Grid6 NOFINALGRID SlowConv
|  2>
|  3> %base "_o_3_alde1_6_ami4_1_opt_MP2"
|  4> %maxcore 3000
|  5> %pal
|  6>    nprocs 32
|  7> end
|  8>
|  9> * xyzfile 0 1 _o_3_alde1_6_ami4_1_opt_B97-3c.xyz
| 10>
| 11>                          ****END OF INPUT****

CARTESIAN COORDINATES (ANGSTROEM)
---------------------------------
  C     -2.412611   -2.011925   -0.821568
  C     -2.740774   -2.089924   -2.290588
  C     -1.510459   -2.926779   -0.276096
  C     -1.173709   -2.888633    1.074451
  H     -1.066717   -3.680647   -0.916480
  C     -1.747030   -1.907520    1.886756
  C     -2.662412   -1.008066    1.362171
  H     -1.477515   -1.879277    2.934296
  C     -2.991815   -1.066971    0.001738
  C     -3.248826    0.013583    2.226875
  H     -3.697896   -0.362696   -0.409829
  C     -0.248517   -3.882136    1.615689
  H     -2.727620    0.185157    3.179565
  H      0.180439   -4.575565    0.877315
  C      3.686864   -1.402979   -1.040098
  C      3.414936   -1.956280   -2.411613
  C      4.129767   -0.096150   -0.877022
  C      4.292481    0.455182    0.393384
  H      4.342979    0.510980   -1.749478
  C      3.958038   -0.310888    1.510105
  C      3.515951   -1.619629    1.358984
  H      4.052398    0.132446    2.492825
  C      3.404864   -2.165671    0.077906
  C      3.107008   -2.397477    2.527393
  H      3.090392   -3.193610   -0.029284
  C      4.776820    1.826565    0.508233
  H      2.979203   -1.826733    3.458412
  H      4.949720    2.337552   -0.448652
  C      0.186690    2.680883   -1.818041
  C      0.447492    2.265856   -3.240900
  C     -1.118138    2.614617   -1.330450
  C     -1.418770    2.993615   -0.026221
  H     -1.910525    2.255819   -1.977051
  C     -0.385575    3.427062    0.806390
  C      0.913104    3.516376    0.328951
  H     -0.623425    3.708332    1.823905
  C      1.194051    3.141573   -0.991743
  C      1.971386    3.973231    1.226898
  H      2.205375    3.206852   -1.362578
  C     -2.801099    2.934492    0.439444
  H      1.726782    3.928508    2.298141
  H     -3.525462    2.551612   -0.291724
  C     -3.341374   -0.615505   -4.053992
  C     -2.129800   -1.476644   -4.412795
  N     -3.764289   -1.118169   -2.736380
  H     -3.042292    0.432432   -3.977789
  N     -1.565153   -1.849666   -3.117570
  H     -2.437126   -2.380557   -4.943740
  C      1.701889   -2.936776   -3.637993
  C      2.584172   -4.070779   -3.123050
  N      1.987002   -1.831956   -2.721579
  H      0.634666   -3.142240   -3.644135
  N      3.752774   -3.391153   -2.550997
  H      2.881002   -4.779017   -3.896402
  C      0.974205    0.641271   -4.749729
  C      2.143205    1.635137   -4.770710
  N      0.340718    0.827550   -3.444612
  H      1.281354   -0.391425   -4.868185
  N      1.790615    2.618027   -3.732468
  H      2.272422    2.092632   -5.754153
  C      1.006401   -4.964519    3.244192
  C      2.331567   -4.302688    3.625460
  N      0.044053   -3.965281    2.849519
  H      0.622924   -5.492703    4.118726
  N      2.871511   -3.642873    2.467054
  H      3.019064   -5.092374    3.936931
  C     -4.678776    1.772516    2.749034
  C     -4.542529    3.080117    1.959492
  N     -4.277576    0.682215    1.901113
  H     -5.730539    1.652358    3.015498
  N     -3.160071    3.292878    1.605787
  H     -4.880402    3.901614    2.591767
  C      5.342913    3.811902    1.543898
  C      4.108489    4.679749    1.808519
  N      4.979843    2.416524    1.615900
  H      6.090805    4.030000    2.307145
  N      3.103627    4.378703    0.821645
  H      4.408850    5.724693    1.705230
  H      1.461381   -1.982218   -1.866668
  H      3.974709   -1.368441   -3.147934
  H      4.560515   -3.500418   -3.145141
  H      1.812786    3.563184   -4.088688
  H      0.932821    0.354306   -2.764876
  H     -0.332428    2.726085   -3.866869
  H     -1.076153   -1.029972   -2.764289
  H     -4.669271   -1.562216   -2.792837
  H     -3.082590   -3.112717   -2.504538
  H      2.005508   -2.648954   -4.647758
  H     -4.147930   -0.679498   -4.785387
  H      3.080612    1.136273   -4.513385
  H      2.178907   -3.625551    4.475534
  H     -5.198450    3.021322    1.082617
  H      3.758243    4.523527    2.836742
  H     -1.387138   -0.959020   -5.011691
  H      0.252261    0.885115   -5.531238
  H      1.200019   -5.700266    2.453057
  H     -4.091909    1.839046    3.674135
  H      5.755489    4.087212    0.565298
  H      2.059366   -4.634752   -2.346624

 Total Charge           Charge          ....    0
 Multiplicity           Mult            ....    1
 Number of Electrons    NEL             ....  366
 Basis Dimension        Dim             .... 2202

ORBITAL ENERGIES
----------------

  NO   OCC          E(Eh)            E(eV)
   0   2.0000     -15.549874      -423.1336
   1   2.0000     -15.546942      -423.0538
   2   2.0000     -15.546807      -423.0501
   3   2.0000     -15.545324      -423.0098
   4   2.0000     -15.544850      -422.9969
   5   2.0000     -15.543717      -422.9660
   6   2.0000     -15.543270      -422.9539
   7   2.0000     -15.542743      -422.9395
   8   2.0000     -15.541711      -422.9115
   9   2.0000     -15.541505      -422.9058
  10   2.0000     -15.540372      -422.8750
  11   2.0000     -15.539661      -422.8557
  12   2.0000     -11.288423      -307.1736
  13   2.0000     -11.285182      -307.0854
  14   2.0000     -11.284251      -307.0601
  15   2.0000     -11.273868      -306.7776
  16   2.0000     -11.272937      -306.7522
  17   2.0000     -11.271263      -306.7067
  18   2.0000     -11.271078      -306.7016
  19   2.0000     -11.270489      -306.6856
  20   2.0000     -11.270109      -306.6753
  21   2.0000     -11.249218      -306.1068
  22   2.0000     -11.248930      -306.0990
  23   2.0000     -11.246181      -306.0241
  24   2.0000     -11.246055      -306.0207
  25   2.0000     -11.245819      -306.0143
  26   2.0000     -11.244959      -305.9909
  27   2.0000     -11.244700      -305.9838
  28   2.0000     -11.244652      -305.9825
  29   2.0000     -11.244320      -305.9735
  30   2.0000     -11.244250      -305.9716
  31   2.0000     -11.242818      -305.9326
  32   2.0000     -11.242290      -305.9183
  33   2.0000     -11.238997      -305.8286
  34   2.0000     -11.238886      -305.8256
  35   2.0000     -11.237509      -305.7882
  36   2.0000     -11.236968      -305.7734
  37   2.0000     -11.236841      -305.7700
  38   2.0000     -11.236528      -305.7615
  39   2.0000     -11.234909      -305.7174
  40   2.0000     -11.234847      -305.7157
  41   2.0000     -11.234466      -305.7053
  42   2.0000     -11.234159      -305.6970
  43   2.0000     -11.233697      -305.6844
  44   2.0000     -11.233475      -305.6784
  45   2.0000     -11.232902      -305.6628
  46   2.0000     -11.232857      -305.6616
  47   2.0000     -11.231909      -305.6358
  48   2.0000     -11.229572      -305.5722
  49   2.0000     -11.227629      -305.5193
  50   2.0000     -11.226307      -305.4833
  51   2.0000      -1.275457       -34.7069
  52   2.0000      -1.273503       -34.6538
  53   2.0000      -1.270856       -34.5817
  54   2.0000      -1.244574       -33.8666
  55   2.0000      -1.243195       -33.8291
  56   2.0000      -1.242797       -33.8182
  57   2.0000      -1.219230       -33.1769
  58   2.0000      -1.216638       -33.1064
  59   2.0000      -1.213602       -33.0238
  60   2.0000      -1.160643       -31.5827
  61   2.0000      -1.156216       -31.4622
  62   2.0000      -1.154850       -31.4251
  63   2.0000      -1.142070       -31.0773
  64   2.0000      -1.137698       -30.9583
  65   2.0000      -1.135330       -30.8939
  66   2.0000      -1.060892       -28.8683
  67   2.0000      -1.059879       -28.8408
  68   2.0000      -1.058534       -28.8042
  69   2.0000      -1.050280       -28.5796
  70   2.0000      -1.049279       -28.5523
  71   2.0000      -1.038716       -28.2649
  72   2.0000      -1.004716       -27.3397
  73   2.0000      -0.990386       -26.9498
  74   2.0000      -0.989662       -26.9301
  75   2.0000      -0.978462       -26.6253
  76   2.0000      -0.976687       -26.5770
  77   2.0000      -0.976077       -26.5604
  78   2.0000      -0.900308       -24.4986
  79   2.0000      -0.899264       -24.4702
  80   2.0000      -0.898516       -24.4499
  81   2.0000      -0.870411       -23.6851
  82   2.0000      -0.870061       -23.6756
  83   2.0000      -0.868006       -23.6196
  84   2.0000      -0.848998       -23.1024
  85   2.0000      -0.847906       -23.0727
  86   2.0000      -0.836435       -22.7605
  87   2.0000      -0.829593       -22.5744
  88   2.0000      -0.826033       -22.4775
  89   2.0000      -0.820913       -22.3382
  90   2.0000      -0.811108       -22.0714
  91   2.0000      -0.801547       -21.8112
  92   2.0000      -0.800450       -21.7814
  93   2.0000      -0.772353       -21.0168
  94   2.0000      -0.767835       -20.8939
  95   2.0000      -0.766025       -20.8446
  96   2.0000      -0.740444       -20.1485
  97   2.0000      -0.736995       -20.0547
  98   2.0000      -0.735970       -20.0268
  99   2.0000      -0.704190       -19.1620
 100   2.0000      -0.701576       -19.0909
 101   2.0000      -0.700168       -19.0525
 102   2.0000      -0.697010       -18.9666
 103   2.0000      -0.693254       -18.8644
 104   2.0000      -0.688849       -18.7445
 105   2.0000      -0.673449       -18.3255
 106   2.0000      -0.671197       -18.2642
 107   2.0000      -0.668345       -18.1866
 108   2.0000      -0.667883       -18.1740
 109   2.0000      -0.664888       -18.0925
 110   2.0000      -0.663726       -18.0609
 111   2.0000      -0.655508       -17.8373
 112   2.0000      -0.654766       -17.8171
 113   2.0000      -0.644164       -17.5286
 114   2.0000      -0.633768       -17.2457
 115   2.0000      -0.631909       -17.1951
 116   2.0000      -0.626060       -17.0360
 117   2.0000      -0.616144       -16.7661
 118   2.0000      -0.613567       -16.6960
 119   2.0000      -0.610254       -16.6059
 120   2.0000      -0.608534       -16.5591
 121   2.0000      -0.602722       -16.4009
 122   2.0000      -0.601122       -16.3574
 123   2.0000      -0.599926       -16.3248
 124   2.0000      -0.593374       -16.1465
 125   2.0000      -0.592127       -16.1126
 126   2.0000      -0.587502       -15.9867
 127   2.0000      -0.584904       -15.9160
 128   2.0000      -0.582673       -15.8553
 129   2.0000      -0.579099       -15.7581
 130   2.0000      -0.578719       -15.7477
 131   2.0000      -0.575578       -15.6623
 132   2.0000      -0.551358       -15.0032
 133   2.0000      -0.548906       -14.9365
 134   2.0000      -0.547597       -14.9009
 135   2.0000      -0.542211       -14.7543
 136   2.0000      -0.537196       -14.6178
 137   2.0000      -0.535486       -14.5713
 138   2.0000      -0.534203       -14.5364
 139   2.0000      -0.532489       -14.4898
 140   2.0000      -0.531445       -14.4614
 141   2.0000      -0.529693       -14.4137
 142   2.0000      -0.526718       -14.3327
 143   2.0000      -0.524076       -14.2608
 144   2.0000      -0.522752       -14.2248
 145   2.0000      -0.521477       -14.1901
 146   2.0000      -0.520204       -14.1555
 147   2.0000      -0.514608       -14.0032
 148   2.0000      -0.512856       -13.9555
 149   2.0000      -0.509493       -13.8640
 150   2.0000      -0.500290       -13.6136
 151   2.0000      -0.497438       -13.5360
 152   2.0000      -0.493904       -13.4398
 153   2.0000      -0.492982       -13.4147
 154   2.0000      -0.487649       -13.2696
 155   2.0000      -0.486935       -13.2502
 156   2.0000      -0.483054       -13.1446
 157   2.0000      -0.481043       -13.0899
 158   2.0000      -0.479149       -13.0383
 159   2.0000      -0.448728       -12.2105
 160   2.0000      -0.443175       -12.0594
 161   2.0000      -0.442809       -12.0494
 162   2.0000      -0.412412       -11.2223
 163   2.0000      -0.411148       -11.1879
 164   2.0000      -0.406368       -11.0578
 165   2.0000      -0.403798       -10.9879
 166   2.0000      -0.401899       -10.9362
 167   2.0000      -0.401777       -10.9329
 168   2.0000      -0.401336       -10.9209
 169   2.0000      -0.399759       -10.8780
 170   2.0000      -0.397376       -10.8132
 171   2.0000      -0.395536       -10.7631
 172   2.0000      -0.395019       -10.7490
 173   2.0000      -0.388025       -10.5587
 174   2.0000      -0.375365       -10.2142
 175   2.0000      -0.373674       -10.1682
 176   2.0000      -0.372084       -10.1249
 177   2.0000      -0.324655        -8.8343
 178   2.0000      -0.322644        -8.7796
 179   2.0000      -0.321544        -8.7497
 180   2.0000      -0.314205        -8.5500
 181   2.0000      -0.312868        -8.5136
 182   2.0000      -0.311445        -8.4749
 183   0.0000       0.079792         2.1712
 184   0.0000       0.082657         2.2492
 185   0.0000       0.084172         2.2904
 186   0.0000       0.100855         2.7444
 187   0.0000       0.102716         2.7950

MULLIKEN ATOMIC CHARGES
-----------------------
   0 C :    0.058792
   1 C :    0.078998
   2 C :   -0.273598
   3 C :    0.176056
   4 H :    0.156938
   5 C :   -0.219563
   6 C :    0.207279
   7 H :    0.153178
   8 C :   -0.218369
   9 C :   -0.098365
  10 H :    0.183330
  11 C :   -0.091085
  12 H :    0.090848
  13 H :    0.090102
  14 C :    0.130671
  15 C :    0.031049
  16 C :   -0.248347
  17 C :    0.176456
  18 H :    0.149479
  19 C :   -0.223556
  20 C :    0.185349
  21 H :    0.153526
  22 C :   -0.223152
  23 C :   -0.088059
  24 H :    0.179296
  25 C :   -0.105418
  26 H :    0.091242
  27 H :    0.095159
  28 C :    0.059100
  29 C :    0.077992
  30 C :   -0.249377
  31 C :    0.178831
  32 H :    0.160986
  33 C :   -0.226161
  34 C :    0.202414
  35 H :    0.153028
  36 C :   -0.203983
  37 C :   -0.089776
  38 H :    0.178486
  39 C :   -0.114904
  40 H :    0.086288
  41 H :    0.104240
  42 C :   -0.093413
  43 C :   -0.121457
  44 N :   -0.291824
  45 H :    0.080041
  46 N :   -0.284764
  47 H :    0.092766
  48 C :   -0.128421
  49 C :   -0.098234
  50 N :   -0.274657
  51 H :    0.131249
  52 N :   -0.267855
  53 H :    0.102589
  54 C :   -0.146326
  55 C :   -0.091507
  56 N :   -0.288598
  57 H :    0.136825
  58 N :   -0.291849
  59 H :    0.097336
  60 C :   -0.034728
  61 C :   -0.034968
  62 N :   -0.252025
  63 H :    0.104361
  64 N :   -0.254268
  65 H :    0.100127
  66 C :   -0.038412
  67 C :   -0.039189
  68 N :   -0.252698
  69 H :    0.100544
  70 N :   -0.254196
  71 H :    0.105806
  72 C :   -0.036861
  73 C :   -0.032762
  74 N :   -0.251628
  75 H :    0.105264
  76 N :   -0.256709
  77 H :    0.098278
  78 H :    0.117468
  79 H :    0.088643
  80 H :    0.111029
  81 H :    0.116630
  82 H :    0.140316
  83 H :    0.091461
  84 H :    0.142914
  85 H :    0.116921
  86 H :    0.095792
  87 H :    0.077546
  88 H :    0.098473
  89 H :    0.078152
  90 H :    0.060062
  91 H :    0.064492
  92 H :    0.058413
  93 H :    0.123108
  94 H :    0.096968
  95 H :    0.060279
  96 H :    0.059525
  97 H :    0.061796
  98 H :    0.086769
Sum of atomic charges:   -0.0000000

LOEWDIN ATOMIC CHARGES
----------------------
   0 C :   -0.052500
   1 C :   -0.150599
   2 C :    0.063696
   3 C :   -0.076978
   4 H :   -0.022115
   5 C :    0.082065
   6 C :   -0.072702
   7 H :   -0.021035
   8 C :    0.082488
   9 C :   -0.067621
  10 H :   -0.028930
  11 C :   -0.072577
  12 H :   -0.034939
  13 H :   -0.036407
  14 C :   -0.055939
  15 C :   -0.140831
  16 C :    0.065307
  17 C :   -0.073498
  18 H :   -0.021778
  19 C :    0.084249
  20 C :   -0.073210
  21 H :   -0.020284
  22 C :    0.085133
  23 C :   -0.067819
  24 H :   -0.021167
  25 C :   -0.071898
  26 H :   -0.034785
  27 H :   -0.034485
  28 C :   -0.052420
  29 C :   -0.161129
  30 C :    0.071113
  31 C :   -0.075626
  32 H :   -0.019262
  33 C :    0.082678
  34 C :   -0.073072
  35 H :   -0.020845
  36 C :    0.082871
  37 C :   -0.069386
  38 H :   -0.027805
  39 C :   -0.069106
  40 H :   -0.035002
  41 H :   -0.033568
  42 C :   -0.005204
  43 C :   -0.011813
  44 N :    0.311139
  45 H :   -0.040066
  46 N :    0.312657
  47 H :   -0.034525
  48 C :   -0.015105
  49 C :   -0.012190
  50 N :    0.321765
  51 H :   -0.036303
  52 N :    0.308901
  53 H :   -0.035138
  54 C :   -0.011770
  55 C :   -0.000440
  56 N :    0.313793
  57 H :   -0.033193
  58 N :    0.309785
  59 H :   -0.040352
  60 C :   -0.042235
  61 C :   -0.040250
  62 N :    0.210138
  63 H :   -0.029333
  64 N :    0.217664
  65 H :   -0.027938
  66 C :   -0.039953
  67 C :   -0.041962
  68 N :    0.215495
  69 H :   -0.029014
  70 N :    0.203745
  71 H :   -0.030475
  72 C :   -0.041712
  73 C :   -0.039061
  74 N :    0.204888
  75 H :   -0.030346
  76 N :    0.214518
  77 H :   -0.029046
  78 H :   -0.111388
  79 H :   -0.033410
  80 H :   -0.121972
  81 H :   -0.118935
  82 H :   -0.114358
  83 H :   -0.031224
  84 H :   -0.113779
  85 H :   -0.121652
  86 H :   -0.031844
  87 H :   -0.038772
  88 H :   -0.038529
  89 H :   -0.042533
  90 H :   -0.039068
  91 H :   -0.037359
  92 H :   -0.039699
  93 H :   -0.031363
  94 H :   -0.037304
  95 H :   -0.038095
  96 H :   -0.039480
  97 H :   -0.037854
  98 H :   -0.038736

  Mayer bond orders larger than 0.100000
B(  0-C ,  1-C ) :   1.0301 B(  0-C ,  2-C ) :   1.3504 B(  0-C ,  8-C ) :   1.3849
B(  1-C , 44-N ) :   0.9851 B(  1-C , 46-N ) :   1.0436 B(  1-C , 86-H ) :   0.9951
B(  2-C ,  3-C ) :   1.3777 B(  2-C ,  4-H ) :   0.9674 B(  3-C ,  5-C ) :   1.3108
B(  3-C , 11-C ) :   0.9894 B(  5-C ,  6-C ) :   1.3874 B(  5-C ,  7-H ) :   0.9658
B(  6-C ,  8-C ) :   1.2678 B(  6-C ,  9-C ) :   0.9834 B(  8-C , 10-H ) :   0.9375
B(  9-C , 12-H ) :   0.9917 B(  9-C , 68-N ) :   1.9865 B( 11-C , 13-H ) :   0.9930
B( 11-C , 62-N ) :   1.9841 B( 14-C , 15-C ) :   0.9790 B( 14-C , 16-C ) :   1.3639
B( 14-C , 22-C ) :   1.3565 B( 15-C , 50-N ) :   1.0058 B( 15-C , 52-N ) :   1.0167
B( 15-C , 79-H ) :   1.0074 B( 16-C , 17-C ) :   1.3801 B( 16-C , 18-H ) :   0.9660
B( 17-C , 19-C ) :   1.3288 B( 17-C , 25-C ) :   0.9887 B( 19-C , 20-C ) :   1.3615
B( 19-C , 21-H ) :   0.9654 B( 20-C , 22-C ) :   1.3093 B( 20-C , 23-C ) :   0.9857
B( 22-C , 24-H ) :   0.9500 B( 23-C , 26-H ) :   0.9882 B( 23-C , 64-N ) :   1.9815
B( 25-C , 27-H ) :   0.9951 B( 25-C , 74-N ) :   1.9848 B( 28-C , 29-C ) :   1.0330
B( 28-C , 30-C ) :   1.3574 B( 28-C , 36-C ) :   1.3782 B( 29-C , 56-N ) :   1.0254
B( 29-C , 58-N ) :   0.9951 B( 29-C , 83-H ) :   0.9967 B( 30-C , 31-C ) :   1.3952
B( 30-C , 32-H ) :   0.9644 B( 31-C , 33-C ) :   1.3039 B( 31-C , 39-C ) :   0.9881
B( 33-C , 34-C ) :   1.3818 B( 33-C , 35-H ) :   0.9665 B( 34-C , 36-C ) :   1.2813
B( 34-C , 37-C ) :   0.9806 B( 36-C , 38-H ) :   0.9420 B( 37-C , 40-H ) :   0.9902
B( 37-C , 76-N ) :   1.9880 B( 39-C , 41-H ) :   0.9938 B( 39-C , 70-N ) :   1.9783
B( 42-C , 43-C ) :   0.9621 B( 42-C , 44-N ) :   1.0012 B( 42-C , 45-H ) :   0.9782
B( 42-C , 88-H ) :   0.9880 B( 43-C , 46-N ) :   0.9728 B( 43-C , 47-H ) :   0.9862
B( 43-C , 93-H ) :   0.9849 B( 44-N , 85-H ) :   0.9847 B( 46-N , 84-H ) :   0.9588
B( 48-C , 49-C ) :   0.9608 B( 48-C , 50-N ) :   0.9642 B( 48-C , 51-H ) :   0.9699
B( 48-C , 87-H ) :   0.9811 B( 49-C , 52-N ) :   0.9989 B( 49-C , 53-H ) :   0.9884
B( 49-C , 98-H ) :   0.9849 B( 50-N , 78-H ) :   0.9726 B( 52-N , 80-H ) :   0.9933
B( 54-C , 55-C ) :   0.9633 B( 54-C , 56-N ) :   0.9682 B( 54-C , 57-H ) :   0.9800
B( 54-C , 94-H ) :   0.9857 B( 55-C , 58-N ) :   0.9958 B( 55-C , 59-H ) :   0.9881
B( 55-C , 89-H ) :   0.9820 B( 56-N , 82-H ) :   0.9593 B( 58-N , 81-H ) :   0.9840
B( 60-C , 61-C ) :   0.9366 B( 60-C , 62-N ) :   0.9694 B( 60-C , 63-H ) :   0.9851
B( 60-C , 95-H ) :   0.9751 B( 61-C , 64-N ) :   0.9717 B( 61-C , 65-H ) :   0.9800
B( 61-C , 90-H ) :   0.9736 B( 66-C , 67-C ) :   0.9301 B( 66-C , 68-N ) :   0.9723
B( 66-C , 69-H ) :   0.9821 B( 66-C , 96-H ) :   0.9728 B( 67-C , 70-N ) :   0.9696
B( 67-C , 71-H ) :   0.9878 B( 67-C , 91-H ) :   0.9747 B( 72-C , 73-C ) :   0.9332
B( 72-C , 74-N ) :   0.9689 B( 72-C , 75-H ) :   0.9878 B( 72-C , 97-H ) :   0.9760
B( 73-C , 76-N ) :   0.9714 B( 73-C , 77-H ) :   0.9804 B( 73-C , 92-H ) :   0.9735

MP2 TOTAL ENERGY:    -2167.540390137 Eh
FINAL SINGLE POINT ENERGY     -2167.540390137307

DIPOLE MOMENT
-------------
                                X             Y             Z
Electronic contribution:      1.56360       5.33614      18.89488
Nuclear contribution   :     -1.68495      -5.73080     -20.85565
                        -----------------------------------------
Total Dipole Moment    :     -0.12135      -0.39466      -1.96077
                        -----------------------------------------
Magnitude (a.u.)       :      2.00377
Magnitude (Debye)      :      5.09317

Rotational constants in cm-1:     0.001857     0.001738     0.001560
Rotational constants in MHz :    55.669234    52.093976    46.754792

                             ****ORCA TERMINATED NORMALLY****
TOTAL RUN TIME: 0 days 1 hours 45 minutes 41 seconds 866 msec
