                         Program Version 4.2.1 -  RELEASE  -
|  1> ! RI-MP2 cc-pVTZ cc-pVTZ/C TIGHTSCF printbasis Grid6 NOFINALGRID SlowConv
|  2>
|  3> %base "_o_3_alde1_5_ami4_1_opt_MP2"
|  4> %maxcore 3000
|  5> %pal
|  6>    nprocs 32
|  7> end
|  8>
|  9> * xyzfile 0 1 _o_3_alde1_5_ami4_1_opt_B97-3c.xyz
| 10>
| 11>                          ****END OF INPUT****

CARTESIAN COORDINATES (ANGSTROEM)
---------------------------------
  C     -4.081540   -1.673352   -0.684354
  C     -4.951654   -0.727316    0.009078
  C     -3.665982   -2.875914   -0.103686
  C     -2.778889   -3.710021   -0.770162
  H     -4.042954   -3.137574    0.876279
  C     -2.244032   -3.302995   -1.996205
  C     -2.616432   -2.095016   -2.567398
  H     -1.503832   -3.933084   -2.469438
  C     -3.567748   -1.303480   -1.919518
  C     -1.912551   -1.605850   -3.750816
  H     -3.847583   -0.361182   -2.370138
  C     -2.329270   -4.959978   -0.155236
  H     -1.000917   -2.160355   -4.014762
  H     -5.273726    0.128353   -0.598799
  H     -2.427908   -5.017928    0.938165
  C      2.406603   -1.983780   -2.587931
  C      2.483631   -1.172366   -3.855120
  C      2.902812   -1.478279   -1.401427
  C      2.829357   -2.222435   -0.219552
  H      3.310183   -0.479434   -1.378639
  C      2.246622   -3.482015   -0.237938
  C      1.771736   -4.021747   -1.433574
  H      2.146272   -4.062576    0.669729
  C      1.854295   -3.260779   -2.598748
  C      1.131764   -5.331584   -1.485350
  H      1.469479   -3.666731   -3.527871
  C      3.285140   -1.645163    1.043136
  H      0.778574   -5.636599   -2.480248
  H      2.886138   -2.113552    1.954505
  C     -1.647732    1.616660    0.874458
  C     -2.732804    1.415759    1.834697
  C     -1.918767    1.761519   -0.488422
  C     -0.889946    1.798871   -1.420997
  H     -2.951793    1.792108   -0.806558
  C      0.435875    1.762962   -0.976542
  C      0.722001    1.676125    0.380185
  H      1.242068    1.781132   -1.697109
  C     -0.327528    1.570888    1.298397
  C      2.118115    1.667930    0.813077
  H     -0.085502    1.454481    2.346628
  C     -1.258235    1.800054   -2.833000
  H      2.854909    1.784156    0.009112
  H     -2.316264    2.014055   -3.026675
  C     -4.955122    1.230678    2.506925
  C     -5.964317    0.313663    1.799949
  N     -3.950739    1.641517    1.558975
  H     -4.532733    0.717435    3.379910
  N     -5.271040   -0.822153    1.235599
  H     -6.490881    0.903348    1.039419
  C      3.887440   -0.231701   -5.411500
  C      3.298885    0.930022   -4.600712
  N      3.739731   -1.413247   -4.560893
  H      4.928026   -0.088001   -5.693483
  N      2.419050    0.278262   -3.625692
  H      2.753955    1.637206   -5.229959
  C     -1.255805   -7.033146   -0.144806
  C      0.166031   -7.266772   -0.667245
  N     -1.821614   -5.901975   -0.835380
  H     -1.239107   -6.904613    0.944668
  N      0.952709   -6.073412   -0.468580
  H      0.102023   -7.558704   -1.723454
  C     -1.393615   -0.059444   -5.413240
  C     -1.074278    1.409873   -5.103760
  N     -2.270661   -0.571266   -4.393275
  H     -0.462884   -0.634457   -5.505445
  N     -0.469384    1.520850   -3.792872
  H     -2.003225    1.985896   -5.178172
  C      4.317396   -0.026630    2.366352
  C      3.888608    1.443836    2.287830
  N      4.060880   -0.642102    1.092389
  H      3.801428   -0.522382    3.198800
  N      2.469956    1.529403    2.027060
  H      4.488197    1.931318    1.510037
  H     -2.429328    1.000531    2.806214
  H      1.466512    0.627540   -3.686491
  H      1.671886   -1.503590   -4.520257
  H      4.482325   -1.421746   -3.868903
  H     -5.497442    2.111317    2.858301
  H     -6.691707   -0.031013    2.535044
  H      3.313569   -0.389733   -6.326151
  H      4.088955    1.490100   -4.092698
  H     -1.846189   -7.923339   -0.374951
  H      0.610191   -8.091342   -0.108078
  H     -1.906464   -0.089180   -6.377065
  H     -0.378007    1.781325   -5.855937
  H      5.391055   -0.048686    2.565413
  H      4.105626    1.922104    3.243202

 Total Charge           Charge          ....    0
 Multiplicity           Mult            ....    1
 Number of Electrons    NEL             ....  332
 Basis Dimension        Dim             .... 1970

ORBITAL ENERGIES
----------------

  NO   OCC          E(Eh)            E(eV)
   0   2.0000     -15.559835      -423.4046
   1   2.0000     -15.559456      -423.3943
   2   2.0000     -15.556031      -423.3011
   3   2.0000     -15.555557      -423.2882
   4   2.0000     -15.552370      -423.2015
   5   2.0000     -15.549594      -423.1260
   6   2.0000     -15.549048      -423.1111
   7   2.0000     -15.549018      -423.1103
   8   2.0000     -15.541878      -422.9160
   9   2.0000     -15.524849      -422.4526
  10   2.0000     -11.288418      -307.1735
  11   2.0000     -11.286751      -307.1281
  12   2.0000     -11.282697      -307.0178
  13   2.0000     -11.281880      -306.9956
  14   2.0000     -11.281181      -306.9765
  15   2.0000     -11.279291      -306.9251
  16   2.0000     -11.276033      -306.8365
  17   2.0000     -11.276015      -306.8360
  18   2.0000     -11.275616      -306.8251
  19   2.0000     -11.260112      -306.4032
  20   2.0000     -11.258462      -306.3583
  21   2.0000     -11.254002      -306.2370
  22   2.0000     -11.252198      -306.1879
  23   2.0000     -11.251237      -306.1617
  24   2.0000     -11.250482      -306.1412
  25   2.0000     -11.249826      -306.1233
  26   2.0000     -11.249465      -306.1135
  27   2.0000     -11.249303      -306.1091
  28   2.0000     -11.249207      -306.1065
  29   2.0000     -11.248759      -306.0943
  30   2.0000     -11.248720      -306.0932
  31   2.0000     -11.248646      -306.0912
  32   2.0000     -11.247482      -306.0595
  33   2.0000     -11.247347      -306.0559
  34   2.0000     -11.247155      -306.0506
  35   2.0000     -11.246911      -306.0440
  36   2.0000     -11.246665      -306.0373
  37   2.0000     -11.246396      -306.0300
  38   2.0000     -11.244996      -305.9919
  39   2.0000     -11.244759      -305.9855
  40   2.0000     -11.241894      -305.9075
  41   2.0000     -11.241389      -305.8938
  42   2.0000     -11.239966      -305.8550
  43   2.0000     -11.238652      -305.8193
  44   2.0000     -11.236766      -305.7680
  45   2.0000     -11.234562      -305.7080
  46   2.0000     -11.230278      -305.5914
  47   2.0000      -1.267119       -34.4801
  48   2.0000      -1.258720       -34.2515
  49   2.0000      -1.252924       -34.0938
  50   2.0000      -1.250602       -34.0306
  51   2.0000      -1.248259       -33.9669
  52   2.0000      -1.231959       -33.5233
  53   2.0000      -1.224697       -33.3257
  54   2.0000      -1.223586       -33.2955
  55   2.0000      -1.219705       -33.1898
  56   2.0000      -1.171804       -31.8864
  57   2.0000      -1.164676       -31.6924
  58   2.0000      -1.159817       -31.5602
  59   2.0000      -1.130506       -30.7626
  60   2.0000      -1.073344       -29.2072
  61   2.0000      -1.068083       -29.0640
  62   2.0000      -1.065660       -28.9981
  63   2.0000      -1.054482       -28.6939
  64   2.0000      -1.052398       -28.6372
  65   2.0000      -1.047010       -28.4906
  66   2.0000      -1.014696       -27.6113
  67   2.0000      -0.999353       -27.1938
  68   2.0000      -0.995073       -27.0773
  69   2.0000      -0.992644       -27.0112
  70   2.0000      -0.976566       -26.5737
  71   2.0000      -0.913172       -24.8487
  72   2.0000      -0.908220       -24.7139
  73   2.0000      -0.906576       -24.6692
  74   2.0000      -0.905041       -24.6274
  75   2.0000      -0.877446       -23.8765
  76   2.0000      -0.872897       -23.7527
  77   2.0000      -0.865113       -23.5409
  78   2.0000      -0.854416       -23.2498
  79   2.0000      -0.836284       -22.7564
  80   2.0000      -0.828667       -22.5492
  81   2.0000      -0.822704       -22.3869
  82   2.0000      -0.819295       -22.2942
  83   2.0000      -0.803922       -21.8758
  84   2.0000      -0.800407       -21.7802
  85   2.0000      -0.771103       -20.9828
  86   2.0000      -0.755956       -20.5706
  87   2.0000      -0.754172       -20.5221
  88   2.0000      -0.746677       -20.3181
  89   2.0000      -0.744522       -20.2595
  90   2.0000      -0.741044       -20.1648
  91   2.0000      -0.709322       -19.3016
  92   2.0000      -0.707199       -19.2439
  93   2.0000      -0.701643       -19.0927
  94   2.0000      -0.691918       -18.8280
  95   2.0000      -0.689956       -18.7747
  96   2.0000      -0.681562       -18.5462
  97   2.0000      -0.673682       -18.3318
  98   2.0000      -0.669882       -18.2284
  99   2.0000      -0.669396       -18.2152
 100   2.0000      -0.664195       -18.0737
 101   2.0000      -0.663385       -18.0516
 102   2.0000      -0.656356       -17.8604
 103   2.0000      -0.650314       -17.6959
 104   2.0000      -0.647721       -17.6254
 105   2.0000      -0.644798       -17.5459
 106   2.0000      -0.633904       -17.2494
 107   2.0000      -0.622552       -16.9405
 108   2.0000      -0.618926       -16.8418
 109   2.0000      -0.617517       -16.8035
 110   2.0000      -0.614310       -16.7162
 111   2.0000      -0.613057       -16.6821
 112   2.0000      -0.612246       -16.6600
 113   2.0000      -0.604731       -16.4556
 114   2.0000      -0.599914       -16.3245
 115   2.0000      -0.595986       -16.2176
 116   2.0000      -0.592006       -16.1093
 117   2.0000      -0.584867       -15.9150
 118   2.0000      -0.583508       -15.8781
 119   2.0000      -0.580471       -15.7954
 120   2.0000      -0.578541       -15.7429
 121   2.0000      -0.551731       -15.0134
 122   2.0000      -0.549515       -14.9531
 123   2.0000      -0.546454       -14.8698
 124   2.0000      -0.546053       -14.8589
 125   2.0000      -0.544465       -14.8157
 126   2.0000      -0.538555       -14.6548
 127   2.0000      -0.537111       -14.6155
 128   2.0000      -0.535007       -14.5583
 129   2.0000      -0.532690       -14.4952
 130   2.0000      -0.529107       -14.3977
 131   2.0000      -0.528291       -14.3755
 132   2.0000      -0.526050       -14.3146
 133   2.0000      -0.522088       -14.2067
 134   2.0000      -0.514680       -14.0052
 135   2.0000      -0.505403       -13.7527
 136   2.0000      -0.502676       -13.6785
 137   2.0000      -0.498704       -13.5704
 138   2.0000      -0.497846       -13.5471
 139   2.0000      -0.495069       -13.4715
 140   2.0000      -0.489730       -13.3262
 141   2.0000      -0.481909       -13.1134
 142   2.0000      -0.460741       -12.5374
 143   2.0000      -0.455046       -12.3824
 144   2.0000      -0.452763       -12.3203
 145   2.0000      -0.450702       -12.2642
 146   2.0000      -0.447663       -12.1815
 147   2.0000      -0.419262       -11.4087
 148   2.0000      -0.416694       -11.3388
 149   2.0000      -0.414833       -11.2882
 150   2.0000      -0.411690       -11.2027
 151   2.0000      -0.409667       -11.1476
 152   2.0000      -0.408468       -11.1150
 153   2.0000      -0.406789       -11.0693
 154   2.0000      -0.404229       -10.9996
 155   2.0000      -0.399994       -10.8844
 156   2.0000      -0.398956       -10.8561
 157   2.0000      -0.398330       -10.8391
 158   2.0000      -0.389360       -10.5950
 159   2.0000      -0.362513        -9.8645
 160   2.0000      -0.328886        -8.9495
 161   2.0000      -0.326827        -8.8934
 162   2.0000      -0.326588        -8.8869
 163   2.0000      -0.324909        -8.8412
 164   2.0000      -0.321486        -8.7481
 165   2.0000      -0.315539        -8.5863
 166   0.0000       0.067184         1.8282
 167   0.0000       0.069475         1.8905
 168   0.0000       0.076728         2.0879
 169   0.0000       0.079922         2.1748
 170   0.0000       0.081890         2.2283

MULLIKEN ATOMIC CHARGES
-----------------------
   0 C :    0.172907
   1 C :   -0.094397
   2 C :   -0.218616
   3 C :    0.194965
   4 H :    0.159197
   5 C :   -0.204723
   6 C :    0.190152
   7 H :    0.156321
   8 C :   -0.228491
   9 C :   -0.076444
  10 H :    0.161420
  11 C :   -0.093123
  12 H :    0.085709
  13 H :    0.100355
  14 H :    0.090901
  15 C :    0.119017
  16 C :    0.042233
  17 C :   -0.227776
  18 C :    0.208446
  19 H :    0.185133
  20 C :   -0.234777
  21 C :    0.187403
  22 H :    0.153952
  23 C :   -0.271569
  24 C :   -0.102339
  25 H :    0.146089
  26 C :   -0.096174
  27 H :    0.095961
  28 H :    0.089726
  29 C :    0.193620
  30 C :   -0.078751
  31 C :   -0.234899
  32 C :    0.189882
  33 H :    0.161564
  34 C :   -0.205105
  35 C :    0.153841
  36 H :    0.172384
  37 C :   -0.207949
  38 C :   -0.111164
  39 H :    0.158499
  40 C :   -0.100657
  41 H :    0.113318
  42 H :    0.114354
  43 C :   -0.035168
  44 C :   -0.040030
  45 N :   -0.264482
  46 H :    0.061263
  47 N :   -0.257643
  48 H :    0.066656
  49 C :   -0.097660
  50 C :   -0.107627
  51 N :   -0.262903
  52 H :    0.111276
  53 N :   -0.321776
  54 H :    0.091204
  55 C :   -0.033888
  56 C :   -0.036871
  57 N :   -0.258520
  58 H :    0.061406
  59 N :   -0.253018
  60 H :    0.062584
  61 C :   -0.049924
  62 C :   -0.072963
  63 N :   -0.265349
  64 H :    0.060659
  65 N :   -0.286155
  66 H :    0.089421
  67 C :   -0.038576
  68 C :   -0.039488
  69 N :   -0.255690
  70 H :    0.060108
  71 N :   -0.256839
  72 H :    0.067489
  73 H :    0.091159
  74 H :    0.190720
  75 H :    0.087451
  76 H :    0.106991
  77 H :    0.100897
  78 H :    0.107813
  79 H :    0.079050
  80 H :    0.081435
  81 H :    0.100173
  82 H :    0.106491
  83 H :    0.115153
  84 H :    0.116809
  85 H :    0.100788
  86 H :    0.107178
Sum of atomic charges:   -0.0000000

LOEWDIN ATOMIC CHARGES
----------------------
   0 C :   -0.073755
   1 C :   -0.072917
   2 C :    0.094481
   3 C :   -0.070963
   4 H :   -0.017311
   5 C :    0.093717
   6 C :   -0.074839
   7 H :   -0.020963
   8 C :    0.091262
   9 C :   -0.066843
  10 H :   -0.022620
  11 C :   -0.068285
  12 H :   -0.035161
  13 H :   -0.034991
  14 H :   -0.034921
  15 C :   -0.049576
  16 C :   -0.157671
  17 C :    0.084118
  18 C :   -0.073149
  19 H :   -0.025938
  20 C :    0.082882
  21 C :   -0.076658
  22 H :   -0.020502
  23 C :    0.065240
  24 C :   -0.074229
  25 H :   -0.023599
  26 C :   -0.067165
  27 H :   -0.036386
  28 H :   -0.035153
  29 C :   -0.075572
  30 C :   -0.067454
  31 C :    0.094215
  32 C :   -0.075827
  33 H :   -0.022044
  34 C :    0.099811
  35 C :   -0.072062
  36 H :   -0.017506
  37 C :    0.098004
  38 C :   -0.068602
  39 H :   -0.017635
  40 C :   -0.061190
  41 H :   -0.032097
  42 H :   -0.029298
  43 C :   -0.035667
  44 C :   -0.038486
  45 N :    0.214741
  46 H :   -0.038941
  47 N :    0.203155
  48 H :   -0.037181
  49 C :   -0.009027
  50 C :   -0.012426
  51 N :    0.302255
  52 H :   -0.032831
  53 N :    0.309516
  54 H :   -0.039385
  55 C :   -0.035795
  56 C :   -0.041062
  57 N :    0.219378
  58 H :   -0.038996
  59 N :    0.206518
  60 H :   -0.037626
  61 C :   -0.038454
  62 C :   -0.039021
  63 N :    0.214844
  64 H :   -0.041066
  65 N :    0.217465
  66 H :   -0.032834
  67 C :   -0.038823
  68 C :   -0.040151
  69 N :    0.216991
  70 H :   -0.039457
  71 N :    0.203620
  72 H :   -0.036327
  73 H :   -0.033650
  74 H :   -0.148142
  75 H :   -0.037843
  76 H :   -0.109090
  77 H :   -0.028107
  78 H :   -0.029835
  79 H :   -0.034327
  80 H :   -0.042613
  81 H :   -0.027905
  82 H :   -0.029595
  83 H :   -0.026376
  84 H :   -0.029960
  85 H :   -0.028093
  86 H :   -0.030235

  Mayer bond orders larger than 0.100000
B(  0-C ,  1-C ) :   0.9921 B(  0-C ,  2-C ) :   1.3032 B(  0-C ,  8-C ) :   1.3773
B(  1-C , 13-H ) :   0.9918 B(  1-C , 47-N ) :   1.9751 B(  2-C ,  3-C ) :   1.3800
B(  2-C ,  4-H ) :   0.9653 B(  3-C ,  5-C ) :   1.3188 B(  3-C , 11-C ) :   0.9673
B(  5-C ,  6-C ) :   1.3868 B(  5-C ,  7-H ) :   0.9620 B(  6-C ,  8-C ) :   1.2942
B(  6-C ,  9-C ) :   0.9920 B(  8-C , 10-H ) :   0.9621 B(  9-C , 12-H ) :   0.9868
B(  9-C , 63-N ) :   1.9697 B( 11-C , 14-H ) :   0.9873 B( 11-C , 57-N ) :   1.9945
B( 15-C , 16-C ) :   1.0103 B( 15-C , 17-C ) :   1.3615 B( 15-C , 23-C ) :   1.3725
B( 16-C , 51-N ) :   1.0256 B( 16-C , 53-N ) :   1.0176 B( 16-C , 75-H ) :   0.9927
B( 17-C , 18-C ) :   1.3042 B( 17-C , 19-H ) :   0.9446 B( 18-C , 20-C ) :   1.3680
B( 18-C , 26-C ) :   0.9787 B( 20-C , 21-C ) :   1.3214 B( 20-C , 22-H ) :   0.9663
B( 21-C , 23-C ) :   1.3738 B( 21-C , 24-C ) :   0.9838 B( 23-C , 25-H ) :   0.9689
B( 24-C , 27-H ) :   0.9945 B( 24-C , 59-N ) :   1.9822 B( 26-C , 28-H ) :   0.9895
B( 26-C , 69-N ) :   1.9884 B( 29-C , 30-C ) :   0.9792 B( 29-C , 31-C ) :   1.2968
B( 29-C , 37-C ) :   1.3829 B( 30-C , 45-N ) :   1.9848 B( 30-C , 73-H ) :   0.9896
B( 31-C , 32-C ) :   1.3622 B( 31-C , 33-H ) :   0.9643 B( 32-C , 34-C ) :   1.3072
B( 32-C , 40-C ) :   0.9899 B( 34-C , 35-C ) :   1.4099 B( 34-C , 36-H ) :   0.9495
B( 35-C , 37-C ) :   1.3012 B( 35-C , 38-C ) :   0.9903 B( 37-C , 39-H ) :   0.9632
B( 38-C , 41-H ) :   0.9912 B( 38-C , 71-N ) :   1.9780 B( 40-C , 42-H ) :   0.9895
B( 40-C , 65-N ) :   1.9415 B( 43-C , 44-C ) :   0.9333 B( 43-C , 45-N ) :   0.9699
B( 43-C , 46-H ) :   0.9742 B( 43-C , 77-H ) :   0.9795 B( 44-C , 47-N ) :   0.9674
B( 44-C , 48-H ) :   0.9774 B( 44-C , 78-H ) :   0.9883 B( 49-C , 50-C ) :   0.9541
B( 49-C , 51-N ) :   0.9908 B( 49-C , 52-H ) :   0.9934 B( 49-C , 79-H ) :   0.9857
B( 50-C , 53-N ) :   1.0048 B( 50-C , 54-H ) :   0.9844 B( 50-C , 80-H ) :   0.9806
B( 51-N , 76-H ) :   0.9943 B( 53-N , 74-H ) :   0.9457 B( 55-C , 56-C ) :   0.9367
B( 55-C , 57-N ) :   0.9669 B( 55-C , 58-H ) :   0.9750 B( 55-C , 81-H ) :   0.9785
B( 56-C , 59-N ) :   0.9696 B( 56-C , 60-H ) :   0.9766 B( 56-C , 82-H ) :   0.9878
B( 61-C , 62-C ) :   0.9301 B( 61-C , 63-N ) :   0.9760 B( 61-C , 64-H ) :   0.9722
B( 61-C , 83-H ) :   0.9802 B( 62-C , 65-N ) :   0.9522 B( 62-C , 66-H ) :   0.9815
B( 62-C , 84-H ) :   0.9864 B( 67-C , 68-C ) :   0.9339 B( 67-C , 69-N ) :   0.9708
B( 67-C , 70-H ) :   0.9728 B( 67-C , 85-H ) :   0.9802 B( 68-C , 71-N ) :   0.9665
B( 68-C , 72-H ) :   0.9755 B( 68-C , 86-H ) :   0.9883

MP2 TOTAL ENERGY:    -1977.374009441 Eh
FINAL SINGLE POINT ENERGY     -1977.374009440606

DIPOLE MOMENT
-------------
                                X             Y             Z
Electronic contribution:     -8.07006      -2.36566       6.68384
Nuclear contribution   :      7.74762       2.69521      -6.88852
                        -----------------------------------------
Total Dipole Moment    :     -0.32244       0.32955      -0.20467
                        -----------------------------------------
Magnitude (a.u.)       :      0.50444
Magnitude (Debye)      :      1.28218

Rotational constants in cm-1:     0.002296     0.001962     0.001717
Rotational constants in MHz :    68.831328    58.807732    51.460111

                             ****ORCA TERMINATED NORMALLY****
TOTAL RUN TIME: 0 days 1 hours 9 minutes 48 seconds 569 msec
