                         Program Version 4.2.1 -  RELEASE  -
|  1> ! RI-MP2 cc-pVTZ cc-pVTZ/C TIGHTSCF printbasis Grid6 NOFINALGRID SlowConv
|  2>
|  3> %base "_o_3_alde1_6_ami3_1_opt_MP2"
|  4> %maxcore 3000
|  5> %pal
|  6>    nprocs 32
|  7> end
|  8>
|  9> * xyzfile 0 1 _o_3_alde1_6_ami3_1_opt_B97-3c.xyz
| 10>
| 11>                          ****END OF INPUT****

CARTESIAN COORDINATES (ANGSTROEM)
---------------------------------
  C     -4.282823   -0.874347   -0.173845
  C     -5.086140   -0.439668    1.024017
  C     -3.326584   -1.880618   -0.089736
  C     -2.570688   -2.242454   -1.203563
  H     -3.205058   -2.397333    0.853028
  C     -2.767211   -1.565140   -2.406765
  C     -3.736099   -0.577161   -2.512690
  H     -2.175729   -1.854203   -3.264986
  C     -4.494731   -0.239829   -1.387602
  C     -3.934125    0.086551   -3.798533
  H     -5.249547    0.529476   -1.478372
  C     -1.642767   -3.369703   -1.125536
  H     -3.134598   -0.073319   -4.535564
  H     -1.578565   -3.872690   -0.149961
  C      3.977431   -1.454876    1.341760
  C      4.460455   -2.053802    2.639137
  C      4.269736   -0.141506    0.992090
  C      3.926328    0.359064   -0.262151
  H      4.791410    0.479225    1.708501
  C      3.248427   -0.462370   -1.162916
  C      2.906889   -1.761932   -0.807233
  H      2.993939   -0.068491   -2.137976
  C      3.274518   -2.249289    0.450767
  C      2.214281   -2.629341   -1.760564
  H      3.019607   -3.269689    0.702714
  C      4.307302    1.729218   -0.599981
  H      2.039754   -2.206603   -2.759279
  H      4.552358    2.368423    0.260820
  C     -1.221196    3.072559   -0.172218
  C     -1.331940    2.663709    1.270482
  C     -2.366475    3.063072   -0.965376
  C     -2.287797    3.292149   -2.336879
  H     -3.328192    2.842926   -0.515419
  C     -1.039475    3.524884   -2.915236
  C      0.101058    3.579455   -2.125821
  H     -0.979680    3.673148   -3.985536
  C      0.001437    3.357683   -0.747895
  C      1.403692    3.808119   -2.746722
  H      0.889727    3.398273   -0.135930
  C     -3.511687    3.230357   -3.127280
  H      1.450224    3.622899   -3.830221
  H     -4.433292    3.126129   -2.541432
  C     -4.512199   -0.532704    3.300306
  C     -4.937794    0.873290    2.896787
  N     -4.983089   -1.365889    2.194706
  H     -3.416328   -0.547640    3.290462
  C     -4.965647   -0.869230    4.698055
  N     -4.660661    0.900271    1.467504
  H     -6.026652    0.936387    3.026983
  C     -4.305521    1.917752    3.780289
  C     -4.380215    0.179094    5.647869
  C     -4.697845    1.615258    5.228394
  C      6.615729   -1.516917    3.315553
  C      6.515832   -3.030447    3.185899
  N      5.225964   -1.099752    3.471971
  H      6.965042   -1.131957    2.349785
  C      7.613071   -1.115331    4.370263
  N      5.341229   -3.226407    2.345276
  H      6.289400   -3.429658    4.183285
  C      7.823711   -3.627284    2.731151
  C      8.967057   -1.721297    3.990268
  C      8.904184   -3.228702    3.739649
  C      0.455797    1.682346    2.422448
  C     -0.732521    0.732328    2.441597
  N     -0.139134    2.973140    2.088094
  H      1.107502    1.381800    1.593684
  C      1.241393    1.574105    3.704865
  N     -1.559466    1.186941    1.330869
  H     -1.287859    0.934767    3.366348
  C     -0.288040   -0.706710    2.474259
  C      1.689375    0.119571    3.867894
  C      0.552499   -0.895203    3.739952
  C     -0.186335   -4.971734   -2.026527
  C      1.252364   -4.651668   -2.454639
  N     -0.987692   -3.777993   -2.133653
  H     -0.145669   -5.353442   -0.995424
  C     -0.806079   -6.035429   -2.933461
  N      1.863915   -3.810418   -1.456638
  H      1.193629   -4.153352   -3.433434
  C      2.088708   -5.923261   -2.582366
  C      0.045779   -7.288717   -3.033100
  C      1.449987   -6.948030   -3.503342
  C     -4.958456    1.514384   -5.322316
  C     -4.810267    3.027474   -5.035168
  N     -4.940833    0.814739   -4.062589
  H     -4.109166    1.225384   -5.959722
  C     -6.260389    1.241934   -6.067010
  N     -3.531890    3.249387   -4.398653
  H     -5.642151    3.297924   -4.369609
  C     -4.909571    3.824788   -6.326210
  C     -6.357820    2.051282   -7.350619
  C     -6.200317    3.539149   -7.076595
  C      4.756032    3.552047   -1.963614
  C      3.684428    4.271973   -2.788619
  N      4.376637    2.168346   -1.788944
  H      4.812764    4.070635   -0.994778
  C      6.112333    3.656660   -2.651383
  N      2.427184    4.166734   -2.088304
  H      3.638863    3.783594   -3.773741
  C      4.071617    5.734323   -2.985119
  C      6.505898    5.110756   -2.866555
  C      5.437313    5.866765   -3.642685
  H      4.954931   -1.230852    4.438641
  H      3.598961   -2.391526    3.219160
  H      5.624209   -3.168879    1.372923
  H     -1.220476    0.771708    0.469030
  H     -0.439011    3.430225    2.939310
  H     -2.196169    3.164495    1.713709
  H     -3.644562    0.959043    1.349798
  H     -5.908808   -1.712988    2.411447
  H     -6.137874   -0.385412    0.724603
  H     -0.425886   -8.002248   -3.710670
  H      0.100694   -7.778247   -2.056662
  H      2.070337   -7.844630   -3.546847
  H      1.404349   -6.552917   -4.522183
  H     -1.803946   -6.268529   -2.559351
  H     -0.942085   -5.598157   -3.924861
  H      3.085070   -5.648853   -2.931874
  H      2.217472   -6.348400   -1.584631
  H     -3.294387    0.051350    5.679900
  H     -4.737260    0.006199    6.664034
  H     -5.770765    1.791478    5.344418
  H     -4.201388    2.311410    5.906276
  H     -3.219253    1.882866    3.674562
  H     -4.622948    2.921382    3.495324
  H     -4.653243   -1.871646    4.995512
  H     -6.059249   -0.847121    4.745972
  H     -6.221174    4.104203   -8.010020
  H     -7.052377    3.888023   -6.486037
  H     -4.821888    4.886666   -6.092744
  H     -4.048284    3.572067   -6.948472
  H     -7.309594    1.851128   -7.845680
  H     -5.576541    1.728830   -8.044896
  H     -6.328818    0.173443   -6.276958
  H     -7.093793    1.482211   -5.403237
  H      3.303987    6.223771   -3.586200
  H      4.068074    6.229751   -2.011757
  H      5.705899    6.920774   -3.731995
  H      5.388717    5.474160   -4.662175
  H      7.464240    5.166003   -3.385903
  H      6.652762    5.592360   -1.895652
  H      6.858850    3.139530   -2.046572
  H      6.065284    3.129831   -3.606950
  H      9.704029   -1.508732    4.765679
  H      9.326986   -1.226181    3.084453
  H      9.878892   -3.583030    3.401792
  H      8.704920   -3.740006    4.685243
  H      8.077825   -3.240958    1.739085
  H      7.759690   -4.712223    2.643721
  H      7.293340   -1.496271    5.345407
  H      7.688342   -0.031163    4.459510
  H      0.307402   -0.934528    1.585926
  H     -1.138501   -1.388462    2.472980
  H      2.186976   -0.008693    4.830619
  H      2.439827   -0.090367    3.107132
  H      0.962072   -1.905931    3.766300
  H     -0.105707   -0.810912    4.609545
  H      0.607476    1.872652    4.546677
  H      2.106425    2.238087    3.703786

 Total Charge           Charge          ....    0
 Multiplicity           Mult            ....    1
 Number of Electrons    NEL             ....  546
 Basis Dimension        Dim             .... 3426

ORBITAL ENERGIES
----------------

  NO   OCC          E(Eh)            E(eV)
   0   2.0000     -15.548097      -423.0852
   1   2.0000     -15.545997      -423.0281
   2   2.0000     -15.545985      -423.0278
   3   2.0000     -15.545380      -423.0113
   4   2.0000     -15.543289      -422.9544
   5   2.0000     -15.541922      -422.9172
   6   2.0000     -15.541626      -422.9091
   7   2.0000     -15.541560      -422.9073
   8   2.0000     -15.540484      -422.8781
   9   2.0000     -15.537199      -422.7887
  10   2.0000     -15.536253      -422.7629
  11   2.0000     -15.525618      -422.4736
  12   2.0000     -11.289070      -307.1912
  13   2.0000     -11.286204      -307.1132
  14   2.0000     -11.277795      -306.8844
  15   2.0000     -11.272552      -306.7417
  16   2.0000     -11.271403      -306.7105
  17   2.0000     -11.271393      -306.7102
  18   2.0000     -11.268681      -306.6364
  19   2.0000     -11.267932      -306.6160
  20   2.0000     -11.265927      -306.5614
  21   2.0000     -11.247105      -306.0493
  22   2.0000     -11.245137      -305.9957
  23   2.0000     -11.244480      -305.9778
  24   2.0000     -11.244349      -305.9743
  25   2.0000     -11.243775      -305.9587
  26   2.0000     -11.242881      -305.9343
  27   2.0000     -11.242170      -305.9150
  28   2.0000     -11.242099      -305.9131
  29   2.0000     -11.241768      -305.9040
  30   2.0000     -11.239854      -305.8520
  31   2.0000     -11.239067      -305.8306
  32   2.0000     -11.238844      -305.8245
  33   2.0000     -11.238595      -305.8177
  34   2.0000     -11.236952      -305.7730
  35   2.0000     -11.236718      -305.7666
  36   2.0000     -11.235558      -305.7351
  37   2.0000     -11.234130      -305.6962
  38   2.0000     -11.232546      -305.6531
  39   2.0000     -11.232469      -305.6510
  40   2.0000     -11.231984      -305.6378
  41   2.0000     -11.231731      -305.6309
  42   2.0000     -11.231328      -305.6200
  43   2.0000     -11.231211      -305.6168
  44   2.0000     -11.229332      -305.5657
  45   2.0000     -11.229324      -305.5654
  46   2.0000     -11.229074      -305.5586
  47   2.0000     -11.228585      -305.5453
  48   2.0000     -11.228134      -305.5331
  49   2.0000     -11.226734      -305.4950
  50   2.0000     -11.225818      -305.4700
  51   2.0000     -11.225162      -305.4522
  52   2.0000     -11.224713      -305.4400
  53   2.0000     -11.223677      -305.4118
  54   2.0000     -11.222914      -305.3910
  55   2.0000     -11.222630      -305.3833
  56   2.0000     -11.221759      -305.3596
  57   2.0000     -11.221331      -305.3479
  58   2.0000     -11.220583      -305.3276
  59   2.0000     -11.220257      -305.3187
  60   2.0000     -11.218714      -305.2767
  61   2.0000     -11.217919      -305.2551
  62   2.0000     -11.217062      -305.2318
  63   2.0000     -11.212800      -305.1158
  64   2.0000     -11.212053      -305.0955
  65   2.0000     -11.211041      -305.0679
  66   2.0000     -11.210424      -305.0511
  67   2.0000     -11.210250      -305.0464
  68   2.0000     -11.209582      -305.0282
  69   2.0000     -11.208806      -305.0071
  70   2.0000     -11.208668      -305.0034
  71   2.0000     -11.208541      -304.9999
  72   2.0000     -11.207812      -304.9801
  73   2.0000     -11.206068      -304.9326
  74   2.0000     -11.203833      -304.8718
  75   2.0000      -1.277810       -34.7710
  76   2.0000      -1.275528       -34.7089
  77   2.0000      -1.266305       -34.4579
  78   2.0000      -1.246522       -33.9196
  79   2.0000      -1.245203       -33.8837
  80   2.0000      -1.244897       -33.8754
  81   2.0000      -1.220730       -33.2178
  82   2.0000      -1.218219       -33.1494
  83   2.0000      -1.211748       -32.9734
  84   2.0000      -1.163171       -31.6515
  85   2.0000      -1.157132       -31.4872
  86   2.0000      -1.154051       -31.4033
  87   2.0000      -1.147953       -31.2374
  88   2.0000      -1.146857       -31.2076
  89   2.0000      -1.134564       -30.8731
  90   2.0000      -1.117085       -30.3974
  91   2.0000      -1.113836       -30.3090
  92   2.0000      -1.111819       -30.2541
  93   2.0000      -1.106943       -30.1215
  94   2.0000      -1.105686       -30.0872
  95   2.0000      -1.100410       -29.9437
  96   2.0000      -1.048223       -28.5236
  97   2.0000      -1.047411       -28.5015
  98   2.0000      -1.044304       -28.4170
  99   2.0000      -1.043129       -28.3850
 100   2.0000      -1.041922       -28.3521
 101   2.0000      -1.040198       -28.3052
 102   2.0000      -1.006062       -27.3763
 103   2.0000      -1.002437       -27.2777
 104   2.0000      -1.000492       -27.2248
 105   2.0000      -0.999831       -27.2068
 106   2.0000      -0.998076       -27.1590
 107   2.0000      -0.994358       -27.0578
 108   2.0000      -0.992812       -27.0158
 109   2.0000      -0.984512       -26.7899
 110   2.0000      -0.982361       -26.7314
 111   2.0000      -0.978901       -26.6373
 112   2.0000      -0.975508       -26.5449
 113   2.0000      -0.973267       -26.4839
 114   2.0000      -0.887797       -24.1582
 115   2.0000      -0.886352       -24.1189
 116   2.0000      -0.885434       -24.0939
 117   2.0000      -0.878245       -23.8983
 118   2.0000      -0.876211       -23.8429
 119   2.0000      -0.871453       -23.7134
 120   2.0000      -0.866085       -23.5674
 121   2.0000      -0.862619       -23.4731
 122   2.0000      -0.855341       -23.2750
 123   2.0000      -0.834469       -22.7070
 124   2.0000      -0.830997       -22.6126
 125   2.0000      -0.827191       -22.5090
 126   2.0000      -0.825325       -22.4582
 127   2.0000      -0.823220       -22.4010
 128   2.0000      -0.822029       -22.3685
 129   2.0000      -0.820133       -22.3169
 130   2.0000      -0.817287       -22.2395
 131   2.0000      -0.814123       -22.1534
 132   2.0000      -0.810846       -22.0642
 133   2.0000      -0.804388       -21.8885
 134   2.0000      -0.801789       -21.8178
 135   2.0000      -0.784532       -21.3482
 136   2.0000      -0.783890       -21.3307
 137   2.0000      -0.777079       -21.1454
 138   2.0000      -0.764198       -20.7949
 139   2.0000      -0.761609       -20.7244
 140   2.0000      -0.759966       -20.6797
 141   2.0000      -0.755493       -20.5580
 142   2.0000      -0.754586       -20.5333
 143   2.0000      -0.746872       -20.3234
 144   2.0000      -0.741174       -20.1684
 145   2.0000      -0.735479       -20.0134
 146   2.0000      -0.732699       -19.9378
 147   2.0000      -0.697116       -18.9695
 148   2.0000      -0.689826       -18.7711
 149   2.0000      -0.687349       -18.7037
 150   2.0000      -0.685214       -18.6456
 151   2.0000      -0.682669       -18.5764
 152   2.0000      -0.679227       -18.4827
 153   2.0000      -0.671683       -18.2774
 154   2.0000      -0.667935       -18.1754
 155   2.0000      -0.664840       -18.0912
 156   2.0000      -0.660553       -17.9746
 157   2.0000      -0.657223       -17.8839
 158   2.0000      -0.656808       -17.8727
 159   2.0000      -0.654788       -17.8177
 160   2.0000      -0.651946       -17.7404
 161   2.0000      -0.645217       -17.5572
 162   2.0000      -0.638694       -17.3797
 163   2.0000      -0.637829       -17.3562
 164   2.0000      -0.635419       -17.2906
 165   2.0000      -0.632900       -17.2221
 166   2.0000      -0.631979       -17.1970
 167   2.0000      -0.628842       -17.1117
 168   2.0000      -0.626732       -17.0543
 169   2.0000      -0.623884       -16.9768
 170   2.0000      -0.622617       -16.9423
 171   2.0000      -0.618690       -16.8354
 172   2.0000      -0.617473       -16.8023
 173   2.0000      -0.616522       -16.7764
 174   2.0000      -0.614403       -16.7188
 175   2.0000      -0.608441       -16.5565
 176   2.0000      -0.607757       -16.5379
 177   2.0000      -0.603995       -16.4355
 178   2.0000      -0.600936       -16.3523
 179   2.0000      -0.600046       -16.3281
 180   2.0000      -0.596260       -16.2251
 181   2.0000      -0.590897       -16.0791
 182   2.0000      -0.588939       -16.0258
 183   2.0000      -0.588357       -16.0100
 184   2.0000      -0.587818       -15.9953
 185   2.0000      -0.585801       -15.9405
 186   2.0000      -0.582934       -15.8624
 187   2.0000      -0.580141       -15.7864
 188   2.0000      -0.578288       -15.7360
 189   2.0000      -0.571308       -15.5461
 190   2.0000      -0.568248       -15.4628
 191   2.0000      -0.561543       -15.2804
 192   2.0000      -0.560192       -15.2436
 193   2.0000      -0.558863       -15.2074
 194   2.0000      -0.558753       -15.2044
 195   2.0000      -0.554607       -15.0916
 196   2.0000      -0.553762       -15.0686
 197   2.0000      -0.551180       -14.9984
 198   2.0000      -0.550491       -14.9796
 199   2.0000      -0.548488       -14.9251
 200   2.0000      -0.545445       -14.8423
 201   2.0000      -0.542903       -14.7731
 202   2.0000      -0.538929       -14.6650
 203   2.0000      -0.533017       -14.5041
 204   2.0000      -0.531052       -14.4507
 205   2.0000      -0.529482       -14.4079
 206   2.0000      -0.528606       -14.3841
 207   2.0000      -0.527433       -14.3522
 208   2.0000      -0.521661       -14.1951
 209   2.0000      -0.520609       -14.1665
 210   2.0000      -0.513555       -13.9745
 211   2.0000      -0.511398       -13.9159
 212   2.0000      -0.507320       -13.8049
 213   2.0000      -0.506234       -13.7753
 214   2.0000      -0.505715       -13.7612
 215   2.0000      -0.504064       -13.7163
 216   2.0000      -0.502214       -13.6659
 217   2.0000      -0.500751       -13.6261
 218   2.0000      -0.496656       -13.5147
 219   2.0000      -0.493639       -13.4326
 220   2.0000      -0.492649       -13.4057
 221   2.0000      -0.491208       -13.3665
 222   2.0000      -0.489607       -13.3229
 223   2.0000      -0.486725       -13.2445
 224   2.0000      -0.484494       -13.1837
 225   2.0000      -0.483877       -13.1670
 226   2.0000      -0.482896       -13.1403
 227   2.0000      -0.480512       -13.0754
 228   2.0000      -0.479250       -13.0411
 229   2.0000      -0.477349       -12.9893
 230   2.0000      -0.472733       -12.8637
 231   2.0000      -0.471385       -12.8270
 232   2.0000      -0.468933       -12.7603
 233   2.0000      -0.468119       -12.7382
 234   2.0000      -0.465725       -12.6730
 235   2.0000      -0.462374       -12.5818
 236   2.0000      -0.462052       -12.5731
 237   2.0000      -0.459562       -12.5053
 238   2.0000      -0.458926       -12.4880
 239   2.0000      -0.457701       -12.4547
 240   2.0000      -0.457387       -12.4461
 241   2.0000      -0.455507       -12.3950
 242   2.0000      -0.454246       -12.3607
 243   2.0000      -0.453601       -12.3431
 244   2.0000      -0.452472       -12.3124
 245   2.0000      -0.451067       -12.2742
 246   2.0000      -0.449079       -12.2200
 247   2.0000      -0.446684       -12.1549
 248   2.0000      -0.443800       -12.0764
 249   2.0000      -0.429476       -11.6866
 250   2.0000      -0.422840       -11.5060
 251   2.0000      -0.421864       -11.4795
 252   2.0000      -0.403912       -10.9910
 253   2.0000      -0.403014       -10.9666
 254   2.0000      -0.401213       -10.9175
 255   2.0000      -0.399809       -10.8794
 256   2.0000      -0.398008       -10.8304
 257   2.0000      -0.396096       -10.7783
 258   2.0000      -0.393959       -10.7202
 259   2.0000      -0.393336       -10.7032
 260   2.0000      -0.388875       -10.5818
 261   2.0000      -0.386590       -10.5196
 262   2.0000      -0.385984       -10.5032
 263   2.0000      -0.378366       -10.2959
 264   2.0000      -0.376786       -10.2529
 265   2.0000      -0.371301       -10.1036
 266   2.0000      -0.363941        -9.9033
 267   2.0000      -0.324412        -8.8277
 268   2.0000      -0.318864        -8.6767
 269   2.0000      -0.316604        -8.6152
 270   2.0000      -0.314324        -8.5532
 271   2.0000      -0.310134        -8.4392
 272   2.0000      -0.306552        -8.3417
 273   0.0000       0.079604         2.1661
 274   0.0000       0.084493         2.2992
 275   0.0000       0.088568         2.4101
 276   0.0000       0.101655         2.7662
 277   0.0000       0.104955         2.8560

MULLIKEN ATOMIC CHARGES
-----------------------
   0 C :    0.102745
   1 C :    0.042638
   2 C :   -0.282900
   3 C :    0.163164
   4 H :    0.169527
   5 C :   -0.221488
   6 C :    0.203407
   7 H :    0.152565
   8 C :   -0.229267
   9 C :   -0.098987
  10 H :    0.170744
  11 C :   -0.091692
  12 H :    0.092354
  13 H :    0.092191
  14 C :    0.052340
  15 C :    0.051864
  16 C :   -0.263394
  17 C :    0.203480
  18 H :    0.176783
  19 C :   -0.216656
  20 C :    0.163078
  21 H :    0.156415
  22 C :   -0.246711
  23 C :   -0.093738
  24 H :    0.181323
  25 C :   -0.102430
  26 H :    0.098784
  27 H :    0.084514
  28 C :    0.115190
  29 C :    0.008697
  30 C :   -0.258099
  31 C :    0.184479
  32 H :    0.155392
  33 C :   -0.240918
  34 C :    0.194601
  35 H :    0.153049
  36 C :   -0.218866
  37 C :   -0.099392
  38 H :    0.185166
  39 C :   -0.133829
  40 H :    0.086982
  41 H :    0.112476
  42 C :    0.033178
  43 C :    0.066428
  44 N :   -0.293011
  45 H :    0.095101
  46 C :   -0.227086
  47 N :   -0.332572
  48 H :    0.092727
  49 C :   -0.243321
  50 C :   -0.209688
  51 C :   -0.201983
  52 C :    0.051217
  53 C :    0.033556
  54 N :   -0.291448
  55 H :    0.086934
  56 C :   -0.224832
  57 N :   -0.287365
  58 H :    0.091021
  59 C :   -0.224156
  60 C :   -0.203623
  61 C :   -0.202522
  62 C :    0.029682
  63 C :    0.023789
  64 N :   -0.269805
  65 H :    0.113719
  66 C :   -0.232343
  67 N :   -0.301073
  68 H :    0.080168
  69 C :   -0.256884
  70 C :   -0.220577
  71 C :   -0.209046
  72 C :    0.072151
  73 C :    0.077654
  74 N :   -0.280640
  75 H :    0.082034
  76 C :   -0.197131
  77 N :   -0.279094
  78 H :    0.081110
  79 C :   -0.197318
  80 C :   -0.203514
  81 C :   -0.203509
  82 C :    0.090260
  83 C :    0.089982
  84 N :   -0.290351
  85 H :    0.075681
  86 C :   -0.202146
  87 N :   -0.288173
  88 H :    0.083365
  89 C :   -0.200544
  90 C :   -0.205721
  91 C :   -0.203175
  92 C :    0.096327
  93 C :    0.084862
  94 N :   -0.280333
  95 H :    0.073558
  96 C :   -0.201372
  97 N :   -0.280071
  98 H :    0.076499
  99 C :   -0.203656
 100 C :   -0.205717
 101 C :   -0.204779
 102 H :    0.093063
 103 H :    0.125550
 104 H :    0.109644
 105 H :    0.121228
 106 H :    0.089640
 107 H :    0.124597
 108 H :    0.172688
 109 H :    0.094924
 110 H :    0.105214
 111 H :    0.111678
 112 H :    0.087270
 113 H :    0.111384
 114 H :    0.087161
 115 H :    0.107670
 116 H :    0.098436
 117 H :    0.106277
 118 H :    0.098220
 119 H :    0.092457
 120 H :    0.117438
 121 H :    0.095753
 122 H :    0.111978
 123 H :    0.081733
 124 H :    0.123432
 125 H :    0.119697
 126 H :    0.088747
 127 H :    0.109890
 128 H :    0.086446
 129 H :    0.108606
 130 H :    0.093191
 131 H :    0.110566
 132 H :    0.086624
 133 H :    0.107368
 134 H :    0.097157
 135 H :    0.107422
 136 H :    0.099602
 137 H :    0.111387
 138 H :    0.088453
 139 H :    0.110806
 140 H :    0.087738
 141 H :    0.104286
 142 H :    0.096940
 143 H :    0.114378
 144 H :    0.093831
 145 H :    0.114515
 146 H :    0.092369
 147 H :    0.090953
 148 H :    0.123218
 149 H :    0.088094
 150 H :    0.119871
 151 H :    0.131958
 152 H :    0.125968
 153 H :    0.110155
 154 H :    0.102136
 155 H :    0.116921
 156 H :    0.101958
 157 H :    0.089728
 158 H :    0.123580
Sum of atomic charges:   -0.0000000

LOEWDIN ATOMIC CHARGES
----------------------
   0 C :   -0.049468
   1 C :   -0.119275
   2 C :    0.067095
   3 C :   -0.080682
   4 H :   -0.029511
   5 C :    0.078294
   6 C :   -0.076175
   7 H :   -0.023220
   8 C :    0.084378
   9 C :   -0.064203
  10 H :   -0.018994
  11 C :   -0.067309
  12 H :   -0.034094
  13 H :   -0.035215
  14 C :   -0.060426
  15 C :   -0.112380
  16 C :    0.059928
  17 C :   -0.074465
  18 H :   -0.026907
  19 C :    0.077450
  20 C :   -0.075964
  21 H :   -0.020169
  22 C :    0.077969
  23 C :   -0.066153
  24 H :   -0.018136
  25 C :   -0.070828
  26 H :   -0.033946
  27 H :   -0.035632
  28 C :   -0.056445
  29 C :   -0.112650
  30 C :    0.070624
  31 C :   -0.075955
  32 H :   -0.019351
  33 C :    0.079105
  34 C :   -0.073786
  35 H :   -0.021405
  36 C :    0.083500
  37 C :   -0.068299
  38 H :   -0.022314
  39 C :   -0.066827
  40 H :   -0.035602
  41 H :   -0.032770
  42 C :   -0.104455
  43 C :   -0.106474
  44 N :    0.313185
  45 H :   -0.023894
  46 C :    0.062615
  47 N :    0.301477
  48 H :   -0.022283
  49 C :    0.064191
  50 C :    0.064927
  51 C :    0.066183
  52 C :   -0.104557
  53 C :   -0.106934
  54 N :    0.318629
  55 H :   -0.023149
  56 C :    0.064551
  57 N :    0.305677
  58 H :   -0.024499
  59 C :    0.064849
  60 C :    0.066544
  61 C :    0.066165
  62 C :   -0.098030
  63 C :   -0.112096
  64 N :    0.322284
  65 H :   -0.021697
  66 C :    0.065896
  67 N :    0.344751
  68 H :   -0.030262
  69 C :    0.066525
  70 C :    0.067975
  71 C :    0.067306
  72 C :   -0.110438
  73 C :   -0.111127
  74 N :    0.232517
  75 H :   -0.032404
  76 C :    0.060386
  77 N :    0.236612
  78 H :   -0.031851
  79 C :    0.059617
  80 C :    0.056708
  81 C :    0.056705
  82 C :   -0.109492
  83 C :   -0.110015
  84 N :    0.228142
  85 H :   -0.032811
  86 C :    0.060529
  87 N :    0.216791
  88 H :   -0.030920
  89 C :    0.058157
  90 C :    0.057255
  91 C :    0.057238
  92 C :   -0.113807
  93 C :   -0.113295
  94 N :    0.232763
  95 H :   -0.031199
  96 C :    0.062043
  97 N :    0.234905
  98 H :   -0.031848
  99 C :    0.062846
 100 C :    0.058253
 101 C :    0.058419
 102 H :   -0.115588
 103 H :   -0.030173
 104 H :   -0.114587
 105 H :   -0.109788
 106 H :   -0.116914
 107 H :   -0.029697
 108 H :   -0.137806
 109 H :   -0.120382
 110 H :   -0.030026
 111 H :   -0.026016
 112 H :   -0.026531
 113 H :   -0.026198
 114 H :   -0.026471
 115 H :   -0.025877
 116 H :   -0.023575
 117 H :   -0.026141
 118 H :   -0.023400
 119 H :   -0.027421
 120 H :   -0.026214
 121 H :   -0.025704
 122 H :   -0.026820
 123 H :   -0.030102
 124 H :   -0.024687
 125 H :   -0.025007
 126 H :   -0.027987
 127 H :   -0.026548
 128 H :   -0.026693
 129 H :   -0.025314
 130 H :   -0.024390
 131 H :   -0.026552
 132 H :   -0.026714
 133 H :   -0.025861
 134 H :   -0.023988
 135 H :   -0.026007
 136 H :   -0.023612
 137 H :   -0.026003
 138 H :   -0.026438
 139 H :   -0.026406
 140 H :   -0.026487
 141 H :   -0.026952
 142 H :   -0.024363
 143 H :   -0.025606
 144 H :   -0.025255
 145 H :   -0.025179
 146 H :   -0.025897
 147 H :   -0.026260
 148 H :   -0.022922
 149 H :   -0.027245
 150 H :   -0.023996
 151 H :   -0.021418
 152 H :   -0.027257
 153 H :   -0.027811
 154 H :   -0.024726
 155 H :   -0.027414
 156 H :   -0.027400
 157 H :   -0.029057
 158 H :   -0.022978

  Mayer bond orders larger than 0.100000
B(  0-C ,  1-C ) :   1.0189 B(  0-C ,  2-C ) :   1.3275 B(  0-C ,  8-C ) :   1.3935
B(  1-C , 44-N ) :   1.0054 B(  1-C , 47-N ) :   1.0483 B(  1-C ,110-H ) :   0.9971
B(  2-C ,  3-C ) :   1.3527 B(  2-C ,  4-H ) :   0.9482 B(  3-C ,  5-C ) :   1.3295
B(  3-C , 11-C ) :   1.0090 B(  5-C ,  6-C ) :   1.3680 B(  5-C ,  7-H ) :   0.9643
B(  6-C ,  8-C ) :   1.2888 B(  6-C ,  9-C ) :   1.0065 B(  8-C , 10-H ) :   0.9583
B(  9-C , 12-H ) :   0.9902 B(  9-C , 84-N ) :   1.9660 B( 11-C , 13-H ) :   0.9879
B( 11-C , 74-N ) :   1.9620 B( 14-C , 15-C ) :   1.0382 B( 14-C , 16-C ) :   1.3024
B( 14-C , 22-C ) :   1.3939 B( 15-C , 54-N ) :   0.9900 B( 15-C , 57-N ) :   1.0271
B( 15-C ,103-H ) :   0.9873 B( 16-C , 17-C ) :   1.3507 B( 16-C , 18-H ) :   0.9543
B( 17-C , 19-C ) :   1.3259 B( 17-C , 25-C ) :   0.9964 B( 19-C , 20-C ) :   1.3626
B( 19-C , 21-H ) :   0.9646 B( 20-C , 22-C ) :   1.3050 B( 20-C , 23-C ) :   1.0035
B( 22-C , 24-H ) :   0.9520 B( 23-C , 26-H ) :   0.9887 B( 23-C , 77-N ) :   1.9664
B( 25-C , 27-H ) :   0.9856 B( 25-C , 94-N ) :   1.9828 B( 28-C , 29-C ) :   1.0243
B( 28-C , 30-C ) :   1.3449 B( 28-C , 36-C ) :   1.3609 B( 29-C , 64-N ) :   1.0418
B( 29-C , 67-N ) :   0.9773 B( 29-C ,107-H ) :   0.9926 B( 30-C , 31-C ) :   1.3753
B( 30-C , 32-H ) :   0.9589 B( 31-C , 33-C ) :   1.3104 B( 31-C , 39-C ) :   1.0075
B( 33-C , 34-C ) :   1.3661 B( 33-C , 35-H ) :   0.9680 B( 34-C , 36-C ) :   1.2914
B( 34-C , 37-C ) :   0.9962 B( 36-C , 38-H ) :   0.9453 B( 37-C , 40-H ) :   0.9826
B( 37-C , 97-N ) :   1.9789 B( 39-C , 41-H ) :   0.9892 B( 39-C , 87-N ) :   1.9623
B( 42-C , 43-C ) :   0.9237 B( 42-C , 44-N ) :   1.0203 B( 42-C , 45-H ) :   0.9658
B( 42-C , 46-C ) :   0.9648 B( 43-C , 47-N ) :   1.0298 B( 43-C , 48-H ) :   0.9814
B( 43-C , 49-C ) :   0.9489 B( 44-N ,109-H ) :   0.9897 B( 46-C , 50-C ) :   0.9512
B( 46-C ,125-H ) :   0.9915 B( 46-C ,126-H ) :   0.9808 B( 47-N ,108-H ) :   0.9462
B( 49-C , 51-C ) :   0.9583 B( 49-C ,123-H ) :   0.9868 B( 49-C ,124-H ) :   0.9915
B( 50-C , 51-C ) :   0.9412 B( 50-C ,119-H ) :   0.9834 B( 50-C ,120-H ) :   0.9934
B( 51-C ,121-H ) :   0.9875 B( 51-C ,122-H ) :   0.9949 B( 52-C , 53-C ) :   0.9379
B( 52-C , 54-N ) :   0.9794 B( 52-C , 55-H ) :   0.9679 B( 52-C , 56-C ) :   0.9598
B( 53-C , 57-N ) :   1.0191 B( 53-C , 58-H ) :   0.9766 B( 53-C , 59-C ) :   0.9581
B( 54-N ,102-H ) :   0.9877 B( 56-C , 60-C ) :   0.9501 B( 56-C ,149-H ) :   0.9823
B( 56-C ,150-H ) :   0.9895 B( 57-N ,104-H ) :   0.9919 B( 59-C , 61-C ) :   0.9499
B( 59-C ,147-H ) :   0.9822 B( 59-C ,148-H ) :   0.9901 B( 60-C , 61-C ) :   0.9435
B( 60-C ,143-H ) :   0.9943 B( 60-C ,144-H ) :   0.9851 B( 61-C ,145-H ) :   0.9943
B( 61-C ,146-H ) :   0.9850 B( 62-C , 63-C ) :   0.9494 B( 62-C , 64-N ) :   0.9882
B( 62-C , 65-H ) :   0.9652 B( 62-C , 66-C ) :   0.9696 B( 63-C , 67-N ) :   0.9757
B( 63-C , 68-H ) :   0.9696 B( 63-C , 69-C ) :   0.9636 B( 64-N ,106-H ) :   0.9975
B( 66-C , 70-C ) :   0.9610 B( 66-C ,157-H ) :   0.9868 B( 66-C ,158-H ) :   0.9878
B( 67-N ,105-H ) :   0.9687 B( 69-C , 71-C ) :   0.9525 B( 69-C ,151-H ) :   0.9712
B( 69-C ,152-H ) :   0.9885 B( 70-C , 71-C ) :   0.9432 B( 70-C ,153-H ) :   0.9934
B( 70-C ,154-H ) :   0.9807 B( 71-C ,155-H ) :   0.9913 B( 71-C ,156-H ) :   0.9861
B( 72-C , 73-C ) :   0.9470 B( 72-C , 74-N ) :   0.9451 B( 72-C , 75-H ) :   0.9693
B( 72-C , 76-C ) :   0.9539 B( 73-C , 77-N ) :   0.9422 B( 73-C , 78-H ) :   0.9706
B( 73-C , 79-C ) :   0.9560 B( 76-C , 80-C ) :   0.9416 B( 76-C ,115-H ) :   0.9906
B( 76-C ,116-H ) :   0.9823 B( 79-C , 81-C ) :   0.9424 B( 79-C ,117-H ) :   0.9914
B( 79-C ,118-H ) :   0.9830 B( 80-C , 81-C ) :   0.9429 B( 80-C ,111-H ) :   0.9956
B( 80-C ,112-H ) :   0.9850 B( 81-C ,113-H ) :   0.9958 B( 81-C ,114-H ) :   0.9851
B( 82-C , 83-C ) :   0.9251 B( 82-C , 84-N ) :   0.9424 B( 82-C , 85-H ) :   0.9696
B( 82-C , 86-C ) :   0.9532 B( 83-C , 87-N ) :   0.9420 B( 83-C , 88-H ) :   0.9718
B( 83-C , 89-C ) :   0.9571 B( 86-C , 90-C ) :   0.9422 B( 86-C ,133-H ) :   0.9915
B( 86-C ,134-H ) :   0.9838 B( 89-C , 91-C ) :   0.9441 B( 89-C ,129-H ) :   0.9918
B( 89-C ,130-H ) :   0.9845 B( 90-C , 91-C ) :   0.9436 B( 90-C ,131-H ) :   0.9959
B( 90-C ,132-H ) :   0.9850 B( 91-C ,127-H ) :   0.9964 B( 91-C ,128-H ) :   0.9847
B( 92-C , 93-C ) :   0.9465 B( 92-C , 94-N ) :   0.9398 B( 92-C , 95-H ) :   0.9753
B( 92-C , 96-C ) :   0.9524 B( 93-C , 97-N ) :   0.9460 B( 93-C , 98-H ) :   0.9739
B( 93-C , 99-C ) :   0.9522 B( 96-C ,100-C ) :   0.9429 B( 96-C ,141-H ) :   0.9921
B( 96-C ,142-H ) :   0.9828 B( 99-C ,101-C ) :   0.9417 B( 99-C ,135-H ) :   0.9911
B( 99-C ,136-H ) :   0.9824 B(100-C ,101-C ) :   0.9448 B(100-C ,139-H ) :   0.9954
B(100-C ,140-H ) :   0.9851 B(101-C ,137-H ) :   0.9951 B(101-C ,138-H ) :   0.9849

MP2 TOTAL ENERGY:    -3101.806870874 Eh
FINAL SINGLE POINT ENERGY     -3101.806870873540

DIPOLE MOMENT
-------------
                                X             Y             Z
Electronic contribution:    -19.16613       8.53305     -20.41424
Nuclear contribution   :     20.19085      -9.00145      22.22277
                        -----------------------------------------
Total Dipole Moment    :      1.02472      -0.46840       1.80853
                        -----------------------------------------
Magnitude (a.u.)       :      2.13078
Magnitude (Debye)      :      5.41601

Rotational constants in cm-1:     0.000956     0.000610     0.000558
Rotational constants in MHz :    28.655456    18.300550    16.734342

                             ****ORCA TERMINATED NORMALLY****
TOTAL RUN TIME: 0 days 9 hours 3 minutes 24 seconds 202 msec
