                         Program Version 4.2.1 -  RELEASE  -
|  1> ! RI-MP2 cc-pVTZ cc-pVTZ/C TIGHTSCF printbasis Grid6 NOFINALGRID SlowConv
|  2>
|  3> %base "_o_3_alde1_4_ami4_1_opt_MP2"
|  4> %maxcore 3000
|  5> %pal
|  6>    nprocs 32
|  7> end
|  8>
|  9> * xyzfile 0 1 _o_3_alde1_4_ami4_1_opt_B97-3c.xyz
| 10>
| 11>                          ****END OF INPUT****

CARTESIAN COORDINATES (ANGSTROEM)
---------------------------------
  C     -3.273916   -2.180556   -0.135145
  C     -3.385310   -1.888218    1.293729
  C     -2.576111   -3.299539   -0.564883
  C     -2.412282   -3.553430   -1.930518
  H     -2.153302   -3.997316    0.145908
  C     -2.892607   -2.635943   -2.856689
  C     -3.573524   -1.489987   -2.439089
  H     -2.737932   -2.791035   -3.916387
  C     -3.792084   -1.293432   -1.082990
  C     -4.007628   -0.450884   -3.370683
  H     -4.324807   -0.420333   -0.733131
  C     -1.712022   -4.741444   -2.409038
  H     -4.721122    0.271746   -2.954353
  H     -2.681533   -2.428205    1.943137
  H     -1.691076   -4.860377   -3.500684
  C      0.922643   -1.109828   -4.739860
  C     -0.014256   -0.793081   -5.828114
  C      1.813029   -0.145552   -4.263320
  C      2.659083   -0.429063   -3.201037
  H      1.819281    0.830789   -4.730886
  C      2.606497   -1.696645   -2.611406
  C      1.759686   -2.679157   -3.105174
  H      3.250115   -1.898245   -1.765037
  C      0.909915   -2.374314   -4.172046
  C      1.722556   -3.998110   -2.474442
  H      0.232347   -3.135267   -4.534965
  C      3.539728    0.621209   -2.696601
  H      2.120386   -4.049362   -1.451471
  H     -0.698425   -1.617764   -6.105598
  H      3.480593    1.574095   -3.238559
  C     -1.854756    1.934348    0.412438
  C     -2.937303    1.672528    1.356653
  C     -2.174519    2.109148   -0.926474
  C     -1.174898    2.222652   -1.896383
  H     -3.205818    2.096364   -1.251715
  C      0.152616    2.234285   -1.494531
  C      0.492470    2.088293   -0.145460
  H      0.947564    2.313525   -2.222903
  C     -0.510806    1.903767    0.794986
  C      1.893936    2.027697    0.265768
  H     -0.269382    1.725410    1.834594
  C     -1.505429    2.179109   -3.321196
  H      2.086387    1.512465    1.217974
  H     -0.656128    2.028122   -4.000510
  C     -3.938381    0.845993    3.262840
  C     -4.105971   -0.675798    3.149951
  N     -2.754103    1.250374    2.541478
  N     -4.197026   -1.030307    1.756786
  O     -0.071077    0.278983   -6.399394
  C     -0.381789   -6.627379   -2.278071
  C      1.100070   -6.234069   -2.303889
  N     -1.144508   -5.580470   -1.641063
  N      1.237133   -5.014220   -3.057108
  C     -3.992756    0.854056   -5.270726
  C     -2.936786    1.962333   -5.147012
  N     -3.565591   -0.331327   -4.556614
  N     -2.699706    2.227385   -3.748376
  C      4.968790    1.669700   -1.221897
  C      4.195410    2.247245   -0.030449
  N      4.298587    0.478716   -1.687920
  N      2.836657    2.498678   -0.440127
  H     -3.947881    1.813850    0.950907
  H     -3.353591    2.858319   -5.613324
  H     -2.029627    1.682577   -5.689534
  H     -4.944798    1.241156   -4.889005
  H     -4.115931    0.614709   -6.326337
  H     -0.706500   -6.818322   -3.307855
  H     -0.485391   -7.549904   -1.707155
  H      1.650155   -7.029234   -2.810690
  H      1.480798   -6.147705   -1.278353
  H      4.668423    3.192728    0.244566
  H      4.263263    1.567667    0.828545
  H      5.034538    2.441810   -1.997799
  H      5.978282    1.418131   -0.897440
  H     -5.039553   -0.943678    3.649294
  H     -3.281323   -1.182871    3.666626
  H     -3.833361    1.107525    4.315725
  H     -4.848096    1.321171    2.875775

 Total Charge           Charge          ....    0
 Multiplicity           Mult            ....    1
 Number of Electrons    NEL             ....  308
 Basis Dimension        Dim             .... 1796

ORBITAL ENERGIES
----------------

  NO   OCC          E(Eh)            E(eV)
   0   2.0000     -20.556463      -559.3698
   1   2.0000     -15.563246      -423.4975
   2   2.0000     -15.559105      -423.3848
   3   2.0000     -15.557753      -423.3480
   4   2.0000     -15.557255      -423.3344
   5   2.0000     -15.555953      -423.2990
   6   2.0000     -15.552439      -423.2034
   7   2.0000     -15.552334      -423.2005
   8   2.0000     -15.550802      -423.1588
   9   2.0000     -11.337549      -308.5104
  10   2.0000     -11.289217      -307.1952
  11   2.0000     -11.285335      -307.0896
  12   2.0000     -11.283598      -307.0423
  13   2.0000     -11.283578      -307.0418
  14   2.0000     -11.283167      -307.0306
  15   2.0000     -11.279238      -306.9237
  16   2.0000     -11.278027      -306.8907
  17   2.0000     -11.276698      -306.8546
  18   2.0000     -11.265543      -306.5510
  19   2.0000     -11.263257      -306.4888
  20   2.0000     -11.262977      -306.4812
  21   2.0000     -11.258289      -306.3536
  22   2.0000     -11.257915      -306.3434
  23   2.0000     -11.257167      -306.3231
  24   2.0000     -11.256503      -306.3050
  25   2.0000     -11.255019      -306.2646
  26   2.0000     -11.254824      -306.2593
  27   2.0000     -11.254616      -306.2537
  28   2.0000     -11.254598      -306.2532
  29   2.0000     -11.251406      -306.1663
  30   2.0000     -11.251386      -306.1658
  31   2.0000     -11.250244      -306.1347
  32   2.0000     -11.249686      -306.1195
  33   2.0000     -11.248762      -306.0944
  34   2.0000     -11.248633      -306.0909
  35   2.0000     -11.248260      -306.0807
  36   2.0000     -11.248151      -306.0778
  37   2.0000     -11.247447      -306.0586
  38   2.0000     -11.247392      -306.0571
  39   2.0000     -11.246741      -306.0394
  40   2.0000     -11.246001      -306.0192
  41   2.0000     -11.245616      -306.0088
  42   2.0000     -11.245045      -305.9932
  43   2.0000     -11.242712      -305.9297
  44   2.0000      -1.391523       -37.8653
  45   2.0000      -1.259794       -34.2807
  46   2.0000      -1.257132       -34.2083
  47   2.0000      -1.254068       -34.1249
  48   2.0000      -1.248062       -33.9615
  49   2.0000      -1.231945       -33.5229
  50   2.0000      -1.230648       -33.4876
  51   2.0000      -1.225602       -33.3503
  52   2.0000      -1.220608       -33.2144
  53   2.0000      -1.182597       -32.1801
  54   2.0000      -1.170952       -31.8632
  55   2.0000      -1.164425       -31.6856
  56   2.0000      -1.077026       -29.3074
  57   2.0000      -1.073853       -29.2210
  58   2.0000      -1.070915       -29.1411
  59   2.0000      -1.063423       -28.9372
  60   2.0000      -1.055196       -28.7133
  61   2.0000      -1.051198       -28.6045
  62   2.0000      -1.014720       -27.6119
  63   2.0000      -1.002038       -27.2668
  64   2.0000      -0.999452       -27.1965
  65   2.0000      -0.991502       -26.9802
  66   2.0000      -0.916631       -24.9428
  67   2.0000      -0.914377       -24.8815
  68   2.0000      -0.910643       -24.7799
  69   2.0000      -0.904673       -24.6174
  70   2.0000      -0.901890       -24.5417
  71   2.0000      -0.875289       -23.8178
  72   2.0000      -0.874739       -23.8029
  73   2.0000      -0.868171       -23.6241
  74   2.0000      -0.840014       -22.8579
  75   2.0000      -0.829934       -22.5836
  76   2.0000      -0.824805       -22.4441
  77   2.0000      -0.813245       -22.1295
  78   2.0000      -0.798601       -21.7310
  79   2.0000      -0.767504       -20.8848
  80   2.0000      -0.759479       -20.6665
  81   2.0000      -0.754020       -20.5179
  82   2.0000      -0.752119       -20.4662
  83   2.0000      -0.747114       -20.3300
  84   2.0000      -0.741958       -20.1897
  85   2.0000      -0.719715       -19.5844
  86   2.0000      -0.708274       -19.2731
  87   2.0000      -0.706176       -19.2160
  88   2.0000      -0.698120       -18.9968
  89   2.0000      -0.689853       -18.7718
  90   2.0000      -0.682033       -18.5591
  91   2.0000      -0.675321       -18.3764
  92   2.0000      -0.671655       -18.2767
  93   2.0000      -0.664827       -18.0909
  94   2.0000      -0.661517       -18.0008
  95   2.0000      -0.657131       -17.8815
  96   2.0000      -0.653141       -17.7729
  97   2.0000      -0.651947       -17.7404
  98   2.0000      -0.645470       -17.5641
  99   2.0000      -0.639345       -17.3975
 100   2.0000      -0.632830       -17.2202
 101   2.0000      -0.623915       -16.9776
 102   2.0000      -0.619946       -16.8696
 103   2.0000      -0.619377       -16.8541
 104   2.0000      -0.617093       -16.7919
 105   2.0000      -0.612777       -16.6745
 106   2.0000      -0.610919       -16.6240
 107   2.0000      -0.605480       -16.4759
 108   2.0000      -0.601902       -16.3786
 109   2.0000      -0.590529       -16.0691
 110   2.0000      -0.589582       -16.0433
 111   2.0000      -0.586745       -15.9661
 112   2.0000      -0.582922       -15.8621
 113   2.0000      -0.564878       -15.3711
 114   2.0000      -0.554626       -15.0921
 115   2.0000      -0.550171       -14.9709
 116   2.0000      -0.548668       -14.9300
 117   2.0000      -0.542795       -14.7702
 118   2.0000      -0.541973       -14.7478
 119   2.0000      -0.540396       -14.7049
 120   2.0000      -0.538281       -14.6474
 121   2.0000      -0.535989       -14.5850
 122   2.0000      -0.529725       -14.4146
 123   2.0000      -0.526466       -14.3259
 124   2.0000      -0.523790       -14.2531
 125   2.0000      -0.516100       -14.0438
 126   2.0000      -0.510561       -13.8931
 127   2.0000      -0.504687       -13.7332
 128   2.0000      -0.502376       -13.6703
 129   2.0000      -0.498334       -13.5604
 130   2.0000      -0.494827       -13.4649
 131   2.0000      -0.461640       -12.5619
 132   2.0000      -0.457157       -12.4399
 133   2.0000      -0.454713       -12.3734
 134   2.0000      -0.454283       -12.3617
 135   2.0000      -0.447376       -12.1737
 136   2.0000      -0.434611       -11.8264
 137   2.0000      -0.426779       -11.6132
 138   2.0000      -0.418413       -11.3856
 139   2.0000      -0.415889       -11.3169
 140   2.0000      -0.414855       -11.2888
 141   2.0000      -0.413370       -11.2484
 142   2.0000      -0.409604       -11.1459
 143   2.0000      -0.408263       -11.1094
 144   2.0000      -0.407394       -11.0857
 145   2.0000      -0.403945       -10.9919
 146   2.0000      -0.398533       -10.8446
 147   2.0000      -0.396219       -10.7817
 148   2.0000      -0.349259        -9.5038
 149   2.0000      -0.336041        -9.1441
 150   2.0000      -0.328897        -8.9497
 151   2.0000      -0.326624        -8.8879
 152   2.0000      -0.322881        -8.7860
 153   2.0000      -0.322067        -8.7639
 154   0.0000       0.055756         1.5172
 155   0.0000       0.063883         1.7383
 156   0.0000       0.068015         1.8508
 157   0.0000       0.074589         2.0297
 158   0.0000       0.077330         2.1043

MULLIKEN ATOMIC CHARGES
-----------------------
   0 C :    0.199318
   1 C :   -0.083925
   2 C :   -0.220055
   3 C :    0.176325
   4 H :    0.158588
   5 C :   -0.223968
   6 C :    0.189507
   7 H :    0.158071
   8 C :   -0.226898
   9 C :   -0.101721
  10 H :    0.162784
  11 C :   -0.110094
  12 H :    0.102202
  13 H :    0.090262
  14 H :    0.104887
  15 C :    0.096663
  16 C :    0.192831
  17 C :   -0.233590
  18 C :    0.169503
  19 H :    0.182459
  20 C :   -0.192404
  21 C :    0.200603
  22 H :    0.162838
  23 C :   -0.211642
  24 C :   -0.095184
  25 H :    0.167907
  26 C :   -0.099917
  27 H :    0.094013
  28 H :    0.098299
  29 H :    0.104412
  30 C :    0.174567
  31 C :   -0.096030
  32 C :   -0.226749
  33 C :    0.196160
  34 H :    0.163206
  35 C :   -0.217955
  36 C :    0.197700
  37 H :    0.157967
  38 C :   -0.223850
  39 C :   -0.091707
  40 H :    0.158222
  41 C :   -0.098691
  42 H :    0.089653
  43 H :    0.103551
  44 C :   -0.040153
  45 C :   -0.035563
  46 N :   -0.258842
  47 N :   -0.260797
  48 O :   -0.388331
  49 C :   -0.041279
  50 C :   -0.038989
  51 N :   -0.255355
  52 N :   -0.256751
  53 C :   -0.043814
  54 C :   -0.060999
  55 N :   -0.266765
  56 N :   -0.268550
  57 C :   -0.040511
  58 C :   -0.033749
  59 N :   -0.253848
  60 N :   -0.261414
  61 H :    0.102613
  62 H :    0.105255
  63 H :    0.098876
  64 H :    0.069729
  65 H :    0.108802
  66 H :    0.068293
  67 H :    0.110022
  68 H :    0.104743
  69 H :    0.062822
  70 H :    0.101736
  71 H :    0.061432
  72 H :    0.067010
  73 H :    0.109210
  74 H :    0.101341
  75 H :    0.061067
  76 H :    0.107862
  77 H :    0.066776
Sum of atomic charges:   -0.0000000

LOEWDIN ATOMIC CHARGES
----------------------
   0 C :   -0.073555
   1 C :   -0.067762
   2 C :    0.092424
   3 C :   -0.076066
   4 H :   -0.018481
   5 C :    0.089200
   6 C :   -0.072468
   7 H :   -0.021012
   8 C :    0.093538
   9 C :   -0.072788
  10 H :   -0.021881
  11 C :   -0.072647
  12 H :   -0.034291
  13 H :   -0.034241
  14 H :   -0.035145
  15 C :   -0.091708
  16 C :   -0.137977
  17 C :    0.095558
  18 C :   -0.072348
  19 H :   -0.015209
  20 C :    0.108577
  21 C :   -0.071089
  22 H :   -0.014414
  23 C :    0.103186
  24 C :   -0.068529
  25 H :   -0.018150
  26 C :   -0.074061
  27 H :   -0.033551
  28 H :   -0.032893
  29 H :   -0.033594
  30 C :   -0.075078
  31 C :   -0.071812
  32 C :    0.092751
  33 C :   -0.072517
  34 H :   -0.022248
  35 C :    0.089860
  36 C :   -0.073815
  37 H :   -0.022211
  38 C :    0.091780
  39 C :   -0.069088
  40 H :   -0.018093
  41 C :   -0.070174
  42 H :   -0.034474
  43 H :   -0.032889
  44 C :   -0.039171
  45 C :   -0.035668
  46 N :    0.203479
  47 N :    0.217593
  48 O :    0.133550
  49 C :   -0.039675
  50 C :   -0.035498
  51 N :    0.205149
  52 N :    0.219201
  53 C :   -0.036788
  54 C :   -0.031610
  55 N :    0.202194
  56 N :    0.216353
  57 C :   -0.038029
  58 C :   -0.035322
  59 N :    0.209399
  60 N :    0.216584
  61 H :   -0.034566
  62 H :   -0.028635
  63 H :   -0.036213
  64 H :   -0.037613
  65 H :   -0.029019
  66 H :   -0.036438
  67 H :   -0.028851
  68 H :   -0.027046
  69 H :   -0.038111
  70 H :   -0.027376
  71 H :   -0.038938
  72 H :   -0.036257
  73 H :   -0.029410
  74 H :   -0.027978
  75 H :   -0.039049
  76 H :   -0.029963
  77 H :   -0.036894

  Mayer bond orders larger than 0.100000
B(  0-C ,  1-C ) :   0.9758 B(  0-C ,  2-C ) :   1.3865 B(  0-C ,  8-C ) :   1.2966
B(  1-C , 13-H ) :   0.9895 B(  1-C , 47-N ) :   1.9885 B(  2-C ,  3-C ) :   1.3011
B(  2-C ,  4-H ) :   0.9647 B(  3-C ,  5-C ) :   1.3810 B(  3-C , 11-C ) :   0.9865
B(  5-C ,  6-C ) :   1.3132 B(  5-C ,  7-H ) :   0.9627 B(  6-C ,  8-C ) :   1.3742
B(  6-C ,  9-C ) :   0.9818 B(  8-C , 10-H ) :   0.9624 B(  9-C , 12-H ) :   0.9907
B(  9-C , 55-N ) :   1.9731 B( 11-C , 14-H ) :   0.9939 B( 11-C , 51-N ) :   1.9763
B( 15-C , 16-C ) :   0.9381 B( 15-C , 17-C ) :   1.2828 B( 15-C , 23-C ) :   1.3733
B( 16-C , 28-H ) :   1.0168 B( 16-C , 48-O ) :   2.0257 B( 17-C , 18-C ) :   1.3851
B( 17-C , 19-H ) :   0.9566 B( 18-C , 20-C ) :   1.2973 B( 18-C , 26-C ) :   0.9897
B( 20-C , 21-C ) :   1.3857 B( 20-C , 22-H ) :   0.9634 B( 21-C , 23-C ) :   1.2935
B( 21-C , 24-C ) :   0.9732 B( 23-C , 25-H ) :   0.9586 B( 24-C , 27-H ) :   0.9901
B( 24-C , 52-N ) :   1.9898 B( 26-C , 29-H ) :   0.9933 B( 26-C , 59-N ) :   1.9821
B( 30-C , 31-C ) :   0.9915 B( 30-C , 32-C ) :   1.3771 B( 30-C , 38-C ) :   1.3016
B( 31-C , 46-N ) :   1.9735 B( 31-C , 61-H ) :   0.9917 B( 32-C , 33-C ) :   1.2973
B( 32-C , 34-H ) :   0.9599 B( 33-C , 35-C ) :   1.3897 B( 33-C , 41-C ) :   0.9730
B( 35-C , 36-C ) :   1.3117 B( 35-C , 37-H ) :   0.9623 B( 36-C , 38-C ) :   1.3814
B( 36-C , 39-C ) :   0.9710 B( 38-C , 40-H ) :   0.9656 B( 39-C , 42-H ) :   0.9883
B( 39-C , 60-N ) :   1.9896 B( 41-C , 43-H ) :   0.9922 B( 41-C , 56-N ) :   1.9755
B( 44-C , 45-C ) :   0.9338 B( 44-C , 46-N ) :   0.9680 B( 44-C , 76-H ) :   0.9882
B( 44-C , 77-H ) :   0.9772 B( 45-C , 47-N ) :   0.9688 B( 45-C , 74-H ) :   0.9793
B( 45-C , 75-H ) :   0.9743 B( 49-C , 50-C ) :   0.9329 B( 49-C , 51-N ) :   0.9668
B( 49-C , 66-H ) :   0.9760 B( 49-C , 67-H ) :   0.9874 B( 50-C , 52-N ) :   0.9663
B( 50-C , 68-H ) :   0.9803 B( 50-C , 69-H ) :   0.9741 B( 53-C , 54-C ) :   0.9344
B( 53-C , 55-N ) :   0.9628 B( 53-C , 64-H ) :   0.9822 B( 53-C , 65-H ) :   0.9874
B( 54-C , 56-N ) :   0.9634 B( 54-C , 62-H ) :   0.9801 B( 54-C , 63-H ) :   0.9659
B( 57-C , 58-C ) :   0.9362 B( 57-C , 59-N ) :   0.9652 B( 57-C , 72-H ) :   0.9776
B( 57-C , 73-H ) :   0.9880 B( 58-C , 60-N ) :   0.9687 B( 58-C , 70-H ) :   0.9783
B( 58-C , 71-H ) :   0.9748

MP2 TOTAL ENERGY:    -1863.536340699 Eh
FINAL SINGLE POINT ENERGY     -1863.536340698747

DIPOLE MOMENT
-------------
                                X             Y             Z
Electronic contribution:     -0.21501       1.55622      -6.33237
Nuclear contribution   :      0.65826      -2.26937       7.19895
                        -----------------------------------------
Total Dipole Moment    :      0.44325      -0.71315       0.86657
                        -----------------------------------------
Magnitude (a.u.)       :      1.20665
Magnitude (Debye)      :      3.06707

Rotational constants in cm-1:     0.002474     0.002327     0.001927
Rotational constants in MHz :    74.156045    69.763327    57.773244

                             ****ORCA TERMINATED NORMALLY****
TOTAL RUN TIME: 0 days 1 hours 0 minutes 32 seconds 271 msec
