                         Program Version 4.2.1 -  RELEASE  -
|  1> ! RI-MP2 cc-pVTZ cc-pVTZ/C TIGHTSCF printbasis Grid6 NOFINALGRID SlowConv
|  2>
|  3> %base "_o_3_alde1_6_ami4_2_opt_MP2"
|  4> %maxcore 3000
|  5> %pal
|  6>    nprocs 32
|  7> end
|  8>
|  9> * xyzfile 0 1 _o_3_alde1_6_ami4_2_opt_B97-3c.xyz
| 10>
| 11>                          ****END OF INPUT****

CARTESIAN COORDINATES (ANGSTROEM)
---------------------------------
  C     -3.009830   -0.891308    0.345565
  C     -3.207811   -0.527531    1.746536
  C     -2.293601   -2.031791   -0.041147
  C     -2.130986   -2.343423   -1.384394
  H     -1.877638   -2.674248    0.723933
  C     -2.673131   -1.492473   -2.352483
  C     -3.400674   -0.370489   -1.988939
  H     -2.524774   -1.741207   -3.394720
  C     -3.567918   -0.078030   -0.632477
  C     -3.941558    0.497534   -3.033371
  H     -4.133379    0.802687   -0.358591
  C     -1.420073   -3.559829   -1.783263
  H     -3.547797    0.315615   -4.043040
  H     -3.822597    0.368772    1.907246
  H     -0.989356   -4.154847   -0.966544
  C      3.419484   -1.636255   -0.168894
  C      3.326423   -1.929479    1.262611
  C      4.052592   -0.471039   -0.604055
  C      4.049275   -0.110728   -1.950218
  H      4.535019    0.177276    0.119272
  C      3.389154   -0.928269   -2.868453
  C      2.767551   -2.100370   -2.450498
  H      3.360971   -0.623515   -3.906562
  C      2.793594   -2.451190   -1.102790
  C      2.015737   -2.920619   -3.401805
  H      2.286200   -3.345640   -0.775573
  C      4.683915    1.142377   -2.351686
  H      1.834855   -2.471888   -4.388770
  H      3.785738   -1.197580    1.938577
  H      5.105012    1.734995   -1.526464
  C      0.244755    3.226997   -0.109391
  C      0.605265    2.897148    1.269577
  C     -1.090023    3.335042   -0.506135
  C     -1.421838    3.570640   -1.832566
  H     -1.861043    3.210011    0.242291
  C     -0.402061    3.682238   -2.783915
  C      0.929550    3.610083   -2.400326
  H     -0.671887    3.833843   -3.820964
  C      1.245222    3.391734   -1.055105
  C      1.985676    3.703517   -3.407500
  H      2.287969    3.319189   -0.775321
  C     -2.833916    3.661702   -2.189955
  H      1.660122    3.577048   -4.450191
  H      1.677743    2.965233    1.484696
  H     -3.525221    3.622447   -1.337885
  C     -3.623593   -1.869326    4.894894
  C     -3.039248   -0.722511    4.065572
  N     -2.765577   -3.025988    5.088311
  N     -2.725399   -1.173310    2.729422
  C      0.979670   -3.054482    3.396267
  C      2.480440   -3.053422    3.124747
  N      0.381613   -1.819904    2.898947
  N      2.683077   -2.934188    1.701185
  C      1.618777    1.899184    3.771080
  C      0.145876    2.186833    3.477821
  N      2.199532    0.756697    3.078065
  N     -0.257701    2.546135    2.131629
  C     -0.588712   -5.118120   -3.304593
  C      0.721444   -4.770401   -4.011514
  N     -1.322503   -3.916091   -2.998371
  N      1.568476   -4.065095   -3.089184
  C     -5.137222    2.290257   -3.898526
  C     -4.696622    3.717344   -3.551508
  N     -4.789010    1.414866   -2.808052
  N     -3.262167    3.758957   -3.382928
  C      5.296549    2.864870   -3.773302
  C      4.185016    3.841081   -4.162135
  N      4.739671    1.551788   -3.552898
  N      3.204400    3.887967   -3.107343
  H      2.197519    0.924769    2.079969
  H      1.597373   -0.057877    3.206465
  H     -1.930513   -2.760541    5.596355
  H     -2.456481   -3.366143    4.186697
  H     -0.626070   -1.823042    3.024477
  H      0.518262   -1.782267    1.895046
  H      3.756583    3.553159   -5.130621
  H      4.634563    4.831124   -4.270741
  H      5.813020    3.256780   -2.887234
  H      6.012115    2.815775   -4.595657
  H      2.893506   -4.006507    3.462309
  H      2.960752   -2.245145    3.690330
  H      0.823181   -3.114145    4.474472
  H      0.549320   -3.960953    2.951529
  H      0.510786   -4.207384   -4.930031
  H      1.208562   -5.708114   -4.288211
  H     -0.356461   -5.714829   -2.413820
  H     -1.193122   -5.724939   -3.980843
  H     -4.546708   -2.204007    4.419021
  H     -3.905336   -1.476499    5.873268
  H     -2.110262   -0.392544    4.540833
  H     -3.730835    0.132431    4.066858
  H      1.698984    1.719969    4.845509
  H      2.232155    2.782547    3.580838
  H     -0.213219    2.982595    4.140344
  H     -0.439959    1.303267    3.743483
  H     -5.233466    4.032537   -2.648939
  H     -4.983076    4.376096   -4.371342
  H     -4.685423    1.987125   -4.851676
  H     -6.222139    2.295421   -4.018032

 Total Charge           Charge          ....    0
 Multiplicity           Mult            ....    1
 Number of Electrons    NEL             ....  366
 Basis Dimension        Dim             .... 2202

ORBITAL ENERGIES
----------------

  NO   OCC          E(Eh)            E(eV)
   0   2.0000     -15.563977      -423.5173
   1   2.0000     -15.557897      -423.3519
   2   2.0000     -15.557481      -423.3406
   3   2.0000     -15.556803      -423.3221
   4   2.0000     -15.556013      -423.3006
   5   2.0000     -15.554754      -423.2664
   6   2.0000     -15.554159      -423.2502
   7   2.0000     -15.553117      -423.2218
   8   2.0000     -15.552505      -423.2052
   9   2.0000     -15.535161      -422.7332
  10   2.0000     -15.531384      -422.6304
  11   2.0000     -15.521678      -422.3663
  12   2.0000     -11.291337      -307.2529
  13   2.0000     -11.284066      -307.0550
  14   2.0000     -11.282420      -307.0103
  15   2.0000     -11.282360      -307.0086
  16   2.0000     -11.281482      -306.9847
  17   2.0000     -11.280535      -306.9590
  18   2.0000     -11.279968      -306.9435
  19   2.0000     -11.279892      -306.9415
  20   2.0000     -11.277432      -306.8745
  21   2.0000     -11.254836      -306.2597
  22   2.0000     -11.254742      -306.2571
  23   2.0000     -11.254459      -306.2494
  24   2.0000     -11.253988      -306.2366
  25   2.0000     -11.253883      -306.2337
  26   2.0000     -11.253274      -306.2172
  27   2.0000     -11.252396      -306.1933
  28   2.0000     -11.252341      -306.1918
  29   2.0000     -11.252138      -306.1863
  30   2.0000     -11.251770      -306.1762
  31   2.0000     -11.251295      -306.1633
  32   2.0000     -11.250987      -306.1549
  33   2.0000     -11.250297      -306.1361
  34   2.0000     -11.249402      -306.1118
  35   2.0000     -11.249173      -306.1056
  36   2.0000     -11.248651      -306.0913
  37   2.0000     -11.248476      -306.0866
  38   2.0000     -11.248370      -306.0837
  39   2.0000     -11.247762      -306.0672
  40   2.0000     -11.247096      -306.0490
  41   2.0000     -11.247036      -306.0474
  42   2.0000     -11.246322      -306.0280
  43   2.0000     -11.246209      -306.0249
  44   2.0000     -11.245977      -306.0186
  45   2.0000     -11.245745      -306.0123
  46   2.0000     -11.245307      -306.0004
  47   2.0000     -11.245128      -305.9955
  48   2.0000     -11.244991      -305.9918
  49   2.0000     -11.243053      -305.9390
  50   2.0000     -11.240416      -305.8673
  51   2.0000      -1.255231       -34.1566
  52   2.0000      -1.252856       -34.0919
  53   2.0000      -1.251973       -34.0679
  54   2.0000      -1.248617       -33.9766
  55   2.0000      -1.240901       -33.7666
  56   2.0000      -1.239029       -33.7157
  57   2.0000      -1.228592       -33.4317
  58   2.0000      -1.227862       -33.4118
  59   2.0000      -1.224691       -33.3255
  60   2.0000      -1.180329       -32.1184
  61   2.0000      -1.176819       -32.0229
  62   2.0000      -1.171200       -31.8700
  63   2.0000      -1.168337       -31.7921
  64   2.0000      -1.163560       -31.6621
  65   2.0000      -1.159379       -31.5483
  66   2.0000      -1.071673       -29.1617
  67   2.0000      -1.070629       -29.1333
  68   2.0000      -1.065182       -28.9851
  69   2.0000      -1.058419       -28.8011
  70   2.0000      -1.055546       -28.7229
  71   2.0000      -1.051512       -28.6131
  72   2.0000      -1.011241       -27.5173
  73   2.0000      -0.999372       -27.1943
  74   2.0000      -0.998849       -27.1801
  75   2.0000      -0.985259       -26.8103
  76   2.0000      -0.981473       -26.7072
  77   2.0000      -0.978788       -26.6342
  78   2.0000      -0.912448       -24.8290
  79   2.0000      -0.909797       -24.7568
  80   2.0000      -0.909529       -24.7495
  81   2.0000      -0.889501       -24.2045
  82   2.0000      -0.888166       -24.1682
  83   2.0000      -0.883945       -24.0534
  84   2.0000      -0.870931       -23.6992
  85   2.0000      -0.864404       -23.5216
  86   2.0000      -0.850901       -23.1542
  87   2.0000      -0.829978       -22.5849
  88   2.0000      -0.827194       -22.5091
  89   2.0000      -0.824043       -22.4234
  90   2.0000      -0.811073       -22.0704
  91   2.0000      -0.802315       -21.8321
  92   2.0000      -0.790020       -21.4975
  93   2.0000      -0.766239       -20.8504
  94   2.0000      -0.755301       -20.5528
  95   2.0000      -0.751888       -20.4599
  96   2.0000      -0.748580       -20.3699
  97   2.0000      -0.742412       -20.2021
  98   2.0000      -0.737926       -20.0800
  99   2.0000      -0.710522       -19.3343
 100   2.0000      -0.709494       -19.3063
 101   2.0000      -0.703052       -19.1310
 102   2.0000      -0.692924       -18.8554
 103   2.0000      -0.687883       -18.7183
 104   2.0000      -0.685195       -18.6451
 105   2.0000      -0.677033       -18.4230
 106   2.0000      -0.673976       -18.3398
 107   2.0000      -0.671780       -18.2801
 108   2.0000      -0.667881       -18.1740
 109   2.0000      -0.666242       -18.1294
 110   2.0000      -0.661017       -17.9872
 111   2.0000      -0.657823       -17.9003
 112   2.0000      -0.654052       -17.7977
 113   2.0000      -0.647154       -17.6100
 114   2.0000      -0.644796       -17.5458
 115   2.0000      -0.642007       -17.4699
 116   2.0000      -0.634549       -17.2669
 117   2.0000      -0.632410       -17.2088
 118   2.0000      -0.626660       -17.0523
 119   2.0000      -0.619757       -16.8644
 120   2.0000      -0.617568       -16.8049
 121   2.0000      -0.614967       -16.7341
 122   2.0000      -0.614567       -16.7232
 123   2.0000      -0.611005       -16.6263
 124   2.0000      -0.606492       -16.5035
 125   2.0000      -0.602658       -16.3992
 126   2.0000      -0.600895       -16.3512
 127   2.0000      -0.599006       -16.2998
 128   2.0000      -0.597934       -16.2706
 129   2.0000      -0.587815       -15.9952
 130   2.0000      -0.585627       -15.9357
 131   2.0000      -0.582222       -15.8431
 132   2.0000      -0.567356       -15.4385
 133   2.0000      -0.559709       -15.2304
 134   2.0000      -0.554003       -15.0752
 135   2.0000      -0.550734       -14.9862
 136   2.0000      -0.548446       -14.9240
 137   2.0000      -0.547415       -14.8959
 138   2.0000      -0.544823       -14.8254
 139   2.0000      -0.542166       -14.7531
 140   2.0000      -0.538476       -14.6527
 141   2.0000      -0.537649       -14.6302
 142   2.0000      -0.535684       -14.5767
 143   2.0000      -0.532907       -14.5011
 144   2.0000      -0.531774       -14.4703
 145   2.0000      -0.530287       -14.4298
 146   2.0000      -0.528794       -14.3892
 147   2.0000      -0.517313       -14.0768
 148   2.0000      -0.512593       -13.9484
 149   2.0000      -0.508065       -13.8252
 150   2.0000      -0.503014       -13.6877
 151   2.0000      -0.501817       -13.6551
 152   2.0000      -0.499044       -13.5797
 153   2.0000      -0.497045       -13.5253
 154   2.0000      -0.491289       -13.3687
 155   2.0000      -0.490348       -13.3430
 156   2.0000      -0.463045       -12.6001
 157   2.0000      -0.460578       -12.5330
 158   2.0000      -0.457231       -12.4419
 159   2.0000      -0.454178       -12.3588
 160   2.0000      -0.451443       -12.2844
 161   2.0000      -0.451015       -12.2727
 162   2.0000      -0.427209       -11.6250
 163   2.0000      -0.421116       -11.4591
 164   2.0000      -0.414268       -11.2728
 165   2.0000      -0.414034       -11.2664
 166   2.0000      -0.412194       -11.2164
 167   2.0000      -0.411285       -11.1916
 168   2.0000      -0.409909       -11.1542
 169   2.0000      -0.407833       -11.0977
 170   2.0000      -0.406814       -11.0700
 171   2.0000      -0.404666       -11.0115
 172   2.0000      -0.400738       -10.9046
 173   2.0000      -0.398714       -10.8496
 174   2.0000      -0.388186       -10.5631
 175   2.0000      -0.387390       -10.5414
 176   2.0000      -0.367275        -9.9941
 177   2.0000      -0.329784        -8.9739
 178   2.0000      -0.329179        -8.9574
 179   2.0000      -0.327115        -8.9012
 180   2.0000      -0.324429        -8.8281
 181   2.0000      -0.324062        -8.8182
 182   2.0000      -0.319372        -8.6906
 183   0.0000       0.064541         1.7562
 184   0.0000       0.067717         1.8427
 185   0.0000       0.069639         1.8950
 186   0.0000       0.074248         2.0204
 187   0.0000       0.076969         2.0944

MULLIKEN ATOMIC CHARGES
-----------------------
   0 C :    0.167839
   1 C :   -0.073508
   2 C :   -0.213340
   3 C :    0.147224
   4 H :    0.166719
   5 C :   -0.196754
   6 C :    0.196492
   7 H :    0.158130
   8 C :   -0.226880
   9 C :   -0.087827
  10 H :    0.161242
  11 C :   -0.089004
  12 H :    0.092363
  13 H :    0.095100
  14 H :    0.103030
  15 C :    0.173478
  16 C :   -0.121170
  17 C :   -0.243545
  18 C :    0.165619
  19 H :    0.149326
  20 C :   -0.210865
  21 C :    0.184107
  22 H :    0.157071
  23 C :   -0.187170
  24 C :   -0.096350
  25 H :    0.179943
  26 C :   -0.090113
  27 H :    0.092500
  28 H :    0.123511
  29 H :    0.087481
  30 C :    0.159953
  31 C :   -0.109400
  32 C :   -0.193652
  33 C :    0.170896
  34 H :    0.154120
  35 C :   -0.216123
  36 C :    0.184248
  37 H :    0.158155
  38 C :   -0.210615
  39 C :   -0.086125
  40 H :    0.153247
  41 C :   -0.104629
  42 H :    0.089422
  43 H :    0.100933
  44 H :    0.101097
  45 C :   -0.036532
  46 C :   -0.085456
  47 N :   -0.373059
  48 N :   -0.281444
  49 C :   -0.065072
  50 C :   -0.060714
  51 N :   -0.422506
  52 N :   -0.263799
  53 C :   -0.123762
  54 C :   -0.045697
  55 N :   -0.418732
  56 N :   -0.253578
  57 C :   -0.038182
  58 C :   -0.038603
  59 N :   -0.255160
  60 N :   -0.245938
  61 C :   -0.039164
  62 C :   -0.040896
  63 N :   -0.259173
  64 N :   -0.256569
  65 C :   -0.035231
  66 C :   -0.032959
  67 N :   -0.252380
  68 N :   -0.257281
  69 H :    0.139462
  70 H :    0.187558
  71 H :    0.133123
  72 H :    0.149156
  73 H :    0.188444
  74 H :    0.155188
  75 H :    0.061219
  76 H :    0.100810
  77 H :    0.060993
  78 H :    0.106007
  79 H :    0.112818
  80 H :    0.074772
  81 H :    0.090001
  82 H :    0.076409
  83 H :    0.062143
  84 H :    0.103141
  85 H :    0.066701
  86 H :    0.106222
  87 H :    0.090157
  88 H :    0.095532
  89 H :    0.082301
  90 H :    0.087601
  91 H :    0.110268
  92 H :    0.090432
  93 H :    0.094591
  94 H :    0.097750
  95 H :    0.067513
  96 H :    0.109206
  97 H :    0.061927
  98 H :    0.104265
Sum of atomic charges:   -0.0000000

LOEWDIN ATOMIC CHARGES
----------------------
   0 C :   -0.074365
   1 C :   -0.064374
   2 C :    0.090446
   3 C :   -0.072735
   4 H :   -0.021199
   5 C :    0.097247
   6 C :   -0.074543
   7 H :   -0.018569
   8 C :    0.094141
   9 C :   -0.068627
  10 H :   -0.020223
  11 C :   -0.067629
  12 H :   -0.033145
  13 H :   -0.029789
  14 H :   -0.033103
  15 C :   -0.079725
  16 C :   -0.069508
  17 C :    0.069829
  18 C :   -0.077216
  19 H :   -0.020986
  20 C :    0.093020
  21 C :   -0.074368
  22 H :   -0.018761
  23 C :    0.110948
  24 C :   -0.068526
  25 H :   -0.019635
  26 C :   -0.074178
  27 H :   -0.035380
  28 H :   -0.034272
  29 H :   -0.035833
  30 C :   -0.075992
  31 C :   -0.084220
  32 C :    0.092932
  33 C :   -0.075581
  34 H :   -0.020813
  35 C :    0.092110
  36 C :   -0.074334
  37 H :   -0.018356
  38 C :    0.089392
  39 C :   -0.069828
  40 H :   -0.021631
  41 C :   -0.072163
  42 H :   -0.034317
  43 H :   -0.037477
  44 H :   -0.034234
  45 C :   -0.024128
  46 C :   -0.047444
  47 N :    0.331325
  48 N :    0.213709
  49 C :   -0.023662
  50 C :   -0.038456
  51 N :    0.359256
  52 N :    0.216435
  53 C :   -0.033308
  54 C :   -0.049085
  55 N :    0.316980
  56 N :    0.216432
  57 C :   -0.040818
  58 C :   -0.039483
  59 N :    0.214933
  60 N :    0.222742
  61 C :   -0.036838
  62 C :   -0.039650
  63 N :    0.213743
  64 N :    0.202354
  65 C :   -0.040497
  66 C :   -0.037822
  67 N :    0.210361
  68 N :    0.216281
  69 H :   -0.127484
  70 H :   -0.129731
  71 H :   -0.113024
  72 H :   -0.113104
  73 H :   -0.130745
  74 H :   -0.113690
  75 H :   -0.038576
  76 H :   -0.027455
  77 H :   -0.037840
  78 H :   -0.028674
  79 H :   -0.027704
  80 H :   -0.035480
  81 H :   -0.034391
  82 H :   -0.042522
  83 H :   -0.038639
  84 H :   -0.026527
  85 H :   -0.036054
  86 H :   -0.028239
  87 H :   -0.030887
  88 H :   -0.028400
  89 H :   -0.035692
  90 H :   -0.034042
  91 H :   -0.024553
  92 H :   -0.037464
  93 H :   -0.025925
  94 H :   -0.029001
  95 H :   -0.036744
  96 H :   -0.029181
  97 H :   -0.038309
  98 H :   -0.027714

  Mayer bond orders larger than 0.100000
B(  0-C ,  1-C ) :   0.9958 B(  0-C ,  2-C ) :   1.3019 B(  0-C ,  8-C ) :   1.3876
B(  1-C , 13-H ) :   0.9924 B(  1-C , 48-N ) :   1.9789 B(  2-C ,  3-C ) :   1.4097
B(  2-C ,  4-H ) :   0.9598 B(  3-C ,  5-C ) :   1.3000 B(  3-C , 11-C ) :   0.9890
B(  5-C ,  6-C ) :   1.3887 B(  5-C ,  7-H ) :   0.9620 B(  6-C ,  8-C ) :   1.2878
B(  6-C ,  9-C ) :   0.9833 B(  8-C , 10-H ) :   0.9638 B(  9-C , 12-H ) :   0.9924
B(  9-C , 63-N ) :   1.9820 B( 11-C , 14-H ) :   0.9906 B( 11-C , 59-N ) :   1.9800
B( 15-C , 16-C ) :   0.9781 B( 15-C , 17-C ) :   1.3408 B( 15-C , 23-C ) :   1.3431
B( 16-C , 28-H ) :   0.9831 B( 16-C , 52-N ) :   1.9654 B( 17-C , 18-C ) :   1.3736
B( 17-C , 19-H ) :   0.9736 B( 18-C , 20-C ) :   1.3347 B( 18-C , 26-C ) :   0.9886
B( 20-C , 21-C ) :   1.3537 B( 20-C , 22-H ) :   0.9649 B( 21-C , 23-C ) :   1.3106
B( 21-C , 24-C ) :   0.9819 B( 23-C , 25-H ) :   0.9469 B( 24-C , 27-H ) :   0.9903
B( 24-C , 60-N ) :   1.9939 B( 26-C , 29-H ) :   0.9949 B( 26-C , 67-N ) :   1.9860
B( 30-C , 31-C ) :   0.9973 B( 30-C , 32-C ) :   1.3077 B( 30-C , 38-C ) :   1.3866
B( 31-C , 43-H ) :   0.9829 B( 31-C , 56-N ) :   1.9832 B( 32-C , 33-C ) :   1.3868
B( 32-C , 34-H ) :   0.9619 B( 33-C , 35-C ) :   1.2953 B( 33-C , 41-C ) :   0.9928
B( 35-C , 36-C ) :   1.3876 B( 35-C , 37-H ) :   0.9659 B( 36-C , 38-C ) :   1.3050
B( 36-C , 39-C ) :   0.9783 B( 38-C , 40-H ) :   0.9668 B( 39-C , 42-H ) :   0.9891
B( 39-C , 68-N ) :   1.9928 B( 41-C , 44-H ) :   0.9928 B( 41-C , 64-N ) :   1.9790
B( 45-C , 46-C ) :   0.9484 B( 45-C , 47-N ) :   1.0026 B( 45-C , 87-H ) :   0.9860
B( 45-C , 88-H ) :   0.9904 B( 46-C , 48-N ) :   0.9342 B( 46-C , 89-H ) :   0.9681
B( 46-C , 90-H ) :   0.9789 B( 47-N , 71-H ) :   1.0038 B( 47-N , 72-H ) :   0.9998
B( 49-C , 50-C ) :   0.9591 B( 49-C , 51-N ) :   0.9767 B( 49-C , 81-H ) :   0.9824
B( 49-C , 82-H ) :   0.9763 B( 50-C , 52-N ) :   0.9668 B( 50-C , 79-H ) :   0.9839
B( 50-C , 80-H ) :   0.9754 B( 51-N , 73-H ) :   0.9634 B( 51-N , 74-H ) :   0.9705
B( 53-C , 54-C ) :   0.9577 B( 53-C , 55-N ) :   1.0043 B( 53-C , 91-H ) :   0.9872
B( 53-C , 92-H ) :   0.9859 B( 54-C , 56-N ) :   0.9842 B( 54-C , 93-H ) :   0.9709
B( 54-C , 94-H ) :   0.9703 B( 55-N , 69-H ) :   0.9974 B( 55-N , 70-H ) :   0.9466
B( 57-C , 58-C ) :   0.9392 B( 57-C , 59-N ) :   0.9679 B( 57-C , 85-H ) :   0.9751
B( 57-C , 86-H ) :   0.9842 B( 58-C , 60-N ) :   0.9709 B( 58-C , 83-H ) :   0.9740
B( 58-C , 84-H ) :   0.9789 B( 61-C , 62-C ) :   0.9313 B( 61-C , 63-N ) :   0.9696
B( 61-C , 97-H ) :   0.9734 B( 61-C , 98-H ) :   0.9815 B( 62-C , 64-N ) :   0.9664
B( 62-C , 95-H ) :   0.9757 B( 62-C , 96-H ) :   0.9873 B( 65-C , 66-C ) :   0.9386
B( 65-C , 67-N ) :   0.9686 B( 65-C , 77-H ) :   0.9765 B( 65-C , 78-H ) :   0.9856
B( 66-C , 68-N ) :   0.9693 B( 66-C , 75-H ) :   0.9747 B( 66-C , 76-H ) :   0.9785

MP2 TOTAL ENERGY:    -2167.512690920 Eh
FINAL SINGLE POINT ENERGY     -2167.512690920323

DIPOLE MOMENT
-------------
                                X             Y             Z
Electronic contribution:      2.92760       6.95187     -28.18364
Nuclear contribution   :     -3.06187      -6.18008      27.78403
                        -----------------------------------------
Total Dipole Moment    :     -0.13427       0.77179      -0.39961
                        -----------------------------------------
Magnitude (a.u.)       :      0.87942
Magnitude (Debye)      :      2.23530

Rotational constants in cm-1:     0.001736     0.001588     0.001369
Rotational constants in MHz :    52.052727    47.609458    41.030808

                             ****ORCA TERMINATED NORMALLY****
TOTAL RUN TIME: 0 days 1 hours 45 minutes 41 seconds 770 msec
