                         Program Version 4.2.1 -  RELEASE  -
|  1> ! RI-MP2 cc-pVTZ cc-pVTZ/C TIGHTSCF printbasis Grid6 NOFINALGRID SlowConv
|  2>
|  3> %base "_o_3_alde1_5_ami4_2_opt_MP2"
|  4> %maxcore 3000
|  5> %pal
|  6>    nprocs 32
|  7> end
|  8>
|  9> * xyzfile 0 1 _o_3_alde1_5_ami4_2_opt_B97-3c.xyz
| 10>
| 11>                          ****END OF INPUT****

CARTESIAN COORDINATES (ANGSTROEM)
---------------------------------
  C     -4.715829   -1.069126   -1.239381
  C     -5.487430    0.038050   -0.680284
  C     -4.435718   -2.227497   -0.509278
  C     -3.582832   -3.195634   -1.021014
  H     -4.873130   -2.340788    0.474031
  C     -2.974974   -2.988853   -2.264682
  C     -3.267788   -1.859371   -3.014661
  H     -2.276401   -3.731756   -2.626383
  C     -4.162949   -0.915614   -2.502564
  C     -2.574921   -1.617271   -4.280744
  H     -4.373453   -0.034421   -3.092465
  C     -3.307196   -4.398676   -0.237120
  H     -1.680468   -2.231438   -4.455305
  H     -5.780674    0.809998   -1.403253
  H     -3.949194   -4.539020    0.646334
  C      3.460849   -3.330839   -0.268542
  C      4.446455   -3.968812   -1.141573
  C      3.634679   -2.020913    0.176553
  C      2.687946   -1.422486    0.998902
  H      4.513933   -1.467564   -0.116243
  C      1.554348   -2.147552    1.367990
  C      1.368734   -3.459558    0.941753
  H      0.806191   -1.682760    2.000728
  C      2.332701   -4.045749    0.122357
  C      0.168877   -4.179889    1.355981
  H      2.179923   -5.065405   -0.206487
  C      2.861491   -0.056847    1.494049
  H     -0.565643   -3.578778    1.913202
  H      4.231286   -5.012583   -1.414154
  H      2.077653    0.303029    2.175461
  C     -2.048834    2.494700   -0.469306
  C     -3.060623    2.463272    0.586856
  C     -2.416383    2.361385   -1.810918
  C     -1.456693    2.223417   -2.803112
  H     -3.468815    2.312668   -2.053096
  C     -0.103099    2.280718   -2.456444
  C      0.279426    2.482564   -1.136796
  H      0.639023    2.161088   -3.234831
  C     -0.702621    2.561560   -0.142787
  C      1.698713    2.599544   -0.801182
  H     -0.386299    2.677301    0.885564
  C     -1.908892    1.930800   -4.160922
  H      2.401520    2.399645   -1.621566
  H     -2.984111    2.074792   -4.327344
  C     -5.234578    2.380699    1.432295
  C     -6.333562    1.417395    0.964322
  N     -4.301232    2.593313    0.355676
  N     -5.741809    0.161544    0.559316
  C      6.568633   -3.273101   -3.744517
  C      6.381292   -4.067110   -2.446542
  N      7.087103   -1.923719   -3.598147
  N      5.482205   -3.370134   -1.563924
  C     -2.169209   -6.351408    0.333876
  C     -1.295219   -5.963687    1.529300
  N     -2.390921   -5.221050   -0.545832
  N     -0.038266   -5.406545    1.103038
  C     -2.102260   -0.443580   -6.240484
  C     -1.813455    1.062742   -6.295214
  N     -2.941207   -0.722875   -5.102868
  N     -1.153784    1.477193   -5.077012
  C      3.907692    2.012414    1.694374
  C      3.512325    3.014606    0.610388
  N      3.851853    0.669737    1.173565
  N      2.096886    2.930566    0.358099
  H      6.504887   -1.426121   -2.935426
  H      8.010515   -1.956621   -3.182091
  H     -2.679649    2.265557    1.599108
  H      5.605552   -3.216430   -4.255096
  H      7.232643   -3.838054   -4.401021
  H      7.350882   -4.141880   -1.944487
  H      6.045529   -5.090134   -2.678775
  H     -4.757052    1.993602    2.340962
  H     -5.712734    3.331246    1.680176
  H     -6.887387    1.899672    0.149836
  H     -7.020353    1.244849    1.793066
  H      4.935066    2.221728    1.994775
  H      3.254419    2.165051    2.562484
  H      4.125017    2.843379   -0.283583
  H      3.729861    4.015679    0.988424
  H     -1.670702   -7.134236   -0.234767
  H     -3.107080   -6.760071    0.730815
  H     -2.762709    1.587782   -6.456088
  H     -1.161801    1.260198   -7.146202
  H     -2.641936   -0.709419   -7.152313
  H     -1.160245   -1.005098   -6.224831
  H     -1.099535   -6.869827    2.106519
  H     -1.864260   -5.273617    2.170045

 Total Charge           Charge          ....    0
 Multiplicity           Mult            ....    1
 Number of Electrons    NEL             ....  332
 Basis Dimension        Dim             .... 1970

ORBITAL ENERGIES
----------------

  NO   OCC          E(Eh)            E(eV)
   0   2.0000     -15.558098      -423.3574
   1   2.0000     -15.557201      -423.3330
   2   2.0000     -15.556752      -423.3207
   3   2.0000     -15.556231      -423.3066
   4   2.0000     -15.555421      -423.2845
   5   2.0000     -15.555308      -423.2814
   6   2.0000     -15.553676      -423.2371
   7   2.0000     -15.553141      -423.2225
   8   2.0000     -15.551552      -423.1792
   9   2.0000     -15.524552      -422.4445
  10   2.0000     -11.284841      -307.0761
  11   2.0000     -11.284449      -307.0655
  12   2.0000     -11.282559      -307.0140
  13   2.0000     -11.282407      -307.0099
  14   2.0000     -11.281760      -306.9923
  15   2.0000     -11.280622      -306.9613
  16   2.0000     -11.280404      -306.9554
  17   2.0000     -11.280132      -306.9480
  18   2.0000     -11.278096      -306.8926
  19   2.0000     -11.257399      -306.3294
  20   2.0000     -11.255987      -306.2910
  21   2.0000     -11.254305      -306.2452
  22   2.0000     -11.253235      -306.2161
  23   2.0000     -11.253234      -306.2161
  24   2.0000     -11.252312      -306.1910
  25   2.0000     -11.251239      -306.1618
  26   2.0000     -11.250406      -306.1391
  27   2.0000     -11.249909      -306.1256
  28   2.0000     -11.249759      -306.1215
  29   2.0000     -11.249509      -306.1147
  30   2.0000     -11.249393      -306.1115
  31   2.0000     -11.249226      -306.1070
  32   2.0000     -11.249017      -306.1013
  33   2.0000     -11.248702      -306.0927
  34   2.0000     -11.248156      -306.0779
  35   2.0000     -11.248053      -306.0751
  36   2.0000     -11.247435      -306.0583
  37   2.0000     -11.247327      -306.0553
  38   2.0000     -11.247061      -306.0481
  39   2.0000     -11.247056      -306.0480
  40   2.0000     -11.246980      -306.0459
  41   2.0000     -11.246552      -306.0342
  42   2.0000     -11.246180      -306.0241
  43   2.0000     -11.245686      -306.0107
  44   2.0000     -11.245322      -306.0008
  45   2.0000     -11.241791      -305.9047
  46   2.0000     -11.240692      -305.8748
  47   2.0000      -1.255068       -34.1521
  48   2.0000      -1.253135       -34.0995
  49   2.0000      -1.251580       -34.0572
  50   2.0000      -1.250619       -34.0311
  51   2.0000      -1.240911       -33.7669
  52   2.0000      -1.230671       -33.4883
  53   2.0000      -1.228733       -33.4355
  54   2.0000      -1.225018       -33.3344
  55   2.0000      -1.223131       -33.2831
  56   2.0000      -1.173611       -31.9356
  57   2.0000      -1.170509       -31.8512
  58   2.0000      -1.164669       -31.6922
  59   2.0000      -1.161964       -31.6186
  60   2.0000      -1.071985       -29.1702
  61   2.0000      -1.069149       -29.0930
  62   2.0000      -1.068885       -29.0858
  63   2.0000      -1.058857       -28.8130
  64   2.0000      -1.051686       -28.6178
  65   2.0000      -1.050277       -28.5795
  66   2.0000      -1.015177       -27.6244
  67   2.0000      -1.000061       -27.2130
  68   2.0000      -0.995149       -27.0794
  69   2.0000      -0.994033       -27.0490
  70   2.0000      -0.978497       -26.6263
  71   2.0000      -0.912215       -24.8226
  72   2.0000      -0.911463       -24.8022
  73   2.0000      -0.909865       -24.7587
  74   2.0000      -0.906903       -24.6781
  75   2.0000      -0.882631       -24.0176
  76   2.0000      -0.875562       -23.8253
  77   2.0000      -0.874592       -23.7988
  78   2.0000      -0.864606       -23.5271
  79   2.0000      -0.835669       -22.7397
  80   2.0000      -0.830830       -22.6080
  81   2.0000      -0.826635       -22.4939
  82   2.0000      -0.817539       -22.2464
  83   2.0000      -0.799859       -21.7653
  84   2.0000      -0.796674       -21.6786
  85   2.0000      -0.765556       -20.8318
  86   2.0000      -0.753515       -20.5042
  87   2.0000      -0.752828       -20.4855
  88   2.0000      -0.748007       -20.3543
  89   2.0000      -0.742983       -20.2176
  90   2.0000      -0.738505       -20.0957
  91   2.0000      -0.709734       -19.3129
  92   2.0000      -0.706448       -19.2234
  93   2.0000      -0.701315       -19.0838
  94   2.0000      -0.691192       -18.8083
  95   2.0000      -0.688205       -18.7270
  96   2.0000      -0.681540       -18.5456
  97   2.0000      -0.671236       -18.2653
  98   2.0000      -0.668963       -18.2034
  99   2.0000      -0.668270       -18.1846
 100   2.0000      -0.663176       -18.0459
 101   2.0000      -0.658584       -17.9210
 102   2.0000      -0.654665       -17.8143
 103   2.0000      -0.652642       -17.7593
 104   2.0000      -0.647380       -17.6161
 105   2.0000      -0.644207       -17.5298
 106   2.0000      -0.634009       -17.2523
 107   2.0000      -0.624452       -16.9922
 108   2.0000      -0.621799       -16.9200
 109   2.0000      -0.616448       -16.7744
 110   2.0000      -0.615478       -16.7480
 111   2.0000      -0.614334       -16.7169
 112   2.0000      -0.611089       -16.6286
 113   2.0000      -0.609733       -16.5917
 114   2.0000      -0.603165       -16.4130
 115   2.0000      -0.598396       -16.2832
 116   2.0000      -0.592096       -16.1118
 117   2.0000      -0.591475       -16.0949
 118   2.0000      -0.588100       -16.0030
 119   2.0000      -0.586955       -15.9719
 120   2.0000      -0.584537       -15.9061
 121   2.0000      -0.561468       -15.2783
 122   2.0000      -0.555488       -15.1156
 123   2.0000      -0.548025       -14.9125
 124   2.0000      -0.545353       -14.8398
 125   2.0000      -0.544220       -14.8090
 126   2.0000      -0.543459       -14.7883
 127   2.0000      -0.541537       -14.7360
 128   2.0000      -0.536036       -14.5863
 129   2.0000      -0.535125       -14.5615
 130   2.0000      -0.533576       -14.5194
 131   2.0000      -0.531201       -14.4547
 132   2.0000      -0.526841       -14.3361
 133   2.0000      -0.522989       -14.2313
 134   2.0000      -0.510036       -13.8788
 135   2.0000      -0.504407       -13.7256
 136   2.0000      -0.501812       -13.6550
 137   2.0000      -0.501552       -13.6479
 138   2.0000      -0.498314       -13.5598
 139   2.0000      -0.495329       -13.4786
 140   2.0000      -0.488398       -13.2900
 141   2.0000      -0.466507       -12.6943
 142   2.0000      -0.461027       -12.5452
 143   2.0000      -0.457314       -12.4441
 144   2.0000      -0.453193       -12.3320
 145   2.0000      -0.451692       -12.2912
 146   2.0000      -0.448086       -12.1931
 147   2.0000      -0.418706       -11.3936
 148   2.0000      -0.414616       -11.2823
 149   2.0000      -0.413574       -11.2539
 150   2.0000      -0.411550       -11.1988
 151   2.0000      -0.410742       -11.1769
 152   2.0000      -0.410106       -11.1596
 153   2.0000      -0.407996       -11.1021
 154   2.0000      -0.405808       -11.0426
 155   2.0000      -0.405306       -11.0289
 156   2.0000      -0.400258       -10.8916
 157   2.0000      -0.397911       -10.8277
 158   2.0000      -0.395885       -10.7726
 159   2.0000      -0.379825       -10.3356
 160   2.0000      -0.328649        -8.9430
 161   2.0000      -0.326499        -8.8845
 162   2.0000      -0.325974        -8.8702
 163   2.0000      -0.325453        -8.8560
 164   2.0000      -0.322788        -8.7835
 165   2.0000      -0.318430        -8.6649
 166   0.0000       0.067147         1.8272
 167   0.0000       0.068495         1.8638
 168   0.0000       0.072642         1.9767
 169   0.0000       0.075316         2.0495
 170   0.0000       0.080084         2.1792

MULLIKEN ATOMIC CHARGES
-----------------------
   0 C :    0.176004
   1 C :   -0.094632
   2 C :   -0.214041
   3 C :    0.173334
   4 H :    0.154018
   5 C :   -0.211181
   6 C :    0.192806
   7 H :    0.163135
   8 C :   -0.224639
   9 C :   -0.082320
  10 H :    0.162834
  11 C :   -0.114785
  12 H :    0.094307
  13 H :    0.103799
  14 H :    0.094699
  15 C :    0.149820
  16 C :   -0.087479
  17 C :   -0.166165
  18 C :    0.160944
  19 H :    0.179094
  20 C :   -0.223102
  21 C :    0.149384
  22 H :    0.136426
  23 C :   -0.199537
  24 C :   -0.066865
  25 H :    0.158994
  26 C :   -0.107045
  27 H :    0.082428
  28 H :    0.091646
  29 H :    0.093095
  30 C :    0.192166
  31 C :   -0.081367
  32 C :   -0.223975
  33 C :    0.173986
  34 H :    0.161505
  35 C :   -0.207498
  36 C :    0.168092
  37 H :    0.159738
  38 C :   -0.217359
  39 C :   -0.093615
  40 H :    0.157136
  41 C :   -0.099663
  42 H :    0.100885
  43 H :    0.102918
  44 C :   -0.036148
  45 C :   -0.041157
  46 N :   -0.261657
  47 N :   -0.261057
  48 C :   -0.050734
  49 C :   -0.040845
  50 N :   -0.366756
  51 N :   -0.248984
  52 C :   -0.048490
  53 C :   -0.062709
  54 N :   -0.240865
  55 N :   -0.242466
  56 C :   -0.037329
  57 C :   -0.040855
  58 N :   -0.262677
  59 N :   -0.256095
  60 C :   -0.040768
  61 C :   -0.040294
  62 N :   -0.242905
  63 N :   -0.255176
  64 H :    0.150093
  65 H :    0.128298
  66 H :    0.087407
  67 H :    0.084068
  68 H :    0.090442
  69 H :    0.085859
  70 H :    0.054399
  71 H :    0.061060
  72 H :    0.101028
  73 H :    0.068992
  74 H :    0.107066
  75 H :    0.108548
  76 H :    0.064809
  77 H :    0.067351
  78 H :    0.104602
  79 H :    0.106187
  80 H :    0.083017
  81 H :    0.068111
  82 H :    0.108625
  83 H :    0.100717
  84 H :    0.064242
  85 H :    0.112621
  86 H :    0.052502
Sum of atomic charges:   -0.0000000

LOEWDIN ATOMIC CHARGES
----------------------
   0 C :   -0.074494
   1 C :   -0.071252
   2 C :    0.088921
   3 C :   -0.076705
   4 H :   -0.018718
   5 C :    0.095066
   6 C :   -0.073940
   7 H :   -0.017273
   8 C :    0.092175
   9 C :   -0.066711
  10 H :   -0.022578
  11 C :   -0.077380
  12 H :   -0.032995
  13 H :   -0.034802
  14 H :   -0.034538
  15 C :   -0.075861
  16 C :   -0.074684
  17 C :    0.114459
  18 C :   -0.077121
  19 H :   -0.017392
  20 C :    0.072168
  21 C :   -0.077151
  22 H :   -0.021747
  23 C :    0.094330
  24 C :   -0.074581
  25 H :   -0.017664
  26 C :   -0.073002
  27 H :   -0.036988
  28 H :   -0.035205
  29 H :   -0.036321
  30 C :   -0.075815
  31 C :   -0.068403
  32 C :    0.091462
  33 C :   -0.073133
  34 H :   -0.022755
  35 C :    0.094907
  36 C :   -0.074757
  37 H :   -0.016456
  38 C :    0.090097
  39 C :   -0.068289
  40 H :   -0.020850
  41 C :   -0.073112
  42 H :   -0.032346
  43 H :   -0.035227
  44 C :   -0.035576
  45 C :   -0.039130
  46 N :    0.216977
  47 N :    0.201331
  48 C :   -0.027304
  49 C :   -0.047590
  50 N :    0.324645
  51 N :    0.218377
  52 C :   -0.035580
  53 C :   -0.043887
  54 N :    0.214562
  55 N :    0.218309
  56 C :   -0.035073
  57 C :   -0.038399
  58 N :    0.216507
  59 N :    0.203938
  60 C :   -0.041554
  61 C :   -0.038771
  62 N :    0.215338
  63 N :    0.213347
  64 H :   -0.108551
  65 H :   -0.111087
  66 H :   -0.034837
  67 H :   -0.032305
  68 H :   -0.030380
  69 H :   -0.033546
  70 H :   -0.038668
  71 H :   -0.039210
  72 H :   -0.027537
  73 H :   -0.036556
  74 H :   -0.029974
  75 H :   -0.027464
  76 H :   -0.037420
  77 H :   -0.036508
  78 H :   -0.026755
  79 H :   -0.028389
  80 H :   -0.034073
  81 H :   -0.036883
  82 H :   -0.029390
  83 H :   -0.027685
  84 H :   -0.038119
  85 H :   -0.026058
  86 H :   -0.042407

  Mayer bond orders larger than 0.100000
B(  0-C ,  1-C ) :   0.9914 B(  0-C ,  2-C ) :   1.3047 B(  0-C ,  8-C ) :   1.3774
B(  1-C , 13-H ) :   0.9887 B(  1-C , 47-N ) :   1.9694 B(  2-C ,  3-C ) :   1.3843
B(  2-C ,  4-H ) :   0.9648 B(  3-C ,  5-C ) :   1.3022 B(  3-C , 11-C ) :   0.9905
B(  5-C ,  6-C ) :   1.3878 B(  5-C ,  7-H ) :   0.9632 B(  6-C ,  8-C ) :   1.2945
B(  6-C ,  9-C ) :   0.9783 B(  8-C , 10-H ) :   0.9614 B(  9-C , 12-H ) :   0.9889
B(  9-C , 58-N ) :   1.9867 B( 11-C , 14-H ) :   0.9887 B( 11-C , 54-N ) :   1.9825
B( 15-C , 16-C ) :   0.9947 B( 15-C , 17-C ) :   1.3104 B( 15-C , 23-C ) :   1.3544
B( 16-C , 28-H ) :   0.9912 B( 16-C , 51-N ) :   2.0154 B( 17-C , 18-C ) :   1.3474
B( 17-C , 19-H ) :   0.9498 B( 18-C , 20-C ) :   1.3437 B( 18-C , 26-C ) :   0.9882
B( 20-C , 21-C ) :   1.3761 B( 20-C , 22-H ) :   0.9786 B( 21-C , 23-C ) :   1.3388
B( 21-C , 24-C ) :   1.0050 B( 23-C , 25-H ) :   0.9641 B( 24-C , 27-H ) :   0.9869
B( 24-C , 55-N ) :   1.9770 B( 26-C , 29-H ) :   0.9930 B( 26-C , 62-N ) :   1.9862
B( 30-C , 31-C ) :   0.9795 B( 30-C , 32-C ) :   1.2957 B( 30-C , 38-C ) :   1.3894
B( 31-C , 46-N ) :   1.9884 B( 31-C , 66-H ) :   0.9895 B( 32-C , 33-C ) :   1.3785
B( 32-C , 34-H ) :   0.9623 B( 33-C , 35-C ) :   1.3042 B( 33-C , 41-C ) :   0.9893
B( 35-C , 36-C ) :   1.3896 B( 35-C , 37-H ) :   0.9628 B( 36-C , 38-C ) :   1.2996
B( 36-C , 39-C ) :   0.9885 B( 38-C , 40-H ) :   0.9633 B( 39-C , 42-H ) :   0.9905
B( 39-C , 63-N ) :   1.9830 B( 41-C , 43-H ) :   0.9901 B( 41-C , 59-N ) :   1.9729
B( 44-C , 45-C ) :   0.9376 B( 44-C , 46-N ) :   0.9693 B( 44-C , 71-H ) :   0.9739
B( 44-C , 72-H ) :   0.9773 B( 45-C , 47-N ) :   0.9672 B( 45-C , 73-H ) :   0.9780
B( 45-C , 74-H ) :   0.9885 B( 48-C , 49-C ) :   0.9573 B( 48-C , 50-N ) :   1.0056
B( 48-C , 67-H ) :   0.9813 B( 48-C , 68-H ) :   0.9880 B( 49-C , 51-N ) :   0.9545
B( 49-C , 69-H ) :   0.9714 B( 49-C , 70-H ) :   0.9758 B( 50-N , 64-H ) :   0.9934
B( 50-N , 65-H ) :   1.0006 B( 52-C , 53-C ) :   0.9413 B( 52-C , 54-N ) :   0.9610
B( 52-C , 79-H ) :   0.9837 B( 52-C , 80-H ) :   0.9821 B( 53-C , 55-N ) :   0.9789
B( 53-C , 85-H ) :   0.9805 B( 53-C , 86-H ) :   0.9732 B( 56-C , 57-C ) :   0.9361
B( 56-C , 58-N ) :   0.9687 B( 56-C , 83-H ) :   0.9784 B( 56-C , 84-H ) :   0.9738
B( 57-C , 59-N ) :   0.9665 B( 57-C , 81-H ) :   0.9777 B( 57-C , 82-H ) :   0.9881
B( 60-C , 61-C ) :   0.9360 B( 60-C , 62-N ) :   0.9659 B( 60-C , 75-H ) :   0.9848
B( 60-C , 76-H ) :   0.9745 B( 61-C , 63-N ) :   0.9680 B( 61-C , 77-H ) :   0.9725
B( 61-C , 78-H ) :   0.9803

MP2 TOTAL ENERGY:    -1977.349988850 Eh
FINAL SINGLE POINT ENERGY     -1977.349988850369

DIPOLE MOMENT
-------------
                                X             Y             Z
Electronic contribution:    -14.58654       4.02501       4.27136
Nuclear contribution   :     13.71145      -4.43342      -3.31606
                        -----------------------------------------
Total Dipole Moment    :     -0.87509      -0.40841       0.95530
                        -----------------------------------------
Magnitude (a.u.)       :      1.35838
Magnitude (Debye)      :      3.45272

Rotational constants in cm-1:     0.002211     0.001460     0.001278
Rotational constants in MHz :    66.281087    43.767108    38.301829

                             ****ORCA TERMINATED NORMALLY****
TOTAL RUN TIME: 0 days 1 hours 6 minutes 53 seconds 744 msec
