                         Program Version 4.2.1 -  RELEASE  -
|  1> ! RI-MP2 cc-pVTZ cc-pVTZ/C TIGHTSCF printbasis Grid6 NOFINALGRID SlowConv
|  2>
|  3> %base "_o_3_alde1_4_ami3_1_opt_MP2"
|  4> %maxcore 3000
|  5> %pal
|  6>    nprocs 32
|  7> end
|  8>
|  9> * xyzfile 0 1 _o_3_alde1_4_ami3_1_opt_B97-3c.xyz
| 10>
| 11>                          ****END OF INPUT****

CARTESIAN COORDINATES (ANGSTROEM)
---------------------------------
  C     -5.377708   -1.484700   -0.499506
  C     -5.596700   -1.023458    0.867342
  C     -4.733789   -2.688975   -0.799286
  C     -4.438496   -3.020561   -2.114641
  H     -4.448146   -3.342753    0.014341
  C     -4.753558   -2.120087   -3.140398
  C     -5.377983   -0.914990   -2.856205
  H     -4.466729   -2.373491   -4.152442
  C     -5.715638   -0.624171   -1.530733
  C     -5.518846    0.117550   -3.883884
  H     -6.187028    0.325677   -1.319340
  C     -3.749319   -4.277275   -2.400045
  H     -5.085004   -0.128818   -4.862373
  H     -6.189578   -0.103366    0.948463
  H     -3.468662   -4.872273   -1.520048
  C      1.991143   -2.392243   -1.300510
  C      2.584634   -2.896482   -0.050736
  C      2.291227   -1.112916   -1.762935
  C      1.714475   -0.641708   -2.936072
  H      2.972636   -0.484962   -1.207760
  C      0.829128   -1.467063   -3.633737
  C      0.537209   -2.756836   -3.195547
  H      0.372050   -1.100601   -4.546486
  C      1.124759   -3.210269   -2.015632
  C     -0.345034   -3.617626   -3.984491
  H      0.892850   -4.209265   -1.670092
  C      2.015695    0.699470   -3.442980
  H     -0.761782   -3.166697   -4.895538
  H      2.295582   -3.937766    0.203235
  H      1.368662    1.060797   -4.254288
  C     -2.141221    1.672106    0.642173
  C     -2.490426    0.909732    1.841873
  C     -3.110456    1.998674   -0.305876
  C     -2.752955    2.582964   -1.518518
  H     -4.136498    1.717615   -0.113006
  C     -1.422143    2.915466   -1.752409
  C     -0.445916    2.636804   -0.801909
  H     -1.137478    3.355617   -2.695916
  C     -0.810076    1.985409    0.377571
  C      0.960659    2.944312   -1.058086
  H     -0.043314    1.714361    1.094839
  C     -3.766675    2.679246   -2.573988
  H      1.674889    2.576677   -0.308594
  H     -4.794803    2.511620   -2.242061
  C     -3.923324   -0.066161    3.404930
  C     -5.226135   -0.843595    3.135897
  N     -3.674916    0.818560    2.288090
  N     -5.080128   -1.566458    1.892909
  O      3.328277   -2.267255    0.673587
  C     -2.767741   -5.903990   -3.757272
  C     -1.453197   -5.612458   -4.499722
  N     -3.477118   -4.660500   -3.579058
  N     -0.598662   -4.815548   -3.652757
  C     -5.885738    2.373182   -4.513690
  C     -4.417909    2.713401   -4.863261
  N     -5.999627    1.257411   -3.593797
  N     -3.448696    2.814100   -3.796287
  C      3.145211    2.745104   -3.464992
  C      2.752445    3.724617   -2.336948
  N      2.958484    1.403887   -2.970261
  N      1.340735    3.568619   -2.095756
  H     -1.653051    0.373904    2.313275
  C      4.597759    2.947571   -3.880522
  C     -0.727937   -6.906800   -4.855526
  C     -5.540183   -1.775717    4.294104
  C     -4.373714    3.979474   -5.715655
  H     -4.044426    1.894695   -5.492161
  C     -5.205021    3.837423   -6.980793
  H     -3.334608    4.203584   -5.951896
  H     -4.742938    4.813554   -5.113110
  C     -6.639160    3.437215   -6.667867
  H     -4.750908    3.076776   -7.622672
  H     -5.185166    4.769258   -7.547856
  C     -6.688166    2.188683   -5.801140
  H     -7.138683    4.256709   -6.143477
  H     -7.200728    3.275394   -7.589498
  H     -6.284683    1.338061   -6.356775
  H     -7.716305    1.933738   -5.542466
  H     -6.303482    3.238491   -3.990103
  H     -1.721630   -5.079445   -5.423363
  C     -1.607592   -7.859322   -5.647670
  H     -0.400976   -7.382609   -3.928752
  H      0.177247   -6.657830   -5.410656
  C     -2.895962   -8.155779   -4.897145
  H     -1.062241   -8.781958   -5.852564
  H     -1.847034   -7.418505   -6.619549
  C     -3.635653   -6.872440   -4.556693
  H     -2.658949   -8.696420   -3.976438
  H     -3.541224   -8.812303   -5.482939
  H     -4.538573   -7.084702   -3.982654
  H     -3.960517   -6.370390   -5.470396
  H     -2.505842   -6.367141   -2.794427
  H     -6.022254   -0.088115    3.060180
  C     -5.649409   -1.007167    5.602463
  H     -4.756287   -2.533388    4.359282
  H     -6.468189   -2.307607    4.080446
  C     -4.394480   -0.190103    5.874909
  H     -6.511841   -0.336080    5.554927
  H     -5.841295   -1.695296    6.427378
  C     -4.052494    0.721473    4.705247
  H     -3.556342   -0.867884    6.059242
  H     -4.516920    0.402656    6.782908
  H     -3.116718    1.251146    4.889897
  H     -4.823220    1.484622    4.578126
  H     -3.113102   -0.799816    3.519542
  H      2.488114    2.961197   -4.319949
  C      4.879394    4.387959   -4.275700
  H      4.823746    2.268281   -4.703757
  H      5.239851    2.650708   -3.049107
  C      4.507470    5.345251   -3.154159
  H      4.304166    4.640722   -5.171158
  H      5.931397    4.500068   -4.542804
  C      3.057018    5.162250   -2.738896
  H      4.678758    6.378533   -3.460206
  H      5.160179    5.165198   -2.295284
  H      2.805492    5.818656   -1.904763
  H      2.391319    5.436965   -3.559578
  H      3.353820    3.453799   -1.456984

 Total Charge           Charge          ....    0
 Multiplicity           Mult            ....    1
 Number of Electrons    NEL             ....  428
 Basis Dimension        Dim             .... 2612

ORBITAL ENERGIES
----------------

  NO   OCC          E(Eh)            E(eV)
   0   2.0000     -20.552646      -559.2659
   1   2.0000     -15.557996      -423.3546
   2   2.0000     -15.554877      -423.2697
   3   2.0000     -15.554465      -423.2585
   4   2.0000     -15.553462      -423.2312
   5   2.0000     -15.551514      -423.1782
   6   2.0000     -15.548773      -423.1036
   7   2.0000     -15.547926      -423.0806
   8   2.0000     -15.546815      -423.0503
   9   2.0000     -11.332715      -308.3789
  10   2.0000     -11.286429      -307.1193
  11   2.0000     -11.285714      -307.0999
  12   2.0000     -11.282361      -307.0086
  13   2.0000     -11.281638      -306.9890
  14   2.0000     -11.279553      -306.9322
  15   2.0000     -11.275943      -306.8340
  16   2.0000     -11.275817      -306.8306
  17   2.0000     -11.271627      -306.7166
  18   2.0000     -11.263656      -306.4997
  19   2.0000     -11.259302      -306.3812
  20   2.0000     -11.256237      -306.2978
  21   2.0000     -11.255638      -306.2815
  22   2.0000     -11.254890      -306.2611
  23   2.0000     -11.254467      -306.2496
  24   2.0000     -11.254207      -306.2425
  25   2.0000     -11.254142      -306.2408
  26   2.0000     -11.252619      -306.1993
  27   2.0000     -11.250567      -306.1435
  28   2.0000     -11.250291      -306.1360
  29   2.0000     -11.250011      -306.1284
  30   2.0000     -11.249741      -306.1210
  31   2.0000     -11.249215      -306.1067
  32   2.0000     -11.248620      -306.0905
  33   2.0000     -11.248078      -306.0758
  34   2.0000     -11.247912      -306.0712
  35   2.0000     -11.247624      -306.0634
  36   2.0000     -11.247327      -306.0553
  37   2.0000     -11.246442      -306.0312
  38   2.0000     -11.245089      -305.9944
  39   2.0000     -11.244103      -305.9676
  40   2.0000     -11.242911      -305.9352
  41   2.0000     -11.241417      -305.8945
  42   2.0000     -11.239892      -305.8530
  43   2.0000     -11.236361      -305.7569
  44   2.0000     -11.223600      -305.4097
  45   2.0000     -11.220921      -305.3368
  46   2.0000     -11.219219      -305.2905
  47   2.0000     -11.218881      -305.2813
  48   2.0000     -11.218296      -305.2653
  49   2.0000     -11.217389      -305.2407
  50   2.0000     -11.217163      -305.2345
  51   2.0000     -11.216423      -305.2144
  52   2.0000     -11.216234      -305.2092
  53   2.0000     -11.215706      -305.1949
  54   2.0000     -11.215289      -305.1835
  55   2.0000     -11.213762      -305.1420
  56   2.0000     -11.212816      -305.1162
  57   2.0000     -11.212058      -305.0956
  58   2.0000     -11.211975      -305.0934
  59   2.0000     -11.210298      -305.0477
  60   2.0000      -1.387282       -37.7499
  61   2.0000      -1.258810       -34.2540
  62   2.0000      -1.255473       -34.1632
  63   2.0000      -1.254761       -34.1438
  64   2.0000      -1.252720       -34.0882
  65   2.0000      -1.232168       -33.5290
  66   2.0000      -1.227072       -33.3903
  67   2.0000      -1.223055       -33.2810
  68   2.0000      -1.220359       -33.2077
  69   2.0000      -1.179123       -32.0856
  70   2.0000      -1.170721       -31.8569
  71   2.0000      -1.162134       -31.6233
  72   2.0000      -1.117729       -30.4149
  73   2.0000      -1.116516       -30.3819
  74   2.0000      -1.112616       -30.2758
  75   2.0000      -1.107340       -30.1323
  76   2.0000      -1.065501       -28.9938
  77   2.0000      -1.060057       -28.8456
  78   2.0000      -1.057687       -28.7811
  79   2.0000      -1.056580       -28.7510
  80   2.0000      -1.054017       -28.6812
  81   2.0000      -1.050057       -28.5735
  82   2.0000      -1.009648       -27.4739
  83   2.0000      -1.007421       -27.4133
  84   2.0000      -1.003024       -27.2937
  85   2.0000      -1.002523       -27.2800
  86   2.0000      -1.000187       -27.2165
  87   2.0000      -0.992107       -26.9966
  88   2.0000      -0.990022       -26.9399
  89   2.0000      -0.985476       -26.8162
  90   2.0000      -0.908297       -24.7160
  91   2.0000      -0.907454       -24.6931
  92   2.0000      -0.897878       -24.4325
  93   2.0000      -0.894308       -24.3353
  94   2.0000      -0.893857       -24.3231
  95   2.0000      -0.883499       -24.0412
  96   2.0000      -0.876423       -23.8487
  97   2.0000      -0.873055       -23.7570
  98   2.0000      -0.861613       -23.4457
  99   2.0000      -0.835599       -22.7378
 100   2.0000      -0.833898       -22.6915
 101   2.0000      -0.831533       -22.6272
 102   2.0000      -0.826140       -22.4804
 103   2.0000      -0.823645       -22.4125
 104   2.0000      -0.811125       -22.0718
 105   2.0000      -0.802656       -21.8414
 106   2.0000      -0.795551       -21.6480
 107   2.0000      -0.782303       -21.2875
 108   2.0000      -0.780540       -21.2396
 109   2.0000      -0.768461       -20.9109
 110   2.0000      -0.766263       -20.8511
 111   2.0000      -0.762972       -20.7615
 112   2.0000      -0.754087       -20.5198
 113   2.0000      -0.750683       -20.4271
 114   2.0000      -0.746713       -20.3191
 115   2.0000      -0.741944       -20.1893
 116   2.0000      -0.729910       -19.8619
 117   2.0000      -0.709680       -19.3114
 118   2.0000      -0.705666       -19.2022
 119   2.0000      -0.696049       -18.9405
 120   2.0000      -0.695418       -18.9233
 121   2.0000      -0.693976       -18.8840
 122   2.0000      -0.685375       -18.6500
 123   2.0000      -0.673778       -18.3344
 124   2.0000      -0.671560       -18.2741
 125   2.0000      -0.666475       -18.1357
 126   2.0000      -0.664534       -18.0829
 127   2.0000      -0.661521       -18.0009
 128   2.0000      -0.656855       -17.8739
 129   2.0000      -0.650558       -17.7026
 130   2.0000      -0.645948       -17.5771
 131   2.0000      -0.641526       -17.4568
 132   2.0000      -0.630534       -17.1577
 133   2.0000      -0.628586       -17.1047
 134   2.0000      -0.627035       -17.0625
 135   2.0000      -0.625992       -17.0341
 136   2.0000      -0.623458       -16.9651
 137   2.0000      -0.622743       -16.9457
 138   2.0000      -0.619166       -16.8484
 139   2.0000      -0.611461       -16.6387
 140   2.0000      -0.610214       -16.6048
 141   2.0000      -0.605980       -16.4896
 142   2.0000      -0.601884       -16.3781
 143   2.0000      -0.598391       -16.2830
 144   2.0000      -0.596518       -16.2321
 145   2.0000      -0.594351       -16.1731
 146   2.0000      -0.591467       -16.0946
 147   2.0000      -0.590463       -16.0673
 148   2.0000      -0.586101       -15.9486
 149   2.0000      -0.582930       -15.8623
 150   2.0000      -0.581839       -15.8327
 151   2.0000      -0.576453       -15.6861
 152   2.0000      -0.570584       -15.5264
 153   2.0000      -0.563996       -15.3471
 154   2.0000      -0.562587       -15.3088
 155   2.0000      -0.560523       -15.2526
 156   2.0000      -0.555542       -15.1171
 157   2.0000      -0.554055       -15.0766
 158   2.0000      -0.552724       -15.0404
 159   2.0000      -0.540753       -14.7146
 160   2.0000      -0.538627       -14.6568
 161   2.0000      -0.537538       -14.6271
 162   2.0000      -0.537402       -14.6234
 163   2.0000      -0.534589       -14.5469
 164   2.0000      -0.533352       -14.5132
 165   2.0000      -0.524677       -14.2772
 166   2.0000      -0.523080       -14.2337
 167   2.0000      -0.521325       -14.1860
 168   2.0000      -0.518430       -14.1072
 169   2.0000      -0.513379       -13.9697
 170   2.0000      -0.511011       -13.9053
 171   2.0000      -0.505032       -13.7426
 172   2.0000      -0.498608       -13.5678
 173   2.0000      -0.494729       -13.4623
 174   2.0000      -0.492875       -13.4118
 175   2.0000      -0.490906       -13.3582
 176   2.0000      -0.489427       -13.3180
 177   2.0000      -0.487876       -13.2758
 178   2.0000      -0.487032       -13.2528
 179   2.0000      -0.479098       -13.0369
 180   2.0000      -0.476825       -12.9751
 181   2.0000      -0.473618       -12.8878
 182   2.0000      -0.472203       -12.8493
 183   2.0000      -0.470948       -12.8151
 184   2.0000      -0.468311       -12.7434
 185   2.0000      -0.465941       -12.6789
 186   2.0000      -0.463684       -12.6175
 187   2.0000      -0.462785       -12.5930
 188   2.0000      -0.458889       -12.4870
 189   2.0000      -0.456533       -12.4229
 190   2.0000      -0.454496       -12.3675
 191   2.0000      -0.447829       -12.1861
 192   2.0000      -0.437967       -11.9177
 193   2.0000      -0.437252       -11.8982
 194   2.0000      -0.431992       -11.7551
 195   2.0000      -0.429436       -11.6855
 196   2.0000      -0.428571       -11.6620
 197   2.0000      -0.413639       -11.2557
 198   2.0000      -0.411619       -11.2007
 199   2.0000      -0.410260       -11.1637
 200   2.0000      -0.408381       -11.1126
 201   2.0000      -0.407912       -11.0998
 202   2.0000      -0.405684       -11.0392
 203   2.0000      -0.400706       -10.9038
 204   2.0000      -0.399479       -10.8704
 205   2.0000      -0.391286       -10.6474
 206   2.0000      -0.388371       -10.5681
 207   2.0000      -0.378755       -10.3064
 208   2.0000      -0.347812        -9.4644
 209   2.0000      -0.326232        -8.8772
 210   2.0000      -0.325030        -8.8445
 211   2.0000      -0.322864        -8.7856
 212   2.0000      -0.319239        -8.6869
 213   2.0000      -0.315506        -8.5854
 214   0.0000       0.060724         1.6524
 215   0.0000       0.068963         1.8766
 216   0.0000       0.069476         1.8905
 217   0.0000       0.074788         2.0351
 218   0.0000       0.077343         2.1046

MULLIKEN ATOMIC CHARGES
-----------------------
   0 C :    0.179591
   1 C :   -0.093780
   2 C :   -0.213631
   3 C :    0.170723
   4 H :    0.155911
   5 C :   -0.206702
   6 C :    0.182819
   7 H :    0.153201
   8 C :   -0.240890
   9 C :   -0.070918
  10 H :    0.172407
  11 C :   -0.097383
  12 H :    0.106186
  13 H :    0.097904
  14 H :    0.093267
  15 C :    0.077651
  16 C :    0.173361
  17 C :   -0.181271
  18 C :    0.195508
  19 H :    0.192465
  20 C :   -0.209502
  21 C :    0.168270
  22 H :    0.141416
  23 C :   -0.195770
  24 C :   -0.106253
  25 H :    0.164790
  26 C :   -0.134946
  27 H :    0.092624
  28 H :    0.089807
  29 H :    0.099840
  30 C :    0.198324
  31 C :   -0.106044
  32 C :   -0.204069
  33 C :    0.153741
  34 H :    0.155346
  35 C :   -0.178834
  36 C :    0.186700
  37 H :    0.174095
  38 C :   -0.246287
  39 C :   -0.135905
  40 H :    0.140890
  41 C :   -0.102692
  42 H :    0.103592
  43 H :    0.132647
  44 C :    0.083636
  45 C :    0.101429
  46 N :   -0.290258
  47 N :   -0.290354
  48 O :   -0.362821
  49 C :    0.080210
  50 C :    0.081119
  51 N :   -0.284861
  52 N :   -0.278342
  53 C :    0.020702
  54 C :    0.042330
  55 N :   -0.313524
  56 N :   -0.265479
  57 C :    0.081337
  58 C :    0.081022
  59 N :   -0.268103
  60 N :   -0.271651
  61 H :    0.089271
  62 C :   -0.201378
  63 C :   -0.199879
  64 C :   -0.204683
  65 C :   -0.194504
  66 H :    0.105431
  67 C :   -0.206884
  68 H :    0.121614
  69 H :    0.092182
  70 C :   -0.202794
  71 H :    0.087789
  72 H :    0.114896
  73 C :   -0.212250
  74 H :    0.093670
  75 H :    0.113051
  76 H :    0.089546
  77 H :    0.121656
  78 H :    0.115821
  79 H :    0.079548
  80 C :   -0.204451
  81 H :    0.097806
  82 H :    0.109051
  83 C :   -0.205183
  84 H :    0.113878
  85 H :    0.088289
  86 C :   -0.200380
  87 H :    0.088842
  88 H :    0.114137
  89 H :    0.109203
  90 H :    0.098086
  91 H :    0.081468
  92 H :    0.075511
  93 C :   -0.205526
  94 H :    0.095480
  95 H :    0.108670
  96 C :   -0.205984
  97 H :    0.088623
  98 H :    0.112228
  99 C :   -0.202589
 100 H :    0.089676
 101 H :    0.112907
 102 H :    0.107252
 103 H :    0.100435
 104 H :    0.082255
 105 H :    0.082392
 106 C :   -0.204861
 107 H :    0.107040
 108 H :    0.101504
 109 C :   -0.204653
 110 H :    0.086900
 111 H :    0.112736
 112 C :   -0.201358
 113 H :    0.112372
 114 H :    0.088446
 115 H :    0.109139
 116 H :    0.098722
 117 H :    0.085245
Sum of atomic charges:   -0.0000000

LOEWDIN ATOMIC CHARGES
----------------------
   0 C :   -0.073836
   1 C :   -0.070306
   2 C :    0.094228
   3 C :   -0.074950
   4 H :   -0.017665
   5 C :    0.090752
   6 C :   -0.076527
   7 H :   -0.021663
   8 C :    0.090882
   9 C :   -0.063399
  10 H :   -0.023072
  11 C :   -0.066961
  12 H :   -0.034836
  13 H :   -0.034193
  14 H :   -0.033274
  15 C :   -0.094236
  16 C :   -0.148891
  17 C :    0.118349
  18 C :   -0.071823
  19 H :   -0.011493
  20 C :    0.085251
  21 C :   -0.075279
  22 H :   -0.017915
  23 C :    0.098999
  24 C :   -0.068721
  25 H :   -0.017226
  26 C :   -0.068047
  27 H :   -0.035100
  28 H :   -0.035258
  29 H :   -0.034358
  30 C :   -0.075146
  31 C :   -0.068028
  32 C :    0.090695
  33 C :   -0.072365
  34 H :   -0.022021
  35 C :    0.109590
  36 C :   -0.077066
  37 H :   -0.018247
  38 C :    0.070815
  39 C :   -0.067038
  40 H :   -0.020827
  41 C :   -0.064655
  42 H :   -0.034599
  43 H :   -0.042003
  44 C :   -0.106690
  45 C :   -0.113200
  46 N :    0.231522
  47 N :    0.222876
  48 O :    0.139373
  49 C :   -0.110012
  50 C :   -0.110124
  51 N :    0.230162
  52 N :    0.234364
  53 C :   -0.109727
  54 C :   -0.115439
  55 N :    0.225673
  56 N :    0.225856
  57 C :   -0.108091
  58 C :   -0.109952
  59 N :    0.238420
  60 N :    0.232680
  61 H :   -0.034335
  62 C :    0.060699
  63 C :    0.060248
  64 C :    0.060337
  65 C :    0.063648
  66 H :   -0.025309
  67 C :    0.057891
  68 H :   -0.021814
  69 H :   -0.025377
  70 C :    0.059460
  71 H :   -0.026474
  72 H :   -0.024892
  73 C :    0.062766
  74 H :   -0.024367
  75 H :   -0.025018
  76 H :   -0.028509
  77 H :   -0.022427
  78 H :   -0.024503
  79 H :   -0.031873
  80 C :    0.057855
  81 H :   -0.023538
  82 H :   -0.025452
  83 C :    0.058011
  84 H :   -0.024999
  85 H :   -0.026310
  86 C :    0.061434
  87 H :   -0.025770
  88 H :   -0.025259
  89 H :   -0.025154
  90 H :   -0.023855
  91 H :   -0.031712
  92 H :   -0.030020
  93 C :    0.058687
  94 H :   -0.024429
  95 H :   -0.024933
  96 C :    0.059138
  97 H :   -0.026026
  98 H :   -0.025711
  99 C :    0.062237
 100 H :   -0.025986
 101 H :   -0.025490
 102 H :   -0.026406
 103 H :   -0.023958
 104 H :   -0.031633
 105 H :   -0.031485
 106 C :    0.057761
 107 H :   -0.025782
 108 H :   -0.022741
 109 C :    0.057793
 110 H :   -0.026372
 111 H :   -0.025631
 112 C :    0.060216
 113 H :   -0.025698
 114 H :   -0.025983
 115 H :   -0.024872
 116 H :   -0.023294
 117 H :   -0.031010

  Mayer bond orders larger than 0.100000
B(  0-C ,  1-C ) :   1.0035 B(  0-C ,  2-C ) :   1.2934 B(  0-C ,  8-C ) :   1.3834
B(  1-C , 13-H ) :   0.9877 B(  1-C , 47-N ) :   1.9720 B(  2-C ,  3-C ) :   1.3922
B(  2-C ,  4-H ) :   0.9642 B(  3-C ,  5-C ) :   1.2954 B(  3-C , 11-C ) :   1.0023
B(  5-C ,  6-C ) :   1.3956 B(  5-C ,  7-H ) :   0.9640 B(  6-C ,  8-C ) :   1.2781
B(  6-C ,  9-C ) :   1.0319 B(  8-C , 10-H ) :   0.9562 B(  9-C , 12-H ) :   0.9699
B(  9-C , 55-N ) :   1.9319 B( 11-C , 14-H ) :   0.9896 B( 11-C , 51-N ) :   1.9659
B( 15-C , 16-C ) :   0.9324 B( 15-C , 17-C ) :   1.2939 B( 15-C , 23-C ) :   1.3384
B( 16-C , 28-H ) :   1.0209 B( 16-C , 48-O ) :   2.0906 B( 17-C , 18-C ) :   1.3283
B( 17-C , 19-H ) :   0.9490 B( 18-C , 20-C ) :   1.3448 B( 18-C , 26-C ) :   0.9856
B( 20-C , 21-C ) :   1.3745 B( 20-C , 22-H ) :   0.9781 B( 21-C , 23-C ) :   1.3177
B( 21-C , 24-C ) :   0.9966 B( 23-C , 25-H ) :   0.9600 B( 24-C , 27-H ) :   0.9919
B( 24-C , 52-N ) :   1.9701 B( 26-C , 29-H ) :   0.9933 B( 26-C , 59-N ) :   1.9789
B( 30-C , 31-C ) :   0.9783 B( 30-C , 32-C ) :   1.3422 B( 30-C , 38-C ) :   1.3625
B( 31-C , 46-N ) :   1.9803 B( 31-C , 61-H ) :   0.9834 B( 32-C , 33-C ) :   1.3429
B( 32-C , 34-H ) :   0.9646 B( 33-C , 35-C ) :   1.3210 B( 33-C , 41-C ) :   1.0071
B( 35-C , 36-C ) :   1.3323 B( 35-C , 37-H ) :   0.9494 B( 36-C , 38-C ) :   1.3427
B( 36-C , 39-C ) :   0.9911 B( 38-C , 40-H ) :   0.9798 B( 39-C , 42-H ) :   0.9939
B( 39-C , 60-N ) :   1.9723 B( 41-C , 43-H ) :   0.9709 B( 41-C , 56-N ) :   1.9495
B( 44-C , 45-C ) :   0.9413 B( 44-C , 46-N ) :   0.9353 B( 44-C , 99-C ) :   0.9477
B( 44-C ,104-H ) :   0.9724 B( 45-C , 47-N ) :   0.9327 B( 45-C , 64-C ) :   0.9543
B( 45-C , 92-H ) :   0.9760 B( 49-C , 50-C ) :   0.9408 B( 49-C , 51-N ) :   0.9419
B( 49-C , 86-C ) :   0.9535 B( 49-C , 91-H ) :   0.9707 B( 50-C , 52-N ) :   0.9380
B( 50-C , 63-C ) :   0.9555 B( 50-C , 79-H ) :   0.9722 B( 53-C , 54-C ) :   0.9398
B( 53-C , 55-N ) :   0.9524 B( 53-C , 73-C ) :   0.9613 B( 53-C , 78-H ) :   0.9820
B( 54-C , 56-N ) :   1.0259 B( 54-C , 65-C ) :   0.9523 B( 54-C , 66-H ) :   0.9700
B( 57-C , 58-C ) :   0.9312 B( 57-C , 59-N ) :   0.9349 B( 57-C , 62-C ) :   0.9539
B( 57-C ,105-H ) :   0.9713 B( 58-C , 60-N ) :   0.9371 B( 58-C ,112-C ) :   0.9558
B( 58-C ,117-H ) :   0.9706 B( 62-C ,106-C ) :   0.9420 B( 62-C ,107-H ) :   0.9917
B( 62-C ,108-H ) :   0.9826 B( 63-C , 80-C ) :   0.9425 B( 63-C , 81-H ) :   0.9832
B( 63-C , 82-H ) :   0.9911 B( 64-C , 93-C ) :   0.9452 B( 64-C , 94-H ) :   0.9843
B( 64-C , 95-H ) :   0.9918 B( 65-C , 67-C ) :   0.9414 B( 65-C , 68-H ) :   0.9887
B( 65-C , 69-H ) :   0.9802 B( 67-C , 70-C ) :   0.9403 B( 67-C , 71-H ) :   0.9851
B( 67-C , 72-H ) :   0.9943 B( 70-C , 73-C ) :   0.9477 B( 70-C , 74-H ) :   0.9856
B( 70-C , 75-H ) :   0.9937 B( 73-C , 76-H ) :   0.9818 B( 73-C , 77-H ) :   0.9904
B( 80-C , 83-C ) :   0.9436 B( 80-C , 84-H ) :   0.9952 B( 80-C , 85-H ) :   0.9849
B( 83-C , 86-C ) :   0.9419 B( 83-C , 87-H ) :   0.9849 B( 83-C , 88-H ) :   0.9949
B( 86-C , 89-H ) :   0.9907 B( 86-C , 90-H ) :   0.9828 B( 93-C , 96-C ) :   0.9444
B( 93-C , 97-H ) :   0.9850 B( 93-C , 98-H ) :   0.9954 B( 96-C , 99-C ) :   0.9417
B( 96-C ,100-H ) :   0.9847 B( 96-C ,101-H ) :   0.9946 B( 99-C ,102-H ) :   0.9912
B( 99-C ,103-H ) :   0.9819 B(106-C ,109-C ) :   0.9436 B(106-C ,110-H ) :   0.9849
B(106-C ,111-H ) :   0.9955 B(109-C ,112-C ) :   0.9423 B(109-C ,113-H ) :   0.9957
B(109-C ,114-H ) :   0.9845 B(112-C ,115-H ) :   0.9913 B(112-C ,116-H ) :   0.9836

MP2 TOTAL ENERGY:    -2486.368928475 Eh
FINAL SINGLE POINT ENERGY     -2486.368928475278

DIPOLE MOMENT
-------------
                                X             Y             Z
Electronic contribution:      6.68181      -5.45292      11.84545
Nuclear contribution   :     -7.66521       5.06202     -12.98468
                        -----------------------------------------
Total Dipole Moment    :     -0.98339      -0.39090      -1.13924
                        -----------------------------------------
Magnitude (a.u.)       :      1.55491
Magnitude (Debye)      :      3.95226

Rotational constants in cm-1:     0.001123     0.000984     0.000883
Rotational constants in MHz :    33.678636    29.507576    26.481501

                             ****ORCA TERMINATED NORMALLY****
TOTAL RUN TIME: 0 days 2 hours 53 minutes 59 seconds 76 msec
