                         Program Version 4.2.1 -  RELEASE  -
|  1> ! RI-MP2 cc-pVTZ cc-pVTZ/C TIGHTSCF printbasis Grid6 NOFINALGRID SlowConv
|  2>
|  3> %base "_o_3_alde1_4_ami1_1_opt_MP2"
|  4> %maxcore 3000
|  5> %pal
|  6>    nprocs 32
|  7> end
|  8>
|  9> * xyzfile 0 1 _o_3_alde1_4_ami1_1_opt_B97-3c.xyz
| 10>
| 11>                          ****END OF INPUT****

CARTESIAN COORDINATES (ANGSTROEM)
---------------------------------
  C     -3.661473   -1.868524   -0.833538
  C     -3.791897   -1.511546    0.577134
  C     -2.957228   -2.999561   -1.253364
  C     -2.754073   -3.248068   -2.604146
  H     -2.557867   -3.670810   -0.504372
  C     -3.224265   -2.329298   -3.548214
  C     -3.938899   -1.209957   -3.148401
  H     -3.020729   -2.510883   -4.595261
  C     -4.178449   -1.003820   -1.786735
  C     -4.346884   -0.212352   -4.136211
  H     -4.731914   -0.125154   -1.486394
  C     -2.018108   -4.444846   -3.000050
  H     -3.848758   -0.288545   -5.113373
  H     -4.498604   -0.698470    0.786711
  H     -1.735671   -5.110112   -2.173054
  C      1.540409   -2.418218    0.147044
  C      0.996045   -2.802904    1.455503
  C      2.342078   -1.281937    0.019146
  C      2.812999   -0.889445   -1.224193
  H      2.576835   -0.708634    0.906746
  C      2.465560   -1.642324   -2.350649
  C      1.700166   -2.793849   -2.234012
  H      2.817286   -1.309790   -3.318611
  C      1.237071   -3.178443   -0.972552
  C      1.359607   -3.561262   -3.431589
  H      0.627808   -4.068179   -0.887449
  C      3.616354    0.324690   -1.332848
  H      1.475068   -3.027680   -4.384836
  H      0.366183   -3.713427    1.446427
  H      3.827123    0.830913   -0.382767
  C     -1.092934    1.540795    0.012589
  C     -1.073010    0.705702    1.214668
  C     -2.303453    1.908875   -0.580323
  C     -2.332033    2.539866   -1.815672
  H     -3.223397    1.638279   -0.081075
  C     -1.126838    2.845654   -2.453158
  C      0.086171    2.551106   -1.846089
  H     -1.158475    3.313956   -3.428220
  C      0.095075    1.881391   -0.617570
  C      1.334294    2.887190   -2.527617
  H      1.046469    1.615369   -0.178421
  C     -3.627815    2.771874   -2.447871
  H      1.243151    3.108658   -3.600806
  H     -4.494290    2.611947   -1.793501
  C     -2.022902   -0.473990    2.995896
  C     -3.210903   -1.453417    2.822376
  N     -2.110139    0.485525    1.911736
  H     -1.096977   -1.050868    2.925799
  C     -2.007476    0.248878    4.356357
  N     -3.094485   -2.036560    1.498854
  H     -4.124714   -0.849642    2.888349
  C     -3.296674   -2.554543    3.886945
  H     -1.981229   -0.536047    5.114805
  C     -3.233356    1.116710    4.602551
  C     -0.726018    1.057972    4.507974
  H     -3.391680   -2.051044    4.851582
  C     -2.068864   -3.452269    3.933726
  C     -4.564289   -3.374535    3.681843
  H     -0.647944    1.466343    5.514918
  H     -0.700885    1.894840    3.811453
  H      0.155214    0.443108    4.327033
  H     -3.153989    1.622331    5.564674
  H     -4.155502    0.538199    4.614720
  H     -3.329531    1.877373    3.830411
  H     -4.531402   -3.913663    2.736192
  H     -5.452544   -2.741909    3.672946
  H     -4.685976   -4.105718    4.480015
  H     -2.186420   -4.214017    4.704010
  H     -1.154573   -2.904064    4.149741
  H     -1.932034   -3.957933    2.980060
  O      1.184510   -2.190853    2.490058
  C     -0.893464   -5.886035   -4.437802
  C      0.564903   -5.408064   -4.615759
  N     -1.701638   -4.707547   -4.201014
  H     -0.903002   -6.540503   -3.556758
  C     -1.454804   -6.685063   -5.622214
  N      0.945024   -4.757411   -3.380378
  H      0.580709   -4.692043   -5.446761
  C      1.559695   -6.532371   -4.955294
  H     -0.837738   -7.581649   -5.713572
  C     -1.405336   -5.930945   -6.943067
  C     -2.873558   -7.143304   -5.309336
  H      1.210689   -6.968645   -5.893183
  C      1.620539   -7.633828   -3.907328
  C      2.943204   -5.952148   -5.216430
  H     -2.917956   -7.686644   -4.364751
  H     -3.248698   -7.803415   -6.090495
  H     -3.549307   -6.292908   -5.235148
  H     -1.947176   -4.990761   -6.868596
  H     -1.862476   -6.523098   -7.735155
  H     -0.386551   -5.705357   -7.253984
  H      3.616597   -6.721015   -5.592284
  H      3.380572   -5.545644   -4.306109
  H      2.908039   -5.151327   -5.955621
  H      1.897145   -7.230461   -2.935657
  H      2.364347   -8.379488   -4.186486
  H      0.668881   -8.149678   -3.793996
  C     -5.393300    1.742063   -4.872646
  C     -5.128276    3.104131   -4.183845
  N     -5.170482    0.716430   -3.876553
  H     -4.675020    1.639348   -5.695830
  C     -6.805982    1.616040   -5.472759
  N     -3.771643    3.071527   -3.673282
  H     -5.842669    3.176796   -3.354301
  C     -5.333209    4.327162   -5.087584
  H     -6.901821    2.427147   -6.197636
  C     -7.921699    1.756743   -4.447031
  C     -6.937875    0.308151   -6.241905
  H     -6.385688    4.326220   -5.380095
  C     -4.484444    4.300129   -6.350774
  C     -5.087691    5.602820   -4.292155
  H     -6.899112   -0.550366   -5.573244
  H     -6.139962    0.195193   -6.976566
  H     -7.887280    0.270467   -6.774582
  H     -7.926622    2.736247   -3.972577
  H     -7.824823    1.008425   -3.663356
  H     -8.892124    1.621399   -4.923788
  H     -4.044500    5.678144   -3.990373
  H     -5.697349    5.632678   -3.388653
  H     -5.330490    6.482577   -4.886550
  H     -4.745590    3.472162   -7.008133
  H     -3.429046    4.208720   -6.102732
  H     -4.619908    5.219866   -6.919146
  C      4.690904    2.071215   -2.415883
  C      3.642870    3.177797   -2.714021
  N      4.018811    0.790819   -2.441844
  H      5.081134    2.272196   -1.410422
  C      5.879129    2.062105   -3.390120
  N      2.456677    2.901174   -1.937831
  H      3.416237    3.145762   -3.786544
  C      4.164218    4.593024   -2.384561
  H      6.275855    3.079370   -3.419399
  C      5.499661    1.661083   -4.809199
  C      6.982114    1.159614   -2.851945
  H      5.164286    4.664290   -2.817038
  C      4.274466    4.867445   -0.890502
  C      3.301249    5.649697   -3.060486
  H      6.644016    0.126081   -2.787153
  H      7.300257    1.468399   -1.855932
  H      7.855866    1.183757   -3.501823
  H      4.748968    2.319564   -5.242683
  H      5.102146    0.649346   -4.831093
  H      6.375136    1.696243   -5.456495
  H      3.701387    6.646396   -2.877915
  H      2.281512    5.633090   -2.677223
  H      3.255823    5.500103   -4.139311
  H      4.709476    5.852010   -0.721945
  H      4.900994    4.139650   -0.378469
  H      3.296523    4.846243   -0.415610
  H     -0.110741    0.229930    1.442414

 Total Charge           Charge          ....    0
 Multiplicity           Mult            ....    1
 Number of Electrons    NEL             ....  500
 Basis Dimension        Dim             .... 3188

ORBITAL ENERGIES
----------------

  NO   OCC          E(Eh)            E(eV)
   0   2.0000     -20.559034      -559.4397
   1   2.0000     -15.558255      -423.3616
   2   2.0000     -15.553071      -423.2206
   3   2.0000     -15.553059      -423.2203
   4   2.0000     -15.551396      -423.1750
   5   2.0000     -15.550740      -423.1572
   6   2.0000     -15.547442      -423.0674
   7   2.0000     -15.546496      -423.0417
   8   2.0000     -15.545897      -423.0254
   9   2.0000     -11.339632      -308.5671
  10   2.0000     -11.286439      -307.1196
  11   2.0000     -11.282576      -307.0145
  12   2.0000     -11.280955      -306.9704
  13   2.0000     -11.280385      -306.9549
  14   2.0000     -11.279854      -306.9404
  15   2.0000     -11.276321      -306.8443
  16   2.0000     -11.274857      -306.8045
  17   2.0000     -11.273871      -306.7776
  18   2.0000     -11.265869      -306.5599
  19   2.0000     -11.262619      -306.4714
  20   2.0000     -11.262156      -306.4588
  21   2.0000     -11.257476      -306.3315
  22   2.0000     -11.256145      -306.2953
  23   2.0000     -11.255569      -306.2796
  24   2.0000     -11.254876      -306.2607
  25   2.0000     -11.254665      -306.2550
  26   2.0000     -11.252813      -306.2046
  27   2.0000     -11.251604      -306.1717
  28   2.0000     -11.251450      -306.1675
  29   2.0000     -11.248698      -306.0926
  30   2.0000     -11.248520      -306.0878
  31   2.0000     -11.248139      -306.0774
  32   2.0000     -11.247561      -306.0617
  33   2.0000     -11.247274      -306.0539
  34   2.0000     -11.246669      -306.0374
  35   2.0000     -11.246394      -306.0299
  36   2.0000     -11.246059      -306.0208
  37   2.0000     -11.245772      -306.0130
  38   2.0000     -11.245325      -306.0008
  39   2.0000     -11.245097      -305.9946
  40   2.0000     -11.244038      -305.9658
  41   2.0000     -11.243654      -305.9554
  42   2.0000     -11.243558      -305.9528
  43   2.0000     -11.241447      -305.8953
  44   2.0000     -11.227721      -305.5218
  45   2.0000     -11.226987      -305.5018
  46   2.0000     -11.224768      -305.4415
  47   2.0000     -11.224451      -305.4328
  48   2.0000     -11.223773      -305.4144
  49   2.0000     -11.221423      -305.3504
  50   2.0000     -11.217320      -305.2388
  51   2.0000     -11.216286      -305.2106
  52   2.0000     -11.210484      -305.0528
  53   2.0000     -11.210165      -305.0441
  54   2.0000     -11.207972      -304.9844
  55   2.0000     -11.207619      -304.9748
  56   2.0000     -11.207399      -304.9688
  57   2.0000     -11.205875      -304.9274
  58   2.0000     -11.205709      -304.9228
  59   2.0000     -11.205635      -304.9208
  60   2.0000     -11.205272      -304.9110
  61   2.0000     -11.205136      -304.9072
  62   2.0000     -11.204035      -304.8773
  63   2.0000     -11.203710      -304.8684
  64   2.0000     -11.200728      -304.7873
  65   2.0000     -11.199565      -304.7557
  66   2.0000     -11.198684      -304.7317
  67   2.0000     -11.196440      -304.6706
  68   2.0000      -1.393753       -37.9260
  69   2.0000      -1.261410       -34.3247
  70   2.0000      -1.259713       -34.2785
  71   2.0000      -1.255936       -34.1757
  72   2.0000      -1.250675       -34.0326
  73   2.0000      -1.231108       -33.5002
  74   2.0000      -1.229530       -33.4572
  75   2.0000      -1.224345       -33.3161
  76   2.0000      -1.219311       -33.1792
  77   2.0000      -1.183565       -32.2064
  78   2.0000      -1.171457       -31.8770
  79   2.0000      -1.164227       -31.6802
  80   2.0000      -1.106162       -30.1002
  81   2.0000      -1.103739       -30.0343
  82   2.0000      -1.101472       -29.9726
  83   2.0000      -1.090406       -29.6715
  84   2.0000      -1.076878       -29.3033
  85   2.0000      -1.074185       -29.2301
  86   2.0000      -1.071803       -29.1652
  87   2.0000      -1.063991       -28.9527
  88   2.0000      -1.061750       -28.8917
  89   2.0000      -1.054730       -28.7007
  90   2.0000      -1.047063       -28.4920
  91   2.0000      -1.045415       -28.4472
  92   2.0000      -1.042896       -28.3786
  93   2.0000      -1.040085       -28.3022
  94   2.0000      -0.980922       -26.6922
  95   2.0000      -0.976514       -26.5723
  96   2.0000      -0.973500       -26.4903
  97   2.0000      -0.967349       -26.3229
  98   2.0000      -0.933783       -25.4095
  99   2.0000      -0.932078       -25.3631
 100   2.0000      -0.930862       -25.3300
 101   2.0000      -0.929206       -25.2850
 102   2.0000      -0.928832       -25.2748
 103   2.0000      -0.926988       -25.2246
 104   2.0000      -0.924340       -25.1526
 105   2.0000      -0.921073       -25.0637
 106   2.0000      -0.912043       -24.8179
 107   2.0000      -0.910519       -24.7765
 108   2.0000      -0.905257       -24.6333
 109   2.0000      -0.901741       -24.5376
 110   2.0000      -0.899417       -24.4744
 111   2.0000      -0.877647       -23.8820
 112   2.0000      -0.875818       -23.8322
 113   2.0000      -0.870965       -23.7002
 114   2.0000      -0.849190       -23.1076
 115   2.0000      -0.846975       -23.0474
 116   2.0000      -0.843211       -22.9449
 117   2.0000      -0.833700       -22.6861
 118   2.0000      -0.824085       -22.4245
 119   2.0000      -0.793856       -21.6019
 120   2.0000      -0.792558       -21.5666
 121   2.0000      -0.790840       -21.5198
 122   2.0000      -0.780204       -21.2304
 123   2.0000      -0.769829       -20.9481
 124   2.0000      -0.767518       -20.8852
 125   2.0000      -0.764220       -20.7955
 126   2.0000      -0.750498       -20.4221
 127   2.0000      -0.748651       -20.3718
 128   2.0000      -0.745398       -20.2833
 129   2.0000      -0.742966       -20.2171
 130   2.0000      -0.740823       -20.1588
 131   2.0000      -0.729611       -19.8537
 132   2.0000      -0.729252       -19.8440
 133   2.0000      -0.716685       -19.5020
 134   2.0000      -0.704236       -19.1632
 135   2.0000      -0.701986       -19.1020
 136   2.0000      -0.694308       -18.8931
 137   2.0000      -0.684791       -18.6341
 138   2.0000      -0.682747       -18.5785
 139   2.0000      -0.677328       -18.4310
 140   2.0000      -0.669526       -18.2187
 141   2.0000      -0.665983       -18.1223
 142   2.0000      -0.664746       -18.0886
 143   2.0000      -0.657653       -17.8956
 144   2.0000      -0.653896       -17.7934
 145   2.0000      -0.653143       -17.7729
 146   2.0000      -0.648121       -17.6363
 147   2.0000      -0.646453       -17.5909
 148   2.0000      -0.643759       -17.5176
 149   2.0000      -0.637774       -17.3547
 150   2.0000      -0.636220       -17.3124
 151   2.0000      -0.633046       -17.2261
 152   2.0000      -0.630869       -17.1668
 153   2.0000      -0.626537       -17.0489
 154   2.0000      -0.622298       -16.9336
 155   2.0000      -0.620383       -16.8815
 156   2.0000      -0.614394       -16.7185
 157   2.0000      -0.609836       -16.5945
 158   2.0000      -0.608678       -16.5630
 159   2.0000      -0.603377       -16.4187
 160   2.0000      -0.601648       -16.3717
 161   2.0000      -0.599579       -16.3154
 162   2.0000      -0.595429       -16.2025
 163   2.0000      -0.592793       -16.1307
 164   2.0000      -0.588120       -16.0036
 165   2.0000      -0.587792       -15.9946
 166   2.0000      -0.586662       -15.9639
 167   2.0000      -0.582936       -15.8625
 168   2.0000      -0.579721       -15.7750
 169   2.0000      -0.578941       -15.7538
 170   2.0000      -0.577968       -15.7273
 171   2.0000      -0.576864       -15.6973
 172   2.0000      -0.571368       -15.5477
 173   2.0000      -0.568913       -15.4809
 174   2.0000      -0.567953       -15.4548
 175   2.0000      -0.566396       -15.4124
 176   2.0000      -0.564766       -15.3681
 177   2.0000      -0.560137       -15.2421
 178   2.0000      -0.550288       -14.9741
 179   2.0000      -0.546955       -14.8834
 180   2.0000      -0.543546       -14.7906
 181   2.0000      -0.543225       -14.7819
 182   2.0000      -0.542512       -14.7625
 183   2.0000      -0.539086       -14.6693
 184   2.0000      -0.538504       -14.6534
 185   2.0000      -0.537092       -14.6150
 186   2.0000      -0.536104       -14.5881
 187   2.0000      -0.534596       -14.5471
 188   2.0000      -0.532079       -14.4786
 189   2.0000      -0.530646       -14.4396
 190   2.0000      -0.529548       -14.4097
 191   2.0000      -0.529339       -14.4041
 192   2.0000      -0.528624       -14.3846
 193   2.0000      -0.526850       -14.3363
 194   2.0000      -0.523904       -14.2562
 195   2.0000      -0.522237       -14.2108
 196   2.0000      -0.520893       -14.1742
 197   2.0000      -0.519979       -14.1494
 198   2.0000      -0.518056       -14.0970
 199   2.0000      -0.513172       -13.9641
 200   2.0000      -0.511711       -13.9244
 201   2.0000      -0.510455       -13.8902
 202   2.0000      -0.508378       -13.8337
 203   2.0000      -0.502485       -13.6733
 204   2.0000      -0.499782       -13.5998
 205   2.0000      -0.495304       -13.4779
 206   2.0000      -0.491559       -13.3760
 207   2.0000      -0.484008       -13.1705
 208   2.0000      -0.481062       -13.0904
 209   2.0000      -0.480111       -13.0645
 210   2.0000      -0.479105       -13.0371
 211   2.0000      -0.478976       -13.0336
 212   2.0000      -0.477515       -12.9938
 213   2.0000      -0.474331       -12.9072
 214   2.0000      -0.473886       -12.8951
 215   2.0000      -0.472029       -12.8446
 216   2.0000      -0.470734       -12.8093
 217   2.0000      -0.470504       -12.8031
 218   2.0000      -0.465210       -12.6590
 219   2.0000      -0.463573       -12.6145
 220   2.0000      -0.460358       -12.5270
 221   2.0000      -0.459536       -12.5046
 222   2.0000      -0.458266       -12.4701
 223   2.0000      -0.456248       -12.4151
 224   2.0000      -0.454357       -12.3637
 225   2.0000      -0.452367       -12.3095
 226   2.0000      -0.450135       -12.2488
 227   2.0000      -0.444128       -12.0853
 228   2.0000      -0.440215       -11.9788
 229   2.0000      -0.438169       -11.9232
 230   2.0000      -0.435687       -11.8556
 231   2.0000      -0.433899       -11.8070
 232   2.0000      -0.426317       -11.6007
 233   2.0000      -0.415820       -11.3150
 234   2.0000      -0.412000       -11.2111
 235   2.0000      -0.407801       -11.0968
 236   2.0000      -0.407087       -11.0774
 237   2.0000      -0.404745       -11.0137
 238   2.0000      -0.402328       -10.9479
 239   2.0000      -0.401175       -10.9165
 240   2.0000      -0.398621       -10.8470
 241   2.0000      -0.394786       -10.7427
 242   2.0000      -0.389456       -10.5976
 243   2.0000      -0.388037       -10.5590
 244   2.0000      -0.347921        -9.4674
 245   2.0000      -0.334051        -9.0900
 246   2.0000      -0.327060        -8.8998
 247   2.0000      -0.323880        -8.8132
 248   2.0000      -0.320359        -8.7174
 249   2.0000      -0.318137        -8.6570
 250   0.0000       0.054877         1.4933
 251   0.0000       0.064778         1.7627
 252   0.0000       0.069544         1.8924
 253   0.0000       0.075051         2.0422
 254   0.0000       0.079366         2.1597

MULLIKEN ATOMIC CHARGES
-----------------------
   0 C :    0.191504
   1 C :   -0.106414
   2 C :   -0.222583
   3 C :    0.194541
   4 H :    0.158962
   5 C :   -0.232038
   6 C :    0.220030
   7 H :    0.164334
   8 C :   -0.231978
   9 C :   -0.116066
  10 H :    0.165844
  11 C :   -0.128953
  12 H :    0.093541
  13 H :    0.097185
  14 H :    0.097888
  15 C :    0.108122
  16 C :    0.181239
  17 C :   -0.236729
  18 C :    0.179759
  19 H :    0.184033
  20 C :   -0.196453
  21 C :    0.216288
  22 H :    0.171561
  23 C :   -0.213158
  24 C :   -0.128973
  25 H :    0.167685
  26 C :   -0.104713
  27 H :    0.095809
  28 H :    0.100560
  29 H :    0.097963
  30 C :    0.220735
  31 C :   -0.147713
  32 C :   -0.227276
  33 C :    0.189470
  34 H :    0.164526
  35 C :   -0.233517
  36 C :    0.201457
  37 H :    0.162400
  38 C :   -0.223761
  39 C :   -0.120931
  40 H :    0.159886
  41 C :   -0.109411
  42 H :    0.099221
  43 H :    0.099474
  44 C :    0.020385
  45 C :    0.037458
  46 N :   -0.299606
  47 H :    0.178644
  48 C :   -0.068084
  49 N :   -0.295322
  50 H :    0.106584
  51 C :   -0.063325
  52 H :    0.114392
  53 C :   -0.317533
  54 C :   -0.340726
  55 H :    0.112939
  56 C :   -0.339549
  57 C :   -0.324955
  58 H :    0.108572
  59 H :    0.095572
  60 H :    0.113210
  61 H :    0.103710
  62 H :    0.094574
  63 H :    0.107195
  64 H :    0.099471
  65 H :    0.093832
  66 H :    0.104403
  67 H :    0.107808
  68 H :    0.121293
  69 H :    0.095254
  70 O :   -0.391256
  71 C :    0.052876
  72 C :    0.046428
  73 N :   -0.288339
  74 H :    0.108098
  75 C :   -0.071345
  76 N :   -0.285322
  77 H :    0.111924
  78 C :   -0.071183
  79 H :    0.115258
  80 C :   -0.320096
  81 C :   -0.327508
  82 H :    0.118548
  83 C :   -0.316786
  84 C :   -0.333082
  85 H :    0.094212
  86 H :    0.105768
  87 H :    0.104823
  88 H :    0.111526
  89 H :    0.106063
  90 H :    0.093639
  91 H :    0.111250
  92 H :    0.101728
  93 H :    0.096300
  94 H :    0.109525
  95 H :    0.106275
  96 H :    0.097426
  97 C :    0.050320
  98 C :    0.050690
  99 N :   -0.292874
 100 H :    0.110909
 101 C :   -0.070148
 102 N :   -0.295092
 103 H :    0.107870
 104 C :   -0.068819
 105 H :    0.116305
 106 C :   -0.316434
 107 C :   -0.331471
 108 H :    0.113699
 109 C :   -0.320716
 110 C :   -0.326015
 111 H :    0.101820
 112 H :    0.096085
 113 H :    0.110072
 114 H :    0.096420
 115 H :    0.110156
 116 H :    0.104993
 117 H :    0.103834
 118 H :    0.094278
 119 H :    0.104538
 120 H :    0.094162
 121 H :    0.110229
 122 H :    0.105164
 123 C :    0.035845
 124 C :    0.032406
 125 N :   -0.282495
 126 H :    0.108893
 127 C :   -0.065778
 128 N :   -0.284281
 129 H :    0.113103
 130 C :   -0.067688
 131 H :    0.113250
 132 C :   -0.311742
 133 C :   -0.321167
 134 H :    0.114952
 135 C :   -0.306631
 136 C :   -0.324981
 137 H :    0.100034
 138 H :    0.094833
 139 H :    0.105313
 140 H :    0.090856
 141 H :    0.107749
 142 H :    0.103894
 143 H :    0.109856
 144 H :    0.099494
 145 H :    0.097804
 146 H :    0.102931
 147 H :    0.092813
 148 H :    0.109026
 149 H :    0.115436
Sum of atomic charges:   -0.0000000

LOEWDIN ATOMIC CHARGES
----------------------
   0 C :   -0.072568
   1 C :   -0.070291
   2 C :    0.089202
   3 C :   -0.075540
   4 H :   -0.021233
   5 C :    0.090848
   6 C :   -0.073483
   7 H :   -0.019165
   8 C :    0.092111
   9 C :   -0.064986
  10 H :   -0.022482
  11 C :   -0.070145
  12 H :   -0.033579
  13 H :   -0.034906
  14 H :   -0.035034
  15 C :   -0.093566
  16 C :   -0.140438
  17 C :    0.094348
  18 C :   -0.071551
  19 H :   -0.014629
  20 C :    0.108948
  21 C :   -0.070282
  22 H :   -0.014308
  23 C :    0.103491
  24 C :   -0.066303
  25 H :   -0.017653
  26 C :   -0.070864
  27 H :   -0.033056
  28 H :   -0.032842
  29 H :   -0.032976
  30 C :   -0.071082
  31 C :   -0.066554
  32 C :    0.092047
  33 C :   -0.074263
  34 H :   -0.022757
  35 C :    0.089444
  36 C :   -0.074221
  37 H :   -0.018799
  38 C :    0.089633
  39 C :   -0.069325
  40 H :   -0.022271
  41 C :   -0.069332
  42 H :   -0.033644
  43 H :   -0.034756
  44 C :   -0.092794
  45 C :   -0.098993
  46 N :    0.238251
  47 H :   -0.029467
  48 C :   -0.022391
  49 N :    0.227982
  50 H :   -0.030984
  51 C :   -0.026031
  52 H :   -0.023080
  53 C :    0.115660
  54 C :    0.115734
  55 H :   -0.024533
  56 C :    0.117145
  57 C :    0.115057
  58 H :   -0.029950
  59 H :   -0.032543
  60 H :   -0.026513
  61 H :   -0.029211
  62 H :   -0.035337
  63 H :   -0.029537
  64 H :   -0.031252
  65 H :   -0.030998
  66 H :   -0.030492
  67 H :   -0.030050
  68 H :   -0.030579
  69 H :   -0.034207
  70 O :    0.134532
  71 C :   -0.101703
  72 C :   -0.097814
  73 N :    0.230771
  74 H :   -0.029693
  75 C :   -0.026451
  76 N :    0.241069
  77 H :   -0.030138
  78 C :   -0.024135
  79 H :   -0.024281
  80 C :    0.116583
  81 C :    0.116339
  82 H :   -0.022687
  83 C :    0.117495
  84 C :    0.115686
  85 H :   -0.030241
  86 H :   -0.030094
  87 H :   -0.029279
  88 H :   -0.029284
  89 H :   -0.028570
  90 H :   -0.035688
  91 H :   -0.028309
  92 H :   -0.030545
  93 H :   -0.031013
  94 H :   -0.028963
  95 H :   -0.027959
  96 H :   -0.034304
  97 C :   -0.096652
  98 C :   -0.099815
  99 N :    0.238322
 100 H :   -0.030816
 101 C :   -0.023931
 102 N :    0.227645
 103 H :   -0.030164
 104 C :   -0.026690
 105 H :   -0.023393
 106 C :    0.117235
 107 C :    0.115324
 108 H :   -0.024599
 109 C :    0.116234
 110 C :    0.116015
 111 H :   -0.030378
 112 H :   -0.031284
 113 H :   -0.028741
 114 H :   -0.034715
 115 H :   -0.028669
 116 H :   -0.028494
 117 H :   -0.029879
 118 H :   -0.030234
 119 H :   -0.030659
 120 H :   -0.035576
 121 H :   -0.029291
 122 H :   -0.028999
 123 C :   -0.095496
 124 C :   -0.092652
 125 N :    0.233418
 126 H :   -0.029831
 127 C :   -0.024313
 128 N :    0.241271
 129 H :   -0.032170
 130 C :   -0.020826
 131 H :   -0.025567
 132 C :    0.116030
 133 C :    0.115547
 134 H :   -0.024601
 135 C :    0.116290
 136 C :    0.114875
 137 H :   -0.029523
 138 H :   -0.030897
 139 H :   -0.029608
 140 H :   -0.036043
 141 H :   -0.031339
 142 H :   -0.029834
 143 H :   -0.027641
 144 H :   -0.030372
 145 H :   -0.031508
 146 H :   -0.029533
 147 H :   -0.035448
 148 H :   -0.029154
 149 H :   -0.032275

  Mayer bond orders larger than 0.100000
B(  0-C ,  1-C ) :   0.9946 B(  0-C ,  2-C ) :   1.3120 B(  0-C ,  8-C ) :   1.3773
B(  1-C , 13-H ) :   0.9935 B(  1-C , 49-N ) :   1.9538 B(  2-C ,  3-C ) :   1.3869
B(  2-C ,  4-H ) :   0.9636 B(  3-C ,  5-C ) :   1.2974 B(  3-C , 11-C ) :   0.9955
B(  5-C ,  6-C ) :   1.3910 B(  5-C ,  7-H ) :   0.9658 B(  6-C ,  8-C ) :   1.2876
B(  6-C ,  9-C ) :   0.9887 B(  8-C , 10-H ) :   0.9631 B(  9-C , 12-H ) :   0.9882
B(  9-C , 99-N ) :   1.9542 B( 11-C , 14-H ) :   0.9969 B( 11-C , 73-N ) :   1.9520
B( 15-C , 16-C ) :   0.9741 B( 15-C , 17-C ) :   1.2706 B( 15-C , 23-C ) :   1.3787
B( 16-C , 28-H ) :   1.0015 B( 16-C , 70-O ) :   2.0085 B( 17-C , 18-C ) :   1.3860
B( 17-C , 19-H ) :   0.9564 B( 18-C , 20-C ) :   1.2975 B( 18-C , 26-C ) :   0.9939
B( 20-C , 21-C ) :   1.3880 B( 20-C , 22-H ) :   0.9623 B( 21-C , 23-C ) :   1.2891
B( 21-C , 24-C ) :   0.9833 B( 23-C , 25-H ) :   0.9604 B( 24-C , 27-H ) :   0.9892
B( 24-C , 76-N ) :   1.9534 B( 26-C , 29-H ) :   0.9963 B( 26-C ,125-N ) :   1.9613
B( 30-C , 31-C ) :   0.9817 B( 30-C , 32-C ) :   1.2947 B( 30-C , 38-C ) :   1.3964
B( 31-C , 46-N ) :   1.9450 B( 31-C ,149-H ) :   0.9881 B( 32-C , 33-C ) :   1.3778
B( 32-C , 34-H ) :   0.9618 B( 33-C , 35-C ) :   1.3035 B( 33-C , 41-C ) :   0.9981
B( 35-C , 36-C ) :   1.3822 B( 35-C , 37-H ) :   0.9669 B( 36-C , 38-C ) :   1.3075
B( 36-C , 39-C ) :   0.9959 B( 38-C , 40-H ) :   0.9622 B( 39-C , 42-H ) :   0.9839
B( 39-C ,128-N ) :   1.9462 B( 41-C , 43-H ) :   0.9939 B( 41-C ,102-N ) :   1.9478
B( 44-C , 45-C ) :   0.9835 B( 44-C , 46-N ) :   0.9054 B( 44-C , 47-H ) :   0.9553
B( 44-C , 48-C ) :   0.9546 B( 45-C , 49-N ) :   0.9228 B( 45-C , 50-H ) :   0.9834
B( 45-C , 51-C ) :   0.9500 B( 48-C , 52-H ) :   0.9790 B( 48-C , 53-C ) :   0.9485
B( 48-C , 54-C ) :   0.9476 B( 51-C , 55-H ) :   0.9811 B( 51-C , 56-C ) :   0.9459
B( 51-C , 57-C ) :   0.9492 B( 53-C , 61-H ) :   0.9877 B( 53-C , 62-H ) :   0.9845
B( 53-C , 63-H ) :   0.9747 B( 54-C , 58-H ) :   0.9875 B( 54-C , 59-H ) :   0.9809
B( 54-C , 60-H ) :   0.9833 B( 56-C , 67-H ) :   0.9891 B( 56-C , 68-H ) :   0.9779
B( 56-C , 69-H ) :   0.9768 B( 57-C , 64-H ) :   0.9807 B( 57-C , 65-H ) :   0.9864
B( 57-C , 66-H ) :   0.9880 B( 71-C , 72-C ) :   0.9738 B( 71-C , 73-N ) :   0.9171
B( 71-C , 74-H ) :   0.9784 B( 71-C , 75-C ) :   0.9478 B( 72-C , 76-N ) :   0.9211
B( 72-C , 77-H ) :   0.9759 B( 72-C , 78-C ) :   0.9442 B( 75-C , 79-H ) :   0.9797
B( 75-C , 80-C ) :   0.9482 B( 75-C , 81-C ) :   0.9506 B( 78-C , 82-H ) :   0.9782
B( 78-C , 83-C ) :   0.9482 B( 78-C , 84-C ) :   0.9462 B( 80-C , 88-H ) :   0.9744
B( 80-C , 89-H ) :   0.9877 B( 80-C , 90-H ) :   0.9837 B( 81-C , 85-H ) :   0.9858
B( 81-C , 86-H ) :   0.9877 B( 81-C , 87-H ) :   0.9803 B( 83-C , 94-H ) :   0.9743
B( 83-C , 95-H ) :   0.9871 B( 83-C , 96-H ) :   0.9834 B( 84-C , 91-H ) :   0.9875
B( 84-C , 92-H ) :   0.9808 B( 84-C , 93-H ) :   0.9859 B( 97-C , 98-C ) :   0.9737
B( 97-C , 99-N ) :   0.9186 B( 97-C ,100-H ) :   0.9769 B( 97-C ,101-C ) :   0.9450
B( 98-C ,102-N ) :   0.9196 B( 98-C ,103-H ) :   0.9803 B( 98-C ,104-C ) :   0.9500
B(101-C ,105-H ) :   0.9789 B(101-C ,106-C ) :   0.9482 B(101-C ,107-C ) :   0.9464
B(104-C ,108-H ) :   0.9803 B(104-C ,109-C ) :   0.9479 B(104-C ,110-C ) :   0.9501
B(106-C ,114-H ) :   0.9837 B(106-C ,115-H ) :   0.9741 B(106-C ,116-H ) :   0.9872
B(107-C ,111-H ) :   0.9804 B(107-C ,112-H ) :   0.9860 B(107-C ,113-H ) :   0.9876
B(109-C ,120-H ) :   0.9837 B(109-C ,121-H ) :   0.9745 B(109-C ,122-H ) :   0.9881
B(110-C ,117-H ) :   0.9802 B(110-C ,118-H ) :   0.9858 B(110-C ,119-H ) :   0.9879
B(123-C ,124-C ) :   0.9749 B(123-C ,125-N ) :   0.9180 B(123-C ,126-H ) :   0.9850
B(123-C ,127-C ) :   0.9583 B(124-C ,128-N ) :   0.9218 B(124-C ,129-H ) :   0.9847
B(124-C ,130-C ) :   0.9508 B(127-C ,131-H ) :   0.9810 B(127-C ,132-C ) :   0.9512
B(127-C ,133-C ) :   0.9487 B(130-C ,134-H ) :   0.9781 B(130-C ,135-C ) :   0.9511
B(130-C ,136-C ) :   0.9452 B(132-C ,140-H ) :   0.9855 B(132-C ,141-H ) :   0.9748
B(132-C ,142-H ) :   0.9864 B(133-C ,137-H ) :   0.9790 B(133-C ,138-H ) :   0.9862
B(133-C ,139-H ) :   0.9868 B(135-C ,146-H ) :   0.9857 B(135-C ,147-H ) :   0.9848
B(135-C ,148-H ) :   0.9734 B(136-C ,143-H ) :   0.9861 B(136-C ,144-H ) :   0.9795
B(136-C ,145-H ) :   0.9864

MP2 TOTAL ENERGY:    -2804.941489891 Eh
FINAL SINGLE POINT ENERGY     -2804.941489891184

DIPOLE MOMENT
-------------
                                X             Y             Z
Electronic contribution:      2.28677      -6.37031      19.56980
Nuclear contribution   :     -1.97302       6.33974     -20.74848
                        -----------------------------------------
Total Dipole Moment    :      0.31374      -0.03057      -1.17868
                        -----------------------------------------
Magnitude (a.u.)       :      1.22011
Magnitude (Debye)      :      3.10127

Rotational constants in cm-1:     0.000893     0.000876     0.000777
Rotational constants in MHz :    26.757705    26.254189    23.301977

                             ****ORCA TERMINATED NORMALLY****
TOTAL RUN TIME: 0 days 6 hours 13 minutes 54 seconds 651 msec
