                         Program Version 4.2.1 -  RELEASE  -
|  1> ! DFT COPT B97-3c TightSCF printbasis  Grid6 NOFINALGRID SlowConv
|  2>
|  3> %base "_o_3_alde1_5_ami3_1_opt_B97-3c"
|  4> %maxcore 3000
|  5> %scf
|  6>    MaxIter 2000
|  7> end
|  8> %pal
|  9>    nprocs 32
| 10> end
| 11>
| 12> * xyzfile 0 1 o_3_alde1_5_ami3_1_opt.xyz
| 13> # * xyzfile 0 1 _o_3_alde1_5_ami3_1_opt_B97-3c.xyz
| 14>
| 15>                          ****END OF INPUT****
 Total Charge           Charge          ....    0
 Multiplicity           Mult            ....    1
 Number of Electrons    NEL             ....  482
Dispersion correction           -0.436812807
FINAL SINGLE POINT ENERGY     -2760.384374347974
Dispersion correction            ... done
Dispersion correction           -0.436807306
FINAL SINGLE POINT ENERGY     -2760.386601708497
Dispersion correction            ... done
Dispersion correction           -0.436837008
FINAL SINGLE POINT ENERGY     -2760.387545764130
Dispersion correction            ... done
FINAL SINGLE POINT ENERGY     -2760.388340050822
FINAL SINGLE POINT ENERGY     -2760.388825326083
FINAL SINGLE POINT ENERGY     -2760.389054265964
FINAL SINGLE POINT ENERGY     -2760.389249018636
FINAL SINGLE POINT ENERGY     -2760.389455323229
FINAL SINGLE POINT ENERGY     -2760.389673227269
FINAL SINGLE POINT ENERGY     -2760.389855117116
FINAL SINGLE POINT ENERGY     -2760.392064544224
FINAL SINGLE POINT ENERGY     -2760.392091322296
FINAL SINGLE POINT ENERGY     -2760.392124044143
FINAL SINGLE POINT ENERGY     -2760.392161338012
FINAL SINGLE POINT ENERGY     -2760.392192572064
FINAL SINGLE POINT ENERGY     -2760.392212575081
FINAL SINGLE POINT ENERGY     -2760.392226800350
Dispersion correction            ... done
Dispersion correction           -0.432215931
FINAL SINGLE POINT ENERGY     -2760.392240920421
Dispersion correction            ... done
ORCA finished by error termination in GTOInt
                         Program Version 4.2.1 -  RELEASE  -
|  1> ! DFT COPT B97-3c TightSCF printbasis  Grid6 NOFINALGRID SlowConv
|  2>
|  3> %base "_o_3_alde1_5_ami3_1_opt_B97-3c"
|  4> %maxcore 3000
|  5> %scf
|  6>    MaxIter 2000
|  7> end
|  8> %pal
|  9>    nprocs 32
| 10> end
| 11>
| 12> #* xyzfile 0 1 o_3_alde1_5_ami3_1_opt.xyz
| 13> * xyzfile 0 1 _o_3_alde1_5_ami3_1_opt_B97-3c.xyz
| 14>
| 15>                          ****END OF INPUT****
Dispersion correction           -0.432152058
FINAL SINGLE POINT ENERGY     -2760.392255893415
Dispersion correction            ... done
                    ***********************HURRAY********************

CARTESIAN COORDINATES (ANGSTROEM)
---------------------------------
  C     -2.809283   -1.995845   -0.476480
  C     -2.862245   -1.666166    0.945880
  C     -2.113722   -3.092983   -0.994538
  C     -2.077166   -3.321994   -2.365992
  H     -1.608713   -3.764670   -0.312807
  C     -2.681266   -2.403507   -3.230009
  C     -3.382992   -1.316014   -2.733500
  H     -2.601964   -2.571669   -4.295746
  C     -3.467882   -1.139485   -1.351270
  C     -3.955479   -0.331201   -3.652868
  H     -4.020355   -0.290746   -0.973589
  C     -1.412989   -4.513311   -2.894747
  H     -3.515740   -0.321062   -4.660426
  H     -3.619887   -0.912828    1.194729
  H     -0.981620   -5.187162   -2.144098
  C      2.230897   -2.914159   -0.200626
  C      1.848838   -3.511791    1.124595
  C      2.890832   -1.692718   -0.281574
  C      3.250502   -1.151359   -1.513983
  H      3.082313   -1.141638    0.630016
  C      2.900689   -1.829610   -2.683454
  C      2.253908   -3.054543   -2.615998
  H      3.135348   -1.375765   -3.637208
  C      1.936523   -3.595864   -1.365759
  C      1.804370   -3.731704   -3.830959
  H      1.416957   -4.543107   -1.332950
  C      3.936330    0.136164   -1.552177
  H      1.732789   -3.109735   -4.734585
  H      4.091771    0.610789   -0.573624
  C     -0.620492    1.561473    0.315879
  C     -0.473090    0.750072    1.524755
  C     -1.885628    1.921883   -0.154700
  C     -2.043843    2.504241   -1.404833
  H     -2.748944    1.672637    0.447124
  C     -0.913754    2.764249   -2.184675
  C      0.355414    2.481326   -1.701816
  H     -1.049934    3.176961   -3.175543
  C      0.493551    1.861522   -0.455768
  C      1.530702    2.750952   -2.530353
  H      1.483834    1.582483   -0.123497
  C     -3.396128    2.692072   -1.920653
  H      1.349764    2.793286   -3.614091
  H     -4.198416    2.477084   -1.203001
  C     -1.238047   -0.421027    3.385847
  C     -2.269297   -1.553097    3.171010
  N     -1.426149    0.558583    2.344132
  H     -0.235407   -0.862240    3.341670
  C     -1.439127    0.197565    4.764713
  N     -2.097680   -2.132797    1.850302
  H     -3.257021   -1.079274    3.258661
  C     -2.134678   -2.604287    4.261205
  H     -2.415865    0.684693    4.787988
  C     -1.342356   -0.843333    5.870172
  H     -1.151648   -3.074332    4.182213
  C     -2.312065   -1.993529    5.642856
  H     -1.530237   -0.374234    6.837391
  H     -0.323716   -1.236050    5.911418
  H     -2.181811   -2.759095    6.409571
  H     -3.336772   -1.625513    5.745077
  C      2.569712   -2.796171    3.243335
  C      2.875343   -4.275232    3.051570
  N      1.606513   -2.496671    2.188744
  H      3.494179   -2.247735    3.019000
  C      2.205572   -2.498853    4.675739
  N      2.904579   -4.432660    1.603529
  H      2.010578   -4.839549    3.423136
  C      4.087466   -4.688807    3.845343
  H      1.305705   -3.056821    4.950026
  C      3.380608   -2.929109    5.557660
  H      4.961091   -4.128527    3.498125
  C      3.818230   -4.374881    5.319022
  H      3.128101   -2.791369    6.609663
  H      4.225294   -2.265225    5.356215
  H      4.706242   -4.589897    5.914585
  H      3.037038   -5.048080    5.681538
  C     -0.605204   -5.935914   -4.556793
  C      0.814758   -5.505979   -4.989562
  N     -1.338605   -4.763600   -4.138535
  H     -0.468260   -6.640335   -3.724432
  C     -1.328261   -6.637179   -5.697355
  N      1.451958   -4.950498   -3.826302
  H      0.706358   -4.764308   -5.794909
  C      1.594628   -6.706125   -5.512702
  H     -1.494843   -5.914108   -6.498477
  C     -0.535771   -7.824610   -6.219683
  H      1.757223   -7.399175   -4.685028
  C      0.862112   -7.404325   -6.646697
  H     -1.066648   -8.289182   -7.051990
  H     -0.458532   -8.585349   -5.437596
  H      1.436757   -8.268878   -6.982606
  H      0.787675   -6.728802   -7.503717
  C     -5.221281    1.534568   -4.245964
  C     -5.034372    2.896774   -3.540635
  N     -4.854259    0.496980   -3.311852
  H     -4.566056    1.529060   -5.129185
  C     -6.665793    1.381017   -4.706274
  N     -3.653888    2.994743   -3.127814
  H     -5.710434    2.887014   -2.673146
  C     -5.429939    4.032208   -4.470448
  H     -7.312553    1.345008   -3.827468
  C     -7.078541    2.525074   -5.620294
  H     -4.743337    4.043587   -5.319501
  C     -6.863635    3.876254   -4.954320
  H     -8.122507    2.406237   -5.914416
  H     -6.490408    2.482220   -6.541385
  H     -7.115313    4.684221   -5.643148
  H     -7.546555    3.969901   -4.105072
  C      4.884269    2.022246   -2.520276
  C      3.810370    3.044066   -2.937327
  N      4.320246    0.697238   -2.626098
  H      5.147094    2.262337   -1.479371
  C      6.121267    2.162825   -3.394367
  N      2.690539    2.896931   -2.039282
  H      3.526984    2.824808   -3.977066
  C      4.376026    4.458341   -2.870389
  H      5.853806    1.897348   -4.419251
  C      6.679374    3.576665   -3.345456
  H      4.607185    4.693208   -1.829512
  C      5.621925    4.600306   -3.730898
  H      7.546690    3.658264   -4.002505
  H      7.034987    3.793660   -2.334052
  H      6.019536    5.612624   -3.642571
  H      5.355242    4.462586   -4.782636
  H      0.494590    0.245706    1.640002
  H      3.798334   -4.101797    1.253165
  H      0.928910   -4.085308    0.988279
  H      0.658371   -2.613049    2.521448
  H     -0.696220    0.982822    4.909862
  H     -2.867172   -3.393663    4.089163
  H      1.983850   -1.441643    4.825848
  H      4.312165   -5.746981    3.710425
  H     -2.314494   -6.949329   -5.351564
  H      2.580939   -6.370078   -5.835154
  H     -6.774937    0.422166   -5.214621
  H     -5.297232    4.982187   -3.951357
  H      6.869896    1.438130   -3.072137
  H      3.604679    5.162092   -3.185825

 Multiplicity           Mult            ....    1
 Number of Electrons    NEL             ....  482
 Basis Dimension        Dim             .... 1483

ORBITAL ENERGIES
----------------

  NO   OCC          E(Eh)            E(eV)
   0   2.0000     -13.978906      -380.3854
   1   2.0000     -13.978079      -380.3629
   2   2.0000     -13.976229      -380.3125
   3   2.0000     -13.975216      -380.2850
   4   2.0000     -13.974805      -380.2738
   5   2.0000     -13.974388      -380.2624
   6   2.0000     -13.973652      -380.2424
   7   2.0000     -13.972390      -380.2081
   8   2.0000     -13.971208      -380.1759
   9   2.0000     -13.971132      -380.1738
  10   2.0000      -9.943914      -270.5876
  11   2.0000      -9.932307      -270.2718
  12   2.0000      -9.931037      -270.2373
  13   2.0000      -9.930266      -270.2163
  14   2.0000      -9.928944      -270.1803
  15   2.0000      -9.927837      -270.1502
  16   2.0000      -9.927574      -270.1430
  17   2.0000      -9.927530      -270.1418
  18   2.0000      -9.925245      -270.0796
  19   2.0000      -9.918967      -269.9088
  20   2.0000      -9.918471      -269.8953
  21   2.0000      -9.918049      -269.8838
  22   2.0000      -9.916299      -269.8362
  23   2.0000      -9.916067      -269.8299
  24   2.0000      -9.915634      -269.8181
  25   2.0000      -9.914741      -269.7938
  26   2.0000      -9.913117      -269.7496
  27   2.0000      -9.911704      -269.7112
  28   2.0000      -9.910828      -269.6873
  29   2.0000      -9.908930      -269.6357
  30   2.0000      -9.907874      -269.6069
  31   2.0000      -9.907616      -269.5999
  32   2.0000      -9.906136      -269.5597
  33   2.0000      -9.905583      -269.5446
  34   2.0000      -9.905472      -269.5416
  35   2.0000      -9.905094      -269.5313
  36   2.0000      -9.903727      -269.4941
  37   2.0000      -9.902274      -269.4546
  38   2.0000      -9.901559      -269.4351
  39   2.0000      -9.901314      -269.4285
  40   2.0000      -9.901286      -269.4277
  41   2.0000      -9.901017      -269.4204
  42   2.0000      -9.900442      -269.4047
  43   2.0000      -9.898035      -269.3392
  44   2.0000      -9.896710      -269.3032
  45   2.0000      -9.894677      -269.2478
  46   2.0000      -9.892963      -269.2012
  47   2.0000      -9.892812      -269.1971
  48   2.0000      -9.892339      -269.1842
  49   2.0000      -9.892081      -269.1772
  50   2.0000      -9.890493      -269.1340
  51   2.0000      -9.887506      -269.0527
  52   2.0000      -9.886989      -269.0386
  53   2.0000      -9.886970      -269.0381
  54   2.0000      -9.885776      -269.0057
  55   2.0000      -9.885464      -268.9971
  56   2.0000      -9.885097      -268.9872
  57   2.0000      -9.884441      -268.9693
  58   2.0000      -9.884148      -268.9613
  59   2.0000      -9.884079      -268.9595
  60   2.0000      -9.883054      -268.9316
  61   2.0000      -9.882742      -268.9231
  62   2.0000      -9.882230      -268.9092
  63   2.0000      -9.882188      -268.9080
  64   2.0000      -9.881658      -268.8936
  65   2.0000      -9.880261      -268.8556
  66   2.0000      -9.880202      -268.8540
  67   2.0000      -0.885381       -24.0925
  68   2.0000      -0.866609       -23.5816
  69   2.0000      -0.865254       -23.5448
  70   2.0000      -0.864036       -23.5116
  71   2.0000      -0.863332       -23.4924
  72   2.0000      -0.842536       -22.9266
  73   2.0000      -0.839668       -22.8485
  74   2.0000      -0.838794       -22.8247
  75   2.0000      -0.837531       -22.7904
  76   2.0000      -0.800914       -21.7940
  77   2.0000      -0.794201       -21.6113
  78   2.0000      -0.792669       -21.5696
  79   2.0000      -0.782729       -21.2991
  80   2.0000      -0.762917       -20.7600
  81   2.0000      -0.761918       -20.7328
  82   2.0000      -0.758150       -20.6303
  83   2.0000      -0.757935       -20.6245
  84   2.0000      -0.753626       -20.5072
  85   2.0000      -0.714677       -19.4473
  86   2.0000      -0.713997       -19.4289
  87   2.0000      -0.712478       -19.3875
  88   2.0000      -0.711718       -19.3668
  89   2.0000      -0.708524       -19.2799
  90   2.0000      -0.708088       -19.2681
  91   2.0000      -0.680252       -18.5106
  92   2.0000      -0.678411       -18.4605
  93   2.0000      -0.677353       -18.4317
  94   2.0000      -0.675148       -18.3717
  95   2.0000      -0.674948       -18.3663
  96   2.0000      -0.672297       -18.2941
  97   2.0000      -0.666818       -18.1450
  98   2.0000      -0.664682       -18.0869
  99   2.0000      -0.663451       -18.0534
 100   2.0000      -0.658164       -17.9095
 101   2.0000      -0.601632       -16.3712
 102   2.0000      -0.599038       -16.3007
 103   2.0000      -0.598070       -16.2743
 104   2.0000      -0.595450       -16.2030
 105   2.0000      -0.589804       -16.0494
 106   2.0000      -0.588182       -16.0053
 107   2.0000      -0.583575       -15.8799
 108   2.0000      -0.581796       -15.8315
 109   2.0000      -0.575688       -15.6653
 110   2.0000      -0.554783       -15.0964
 111   2.0000      -0.553070       -15.0498
 112   2.0000      -0.551279       -15.0011
 113   2.0000      -0.550345       -14.9756
 114   2.0000      -0.548912       -14.9367
 115   2.0000      -0.546749       -14.8778
 116   2.0000      -0.544601       -14.8193
 117   2.0000      -0.540897       -14.7185
 118   2.0000      -0.535355       -14.5678
 119   2.0000      -0.531057       -14.4508
 120   2.0000      -0.523268       -14.2388
 121   2.0000      -0.510745       -13.8981
 122   2.0000      -0.507770       -13.8171
 123   2.0000      -0.506239       -13.7755
 124   2.0000      -0.505943       -13.7674
 125   2.0000      -0.498925       -13.5764
 126   2.0000      -0.490944       -13.3593
 127   2.0000      -0.490008       -13.3338
 128   2.0000      -0.488023       -13.2798
 129   2.0000      -0.486282       -13.2324
 130   2.0000      -0.485522       -13.2117
 131   2.0000      -0.467259       -12.7148
 132   2.0000      -0.460785       -12.5386
 133   2.0000      -0.460246       -12.5239
 134   2.0000      -0.457337       -12.4448
 135   2.0000      -0.456925       -12.4336
 136   2.0000      -0.455866       -12.4048
 137   2.0000      -0.449751       -12.2383
 138   2.0000      -0.444890       -12.1061
 139   2.0000      -0.441432       -12.0120
 140   2.0000      -0.439027       -11.9465
 141   2.0000      -0.434831       -11.8324
 142   2.0000      -0.430188       -11.7060
 143   2.0000      -0.429811       -11.6958
 144   2.0000      -0.425091       -11.5673
 145   2.0000      -0.422610       -11.4998
 146   2.0000      -0.420589       -11.4448
 147   2.0000      -0.417121       -11.3504
 148   2.0000      -0.413076       -11.2404
 149   2.0000      -0.411315       -11.1925
 150   2.0000      -0.409981       -11.1561
 151   2.0000      -0.408512       -11.1162
 152   2.0000      -0.408159       -11.1066
 153   2.0000      -0.407550       -11.0900
 154   2.0000      -0.406446       -11.0600
 155   2.0000      -0.401446       -10.9239
 156   2.0000      -0.398309       -10.8385
 157   2.0000      -0.395297       -10.7566
 158   2.0000      -0.392014       -10.6673
 159   2.0000      -0.388305       -10.5663
 160   2.0000      -0.385922       -10.5015
 161   2.0000      -0.385342       -10.4857
 162   2.0000      -0.383288       -10.4298
 163   2.0000      -0.381858       -10.3909
 164   2.0000      -0.380909       -10.3651
 165   2.0000      -0.378611       -10.3025
 166   2.0000      -0.378165       -10.2904
 167   2.0000      -0.376377       -10.2418
 168   2.0000      -0.374335       -10.1862
 169   2.0000      -0.373603       -10.1662
 170   2.0000      -0.370514       -10.0822
 171   2.0000      -0.363763        -9.8985
 172   2.0000      -0.362750        -9.8709
 173   2.0000      -0.362428        -9.8622
 174   2.0000      -0.361040        -9.8244
 175   2.0000      -0.359523        -9.7831
 176   2.0000      -0.358825        -9.7641
 177   2.0000      -0.353596        -9.6218
 178   2.0000      -0.350316        -9.5326
 179   2.0000      -0.347604        -9.4588
 180   2.0000      -0.346432        -9.4269
 181   2.0000      -0.344284        -9.3684
 182   2.0000      -0.342206        -9.3119
 183   2.0000      -0.341622        -9.2960
 184   2.0000      -0.340515        -9.2659
 185   2.0000      -0.328223        -8.9314
 186   2.0000      -0.327063        -8.8998
 187   2.0000      -0.326546        -8.8858
 188   2.0000      -0.322659        -8.7800
 189   2.0000      -0.322063        -8.7638
 190   2.0000      -0.317425        -8.6376
 191   2.0000      -0.314912        -8.5692
 192   2.0000      -0.314507        -8.5582
 193   2.0000      -0.311949        -8.4886
 194   2.0000      -0.310750        -8.4559
 195   2.0000      -0.310244        -8.4422
 196   2.0000      -0.309110        -8.4113
 197   2.0000      -0.307984        -8.3807
 198   2.0000      -0.307249        -8.3607
 199   2.0000      -0.306579        -8.3424
 200   2.0000      -0.305551        -8.3145
 201   2.0000      -0.304487        -8.2855
 202   2.0000      -0.303663        -8.2631
 203   2.0000      -0.301945        -8.2163
 204   2.0000      -0.301770        -8.2116
 205   2.0000      -0.300847        -8.1865
 206   2.0000      -0.298007        -8.1092
 207   2.0000      -0.292723        -7.9654
 208   2.0000      -0.291759        -7.9392
 209   2.0000      -0.289678        -7.8825
 210   2.0000      -0.288573        -7.8525
 211   2.0000      -0.287483        -7.8228
 212   2.0000      -0.286449        -7.7947
 213   2.0000      -0.283884        -7.7249
 214   2.0000      -0.283251        -7.7076
 215   2.0000      -0.281176        -7.6512
 216   2.0000      -0.279537        -7.6066
 217   2.0000      -0.276163        -7.5148
 218   2.0000      -0.272504        -7.4152
 219   2.0000      -0.271633        -7.3915
 220   2.0000      -0.269991        -7.3468
 221   2.0000      -0.269197        -7.3252
 222   2.0000      -0.256586        -6.9821
 223   2.0000      -0.251661        -6.8480
 224   2.0000      -0.246379        -6.7043
 225   2.0000      -0.223306        -6.0765
 226   2.0000      -0.221978        -6.0403
 227   2.0000      -0.220493        -5.9999
 228   2.0000      -0.219181        -5.9642
 229   2.0000      -0.217695        -5.9238
 230   2.0000      -0.216947        -5.9034
 231   2.0000      -0.216027        -5.8784
 232   2.0000      -0.215064        -5.8522
 233   2.0000      -0.214025        -5.8239
 234   2.0000      -0.211780        -5.7628
 235   2.0000      -0.210638        -5.7317
 236   2.0000      -0.209325        -5.6960
 237   2.0000      -0.209241        -5.6937
 238   2.0000      -0.207435        -5.6446
 239   2.0000      -0.198578        -5.4036
 240   2.0000      -0.186607        -5.0778
 241   0.0000      -0.085667        -2.3311
 242   0.0000      -0.083836        -2.2813
 243   0.0000      -0.078751        -2.1429
 244   0.0000      -0.076563        -2.0834
 245   0.0000      -0.074979        -2.0403

MULLIKEN ATOMIC CHARGES
-----------------------
   0 C :    0.263700
   1 C :   -0.357468
   2 C :   -0.155259
   3 C :    0.294248
   4 H :    0.200136
   5 C :   -0.222021
   6 C :    0.245266
   7 H :    0.215639
   8 C :   -0.097413
   9 C :   -0.353214
  10 H :    0.206777
  11 C :   -0.355640
  12 H :    0.105325
  13 H :    0.119841
  14 H :    0.114071
  15 C :    0.302494
  16 C :   -0.520258
  17 C :   -0.233748
  18 C :    0.409221
  19 H :    0.211893
  20 C :   -0.260030
  21 C :    0.312870
  22 H :    0.205628
  23 C :   -0.197965
  24 C :   -0.354123
  25 H :    0.194239
  26 C :   -0.387776
  27 H :    0.108081
  28 H :    0.109034
  29 C :    0.241196
  30 C :   -0.339677
  31 C :   -0.161602
  32 C :    0.307821
  33 H :    0.207547
  34 C :   -0.204811
  35 C :    0.263356
  36 H :    0.207425
  37 C :   -0.164483
  38 C :   -0.337583
  39 H :    0.198238
  40 C :   -0.332289
  41 H :    0.100382
  42 H :    0.117284
  43 C :   -0.171663
  44 C :   -0.302187
  45 N :   -0.066489
  46 H :    0.083407
  47 C :   -0.290657
  48 N :   -0.043773
  49 H :    0.127987
  50 C :   -0.226973
  51 H :    0.160312
  52 C :   -0.249734
  53 H :    0.124868
  54 C :   -0.303114
  55 H :    0.169575
  56 H :    0.123953
  57 H :    0.175475
  58 H :    0.143826
  59 C :   -0.235848
  60 C :   -0.220034
  61 N :   -0.259923
  62 H :    0.123626
  63 C :   -0.271147
  64 N :   -0.225764
  65 H :    0.135343
  66 C :   -0.259753
  67 H :    0.127914
  68 C :   -0.292914
  69 H :    0.134866
  70 C :   -0.303341
  71 H :    0.175656
  72 H :    0.150414
  73 H :    0.176610
  74 H :    0.147517
  75 C :   -0.255552
  76 C :   -0.238525
  77 N :   -0.037820
  78 H :    0.131367
  79 C :   -0.261754
  80 N :   -0.045309
  81 H :    0.121367
  82 C :   -0.263083
  83 H :    0.153422
  84 C :   -0.289152
  85 H :    0.158784
  86 C :   -0.277581
  87 H :    0.176056
  88 H :    0.137973
  89 H :    0.175322
  90 H :    0.136383
  91 C :   -0.227870
  92 C :   -0.243860
  93 N :   -0.046915
  94 H :    0.122919
  95 C :   -0.259196
  96 N :   -0.044562
  97 H :    0.124302
  98 C :   -0.269614
  99 H :    0.157104
 100 C :   -0.279667
 101 H :    0.154994
 102 C :   -0.293125
 103 H :    0.174878
 104 H :    0.138658
 105 H :    0.175343
 106 H :    0.139409
 107 C :   -0.242452
 108 C :   -0.238378
 109 N :   -0.023497
 110 H :    0.119788
 111 C :   -0.264385
 112 N :   -0.050386
 113 H :    0.123677
 114 C :   -0.260106
 115 H :    0.155051
 116 C :   -0.290463
 117 H :    0.157641
 118 C :   -0.276277
 119 H :    0.175293
 120 H :    0.137927
 121 H :    0.174650
 122 H :    0.137718
 123 H :    0.150634
 124 H :    0.298866
 125 H :    0.162055
 126 H :    0.294462
 127 H :    0.171654
 128 H :    0.171003
 129 H :    0.187243
 130 H :    0.183488
 131 H :    0.170478
 132 H :    0.168862
 133 H :    0.168500
 134 H :    0.170788
 135 H :    0.169650
 136 H :    0.167431
Sum of atomic charges:   -0.0000000

LOEWDIN ATOMIC CHARGES
----------------------
   0 C :   -0.078386
   1 C :   -0.030526
   2 C :   -0.105252
   3 C :   -0.077348
   4 H :    0.178560
   5 C :   -0.104388
   6 C :   -0.078286
   7 H :    0.184135
   8 C :   -0.103768
   9 C :   -0.025704
  10 H :    0.180108
  11 C :   -0.032215
  12 H :    0.142496
  13 H :    0.145858
  14 H :    0.144145
  15 C :   -0.072311
  16 C :   -0.027258
  17 C :   -0.129745
  18 C :   -0.082497
  19 H :    0.177832
  20 C :   -0.114406
  21 C :   -0.078485
  22 H :    0.181505
  23 C :   -0.111471
  24 C :   -0.026347
  25 H :    0.181353
  26 C :   -0.036619
  27 H :    0.141938
  28 H :    0.140196
  29 C :   -0.078317
  30 C :   -0.027970
  31 C :   -0.109429
  32 C :   -0.080111
  33 H :    0.179560
  34 C :   -0.106483
  35 C :   -0.076419
  36 H :    0.182706
  37 C :   -0.102119
  38 C :   -0.027331
  39 H :    0.181090
  40 C :   -0.034782
  41 H :    0.141781
  42 H :    0.142576
  43 C :   -0.126644
  44 C :   -0.127725
  45 N :   -0.178178
  46 H :    0.150214
  47 C :   -0.286575
  48 N :   -0.185961
  49 H :    0.151255
  50 C :   -0.291513
  51 H :    0.161218
  52 C :   -0.297651
  53 H :    0.149807
  54 C :   -0.295299
  55 H :    0.155698
  56 H :    0.153121
  57 H :    0.154929
  58 H :    0.154255
  59 C :   -0.135259
  60 C :   -0.134990
  61 N :   -0.365822
  62 H :    0.145496
  63 C :   -0.299344
  64 N :   -0.343613
  65 H :    0.154374
  66 C :   -0.288294
  67 H :    0.152088
  68 C :   -0.293693
  69 H :    0.153449
  70 C :   -0.294350
  71 H :    0.156201
  72 H :    0.155069
  73 H :    0.156481
  74 H :    0.154693
  75 C :   -0.124302
  76 C :   -0.120162
  77 N :   -0.177559
  78 H :    0.150538
  79 C :   -0.291327
  80 N :   -0.178478
  81 H :    0.146447
  82 C :   -0.288186
  83 H :    0.159902
  84 C :   -0.297094
  85 H :    0.162009
  86 C :   -0.296695
  87 H :    0.154730
  88 H :    0.153072
  89 H :    0.154989
  90 H :    0.152730
  91 C :   -0.121709
  92 C :   -0.124992
  93 N :   -0.173696
  94 H :    0.147315
  95 C :   -0.287185
  96 N :   -0.179501
  97 H :    0.148703
  98 C :   -0.291143
  99 H :    0.161191
 100 C :   -0.296439
 101 H :    0.160094
 102 C :   -0.296846
 103 H :    0.155319
 104 H :    0.153143
 105 H :    0.155038
 106 H :    0.153071
 107 C :   -0.126176
 108 C :   -0.122988
 109 N :   -0.179149
 110 H :    0.147667
 111 C :   -0.290955
 112 N :   -0.171628
 113 H :    0.147611
 114 C :   -0.286925
 115 H :    0.160243
 116 C :   -0.296922
 117 H :    0.161403
 118 C :   -0.296422
 119 H :    0.154813
 120 H :    0.152750
 121 H :    0.155091
 122 H :    0.152997
 123 H :    0.154327
 124 H :    0.268625
 125 H :    0.153731
 126 H :    0.266020
 127 H :    0.159209
 128 H :    0.160345
 129 H :    0.157571
 130 H :    0.161914
 131 H :    0.158964
 132 H :    0.158650
 133 H :    0.158568
 134 H :    0.159359
 135 H :    0.158852
 136 H :    0.158175

  Mayer bond orders larger than 0.100000
B(  0-C ,  1-C ) :   0.9597 B(  0-C ,  2-C ) :   1.3476 B(  0-C ,  3-C ) :   0.1611
B(  0-C ,  6-C ) :   0.1440 B(  0-C ,  8-C ) :   1.1125 B(  0-C , 48-N ) :  -0.1662
B(  1-C , 13-H ) :   0.8874 B(  1-C , 44-C ) :   0.1110 B(  1-C , 48-N ) :   1.9472
B(  2-C ,  3-C ) :   1.1427 B(  2-C ,  4-H ) :   0.9029 B(  3-C ,  5-C ) :   1.3699
B(  3-C ,  6-C ) :   0.1283 B(  3-C , 11-C ) :   0.9211 B(  3-C , 77-N ) :  -0.1803
B(  5-C ,  6-C ) :   1.1440 B(  5-C ,  7-H ) :   0.8946 B(  6-C ,  8-C ) :   1.3930
B(  6-C ,  9-C ) :   0.9263 B(  6-C , 93-N ) :  -0.1928 B(  8-C , 10-H ) :   0.8675
B(  9-C , 12-H ) :   0.9017 B(  9-C , 93-N ) :   1.9661 B( 11-C , 14-H ) :   0.8982
B( 11-C , 77-N ) :   1.9423 B( 15-C , 16-C ) :   0.6562 B( 15-C , 17-C ) :   1.3134
B( 15-C , 18-C ) :   0.1080 B( 15-C , 21-C ) :   0.1372 B( 15-C , 23-C ) :   1.3085
B( 15-C , 61-N ) :  -0.1172 B( 16-C , 61-N ) :   1.0473 B( 16-C , 64-N ) :   1.1456
B( 16-C ,125-H ) :   0.9864 B( 17-C , 18-C ) :   1.0884 B( 17-C , 19-H ) :   0.9072
B( 17-C , 26-C ) :   0.1528 B( 18-C , 20-C ) :   1.3904 B( 18-C , 21-C ) :   0.1034
B( 18-C , 26-C ) :   0.8738 B( 18-C ,109-N ) :  -0.1800 B( 20-C , 21-C ) :   1.1795
B( 20-C , 22-H ) :   0.8993 B( 21-C , 23-C ) :   1.3215 B( 21-C , 24-C ) :   0.9125
B( 21-C , 80-N ) :  -0.2086 B( 23-C , 25-H ) :   0.9129 B( 23-C , 80-N ) :   0.1038
B( 24-C , 27-H ) :   0.9061 B( 24-C , 80-N ) :   1.9701 B( 26-C , 28-H ) :   0.9068
B( 26-C ,107-C ) :   0.1026 B( 26-C ,109-N ) :   1.9439 B( 29-C , 30-C ) :   0.9164
B( 29-C , 31-C ) :   1.3856 B( 29-C , 32-C ) :   0.1183 B( 29-C , 35-C ) :   0.1402
B( 29-C , 37-C ) :   1.1870 B( 29-C , 45-N ) :  -0.1710 B( 30-C , 43-C ) :   0.1091
B( 30-C , 45-N ) :   1.9400 B( 30-C ,123-H ) :   0.9159 B( 31-C , 32-C ) :   1.1183
B( 31-C , 33-H ) :   0.8792 B( 31-C , 40-C ) :   0.1045 B( 32-C , 34-C ) :   1.3787
B( 32-C , 35-C ) :   0.1245 B( 32-C , 40-C ) :   0.9311 B( 32-C , 96-N ) :  -0.1765
B( 34-C , 35-C ) :   1.1828 B( 34-C , 36-H ) :   0.8954 B( 34-C , 96-N ) :   0.1028
B( 35-C , 37-C ) :   1.3490 B( 35-C , 38-C ) :   0.9199 B( 35-C ,112-N ) :  -0.1977
B( 37-C , 39-H ) :   0.8985 B( 38-C , 41-H ) :   0.9057 B( 38-C ,112-N ) :   1.9543
B( 40-C , 42-H ) :   0.8986 B( 40-C , 92-C ) :   0.1006 B( 40-C , 96-N ) :   1.9415
B( 43-C , 44-C ) :   0.8719 B( 43-C , 45-N ) :   0.9367 B( 43-C , 46-H ) :   0.9118
B( 43-C , 47-C ) :   0.9649 B( 44-C , 48-N ) :   0.9305 B( 44-C , 49-H ) :   0.9396
B( 44-C , 50-C ) :   0.9483 B( 47-C , 51-H ) :   0.9563 B( 47-C , 52-C ) :   0.9795
B( 47-C ,127-H ) :   0.9330 B( 48-N , 50-C ) :  -0.1029 B( 50-C , 53-H ) :   0.9538
B( 50-C , 54-C ) :   0.9781 B( 50-C ,128-H ) :   0.9358 B( 52-C , 54-C ) :   0.9919
B( 52-C , 55-H ) :   0.9367 B( 52-C , 56-H ) :   0.9503 B( 54-C , 57-H ) :   0.9414
B( 54-C , 58-H ) :   0.9490 B( 59-C , 60-C ) :   0.8845 B( 59-C , 61-N ) :   1.0483
B( 59-C , 62-H ) :   0.9355 B( 59-C , 63-C ) :   0.9481 B( 59-C , 64-N ) :  -0.1059
B( 60-C , 61-N ) :  -0.1080 B( 60-C , 64-N ) :   1.1065 B( 60-C , 65-H ) :   0.9163
B( 60-C , 66-C ) :   0.9564 B( 61-N ,126-H ) :   0.8715 B( 63-C , 67-H ) :   0.9585
B( 63-C , 68-C ) :   0.9535 B( 63-C ,129-H ) :   0.9342 B( 64-N ,124-H ) :   0.8349
B( 66-C , 69-H ) :   0.9500 B( 66-C , 70-C ) :   0.9871 B( 66-C ,130-H ) :   0.9390
B( 68-C , 70-C ) :   1.0081 B( 68-C , 71-H ) :   0.9375 B( 68-C , 72-H ) :   0.9520
B( 70-C , 73-H ) :   0.9387 B( 70-C , 74-H ) :   0.9446 B( 75-C , 76-C ) :   0.8845
B( 75-C , 77-N ) :   0.9581 B( 75-C , 78-H ) :   0.9257 B( 75-C , 79-C ) :   0.9434
B( 76-C , 80-N ) :   0.9463 B( 76-C , 81-H ) :   0.9139 B( 76-C , 82-C ) :   0.9638
B( 77-N , 79-C ) :  -0.1167 B( 79-C , 83-H ) :   0.9568 B( 79-C , 84-C ) :   0.9787
B( 79-C ,131-H ) :   0.9350 B( 82-C , 85-H ) :   0.9528 B( 82-C , 86-C ) :   0.9822
B( 82-C ,132-H ) :   0.9291 B( 84-C , 86-C ) :   0.9884 B( 84-C , 87-H ) :   0.9406
B( 84-C , 88-H ) :   0.9487 B( 86-C , 89-H ) :   0.9391 B( 86-C , 90-H ) :   0.9465
B( 91-C , 92-C ) :   0.8740 B( 91-C , 93-N ) :   0.9324 B( 91-C , 94-H ) :   0.9258
B( 91-C , 95-C ) :   0.9589 B( 92-C , 96-N ) :   0.9679 B( 92-C , 97-H ) :   0.9262
B( 92-C , 98-C ) :   0.9511 B( 95-C , 99-H ) :   0.9496 B( 95-C ,100-C ) :   0.9860
B( 95-C ,133-H ) :   0.9290 B( 96-N , 98-C ) :  -0.1155 B( 98-C ,101-H ) :   0.9573
B( 98-C ,102-C ) :   0.9804 B( 98-C ,134-H ) :   0.9359 B(100-C ,102-C ) :   0.9964
B(100-C ,103-H ) :   0.9384 B(100-C ,104-H ) :   0.9458 B(102-C ,105-H ) :   0.9396
B(102-C ,106-H ) :   0.9473 B(107-C ,108-C ) :   0.8860 B(107-C ,109-N ) :   0.9635
B(107-C ,110-H ) :   0.9213 B(107-C ,111-C ) :   0.9452 B(108-C ,112-N ) :   0.9506
B(108-C ,113-H ) :   0.9287 B(108-C ,114-C ) :   0.9561 B(109-N ,111-C ) :  -0.1149
B(111-C ,115-H ) :   0.9570 B(111-C ,116-C ) :   0.9793 B(111-C ,135-H ) :   0.9352
B(114-C ,117-H ) :   0.9498 B(114-C ,118-C ) :   0.9861 B(114-C ,136-H ) :   0.9278
B(116-C ,118-C ) :   0.9945 B(116-C ,119-H ) :   0.9399 B(116-C ,120-H ) :   0.9478
B(118-C ,121-H ) :   0.9391 B(118-C ,122-H ) :   0.9456

Dispersion correction           -0.432149501
FINAL SINGLE POINT ENERGY     -2760.392263193168

DIPOLE MOMENT
-------------
                                X             Y             Z
Electronic contribution:     -9.69790       5.96291     -11.78244
Nuclear contribution   :      9.82520      -5.95704      12.31855
                        -----------------------------------------
Total Dipole Moment    :      0.12729       0.00587       0.53611
                        -----------------------------------------
Magnitude (a.u.)       :      0.55105
Magnitude (Debye)      :      1.40065

Rotational constants in cm-1:     0.000990     0.000813     0.000789
Rotational constants in MHz :    29.679612    24.367016    23.656747

                             ****ORCA TERMINATED NORMALLY****
TOTAL RUN TIME: 0 days 0 hours 5 minutes 4 seconds 209 msec
