                         Program Version 4.2.1 -  RELEASE  -
|  1> ! DFT COPT B97-3c TightSCF printbasis  Grid6 NOFINALGRID SlowConv
|  2>
|  3> %base "_o_3_alde1_5_ami4_1_opt_B97-3c"
|  4> %maxcore 3000
|  5> %scf
|  6>    MaxIter 2000
|  7> end
|  8> %pal
|  9>    nprocs 32
| 10> end
| 11>
| 12> * xyzfile 0 1 o_3_alde1_5_ami4_1_opt.xyz
| 13> # * xyzfile 0 1 _o_3_alde1_5_ami4_1_opt_B97-3c.xyz
| 14>
| 15>                          ****END OF INPUT****
 Total Charge           Charge          ....    0
 Multiplicity           Mult            ....    1
 Number of Electrons    NEL             ....  332
Dispersion correction           -0.281636003
FINAL SINGLE POINT ENERGY     -1980.479854469690
Dispersion correction            ... done
Dispersion correction           -0.281547362
FINAL SINGLE POINT ENERGY     -1980.481161104172
Dispersion correction            ... done
Dispersion correction           -0.281490345
FINAL SINGLE POINT ENERGY     -1980.481705333081
Dispersion correction            ... done
FINAL SINGLE POINT ENERGY     -1980.482227626801
FINAL SINGLE POINT ENERGY     -1980.482621019725
FINAL SINGLE POINT ENERGY     -1980.482994284185
FINAL SINGLE POINT ENERGY     -1980.483263944900
FINAL SINGLE POINT ENERGY     -1980.483501361539
FINAL SINGLE POINT ENERGY     -1980.483751803470
FINAL SINGLE POINT ENERGY     -1980.484014945013
FINAL SINGLE POINT ENERGY     -1980.486831440583
FINAL SINGLE POINT ENERGY     -1980.486838639167
FINAL SINGLE POINT ENERGY     -1980.486844257259
FINAL SINGLE POINT ENERGY     -1980.486849214579
FINAL SINGLE POINT ENERGY     -1980.486853077257
FINAL SINGLE POINT ENERGY     -1980.486857410434
FINAL SINGLE POINT ENERGY     -1980.486861370345
Dispersion correction            ... done
Dispersion correction           -0.274222049
FINAL SINGLE POINT ENERGY     -1980.486864602032
Dispersion correction            ... done
Dispersion correction           -0.274222239
FINAL SINGLE POINT ENERGY     -1980.486867710094
Dispersion correction            ... done
                    ***********************HURRAY********************

CARTESIAN COORDINATES (ANGSTROEM)
---------------------------------
  C     -4.081540   -1.673352   -0.684354
  C     -4.951654   -0.727316    0.009078
  C     -3.665982   -2.875914   -0.103686
  C     -2.778889   -3.710021   -0.770162
  H     -4.042954   -3.137574    0.876279
  C     -2.244032   -3.302995   -1.996205
  C     -2.616432   -2.095016   -2.567398
  H     -1.503832   -3.933084   -2.469438
  C     -3.567748   -1.303480   -1.919518
  C     -1.912551   -1.605850   -3.750816
  H     -3.847583   -0.361182   -2.370138
  C     -2.329270   -4.959978   -0.155236
  H     -1.000917   -2.160355   -4.014762
  H     -5.273726    0.128353   -0.598799
  H     -2.427908   -5.017928    0.938165
  C      2.406603   -1.983780   -2.587931
  C      2.483631   -1.172366   -3.855120
  C      2.902812   -1.478279   -1.401427
  C      2.829357   -2.222435   -0.219552
  H      3.310183   -0.479434   -1.378639
  C      2.246622   -3.482015   -0.237938
  C      1.771736   -4.021747   -1.433574
  H      2.146272   -4.062576    0.669729
  C      1.854295   -3.260779   -2.598748
  C      1.131764   -5.331584   -1.485350
  H      1.469479   -3.666731   -3.527871
  C      3.285140   -1.645163    1.043136
  H      0.778574   -5.636599   -2.480248
  H      2.886138   -2.113552    1.954505
  C     -1.647732    1.616660    0.874458
  C     -2.732804    1.415759    1.834697
  C     -1.918767    1.761519   -0.488422
  C     -0.889946    1.798871   -1.420997
  H     -2.951793    1.792108   -0.806558
  C      0.435875    1.762962   -0.976542
  C      0.722001    1.676125    0.380185
  H      1.242068    1.781132   -1.697109
  C     -0.327528    1.570888    1.298397
  C      2.118115    1.667930    0.813077
  H     -0.085502    1.454481    2.346628
  C     -1.258235    1.800054   -2.833000
  H      2.854909    1.784156    0.009112
  H     -2.316264    2.014055   -3.026675
  C     -4.955122    1.230678    2.506925
  C     -5.964317    0.313663    1.799949
  N     -3.950739    1.641517    1.558975
  H     -4.532733    0.717435    3.379910
  N     -5.271040   -0.822153    1.235599
  H     -6.490881    0.903348    1.039419
  C      3.887440   -0.231701   -5.411500
  C      3.298885    0.930022   -4.600712
  N      3.739731   -1.413247   -4.560893
  H      4.928026   -0.088001   -5.693483
  N      2.419050    0.278262   -3.625692
  H      2.753955    1.637206   -5.229959
  C     -1.255805   -7.033146   -0.144806
  C      0.166031   -7.266772   -0.667245
  N     -1.821614   -5.901975   -0.835380
  H     -1.239107   -6.904613    0.944668
  N      0.952709   -6.073412   -0.468580
  H      0.102023   -7.558704   -1.723454
  C     -1.393615   -0.059444   -5.413240
  C     -1.074278    1.409873   -5.103760
  N     -2.270661   -0.571266   -4.393275
  H     -0.462884   -0.634457   -5.505445
  N     -0.469384    1.520850   -3.792872
  H     -2.003225    1.985896   -5.178172
  C      4.317396   -0.026630    2.366352
  C      3.888608    1.443836    2.287830
  N      4.060880   -0.642102    1.092389
  H      3.801428   -0.522382    3.198800
  N      2.469956    1.529403    2.027060
  H      4.488197    1.931318    1.510037
  H     -2.429328    1.000531    2.806214
  H      1.466512    0.627540   -3.686491
  H      1.671886   -1.503590   -4.520257
  H      4.482325   -1.421746   -3.868903
  H     -5.497442    2.111317    2.858301
  H     -6.691707   -0.031013    2.535044
  H      3.313569   -0.389733   -6.326151
  H      4.088955    1.490100   -4.092698
  H     -1.846189   -7.923339   -0.374951
  H      0.610191   -8.091342   -0.108078
  H     -1.906464   -0.089180   -6.377065
  H     -0.378007    1.781325   -5.855937
  H      5.391055   -0.048686    2.565413
  H      4.105626    1.922104    3.243202

 Multiplicity           Mult            ....    1
 Number of Electrons    NEL             ....  332
 Basis Dimension        Dim             .... 1013

ORBITAL ENERGIES
----------------

  NO   OCC          E(Eh)            E(eV)
   0   2.0000     -13.990035      -380.6882
   1   2.0000     -13.987597      -380.6219
   2   2.0000     -13.984426      -380.5356
   3   2.0000     -13.983365      -380.5067
   4   2.0000     -13.980666      -380.4333
   5   2.0000     -13.977649      -380.3512
   6   2.0000     -13.977329      -380.3424
   7   2.0000     -13.976205      -380.3119
   8   2.0000     -13.976017      -380.3067
   9   2.0000     -13.957707      -379.8085
  10   2.0000      -9.942869      -270.5592
  11   2.0000      -9.941298      -270.5165
  12   2.0000      -9.940955      -270.5071
  13   2.0000      -9.937697      -270.4185
  14   2.0000      -9.936482      -270.3854
  15   2.0000      -9.933451      -270.3029
  16   2.0000      -9.930808      -270.2310
  17   2.0000      -9.930005      -270.2092
  18   2.0000      -9.929274      -270.1893
  19   2.0000      -9.928500      -270.1682
  20   2.0000      -9.926632      -270.1174
  21   2.0000      -9.922845      -270.0143
  22   2.0000      -9.920469      -269.9497
  23   2.0000      -9.919487      -269.9230
  24   2.0000      -9.917991      -269.8823
  25   2.0000      -9.916189      -269.8332
  26   2.0000      -9.915417      -269.8122
  27   2.0000      -9.913928      -269.7717
  28   2.0000      -9.913131      -269.7500
  29   2.0000      -9.912967      -269.7455
  30   2.0000      -9.912563      -269.7346
  31   2.0000      -9.912499      -269.7328
  32   2.0000      -9.911108      -269.6950
  33   2.0000      -9.910726      -269.6846
  34   2.0000      -9.909170      -269.6422
  35   2.0000      -9.908878      -269.6343
  36   2.0000      -9.908682      -269.6290
  37   2.0000      -9.908653      -269.6281
  38   2.0000      -9.907585      -269.5991
  39   2.0000      -9.907203      -269.5887
  40   2.0000      -9.906206      -269.5616
  41   2.0000      -9.904398      -269.5124
  42   2.0000      -9.903109      -269.4773
  43   2.0000      -9.902109      -269.4501
  44   2.0000      -9.900240      -269.3992
  45   2.0000      -9.897931      -269.3364
  46   2.0000      -9.892347      -269.1845
  47   2.0000      -0.880179       -23.9509
  48   2.0000      -0.873668       -23.7737
  49   2.0000      -0.868141       -23.6233
  50   2.0000      -0.865328       -23.5468
  51   2.0000      -0.863361       -23.4932
  52   2.0000      -0.851530       -23.1713
  53   2.0000      -0.845350       -23.0031
  54   2.0000      -0.843021       -22.9398
  55   2.0000      -0.840370       -22.8676
  56   2.0000      -0.804501       -21.8916
  57   2.0000      -0.799374       -21.7521
  58   2.0000      -0.793441       -21.5906
  59   2.0000      -0.771596       -20.9962
  60   2.0000      -0.732894       -19.9430
  61   2.0000      -0.727938       -19.8082
  62   2.0000      -0.725613       -19.7449
  63   2.0000      -0.715667       -19.4743
  64   2.0000      -0.714944       -19.4546
  65   2.0000      -0.709734       -19.3128
  66   2.0000      -0.692130       -18.8338
  67   2.0000      -0.678321       -18.4581
  68   2.0000      -0.675076       -18.3698
  69   2.0000      -0.672238       -18.2925
  70   2.0000      -0.657567       -17.8933
  71   2.0000      -0.618165       -16.8211
  72   2.0000      -0.614619       -16.7246
  73   2.0000      -0.612250       -16.6602
  74   2.0000      -0.610536       -16.6135
  75   2.0000      -0.590450       -16.0670
  76   2.0000      -0.586141       -15.9497
  77   2.0000      -0.581597       -15.8261
  78   2.0000      -0.573343       -15.6015
  79   2.0000      -0.562593       -15.3089
  80   2.0000      -0.556066       -15.1313
  81   2.0000      -0.550598       -14.9825
  82   2.0000      -0.548304       -14.9201
  83   2.0000      -0.536670       -14.6035
  84   2.0000      -0.535164       -14.5625
  85   2.0000      -0.513384       -13.9699
  86   2.0000      -0.499867       -13.6021
  87   2.0000      -0.499190       -13.5836
  88   2.0000      -0.492553       -13.4031
  89   2.0000      -0.490758       -13.3542
  90   2.0000      -0.488060       -13.2808
  91   2.0000      -0.473516       -12.8850
  92   2.0000      -0.471407       -12.8276
  93   2.0000      -0.466869       -12.7042
  94   2.0000      -0.461395       -12.5552
  95   2.0000      -0.459005       -12.4902
  96   2.0000      -0.455818       -12.4034
  97   2.0000      -0.449034       -12.2188
  98   2.0000      -0.445152       -12.1132
  99   2.0000      -0.443907       -12.0793
 100   2.0000      -0.440822       -11.9954
 101   2.0000      -0.438644       -11.9361
 102   2.0000      -0.435260       -11.8440
 103   2.0000      -0.431403       -11.7391
 104   2.0000      -0.429866       -11.6973
 105   2.0000      -0.425803       -11.5867
 106   2.0000      -0.416422       -11.3314
 107   2.0000      -0.409372       -11.1396
 108   2.0000      -0.407239       -11.0815
 109   2.0000      -0.405874       -11.0444
 110   2.0000      -0.403895       -10.9905
 111   2.0000      -0.402194       -10.9443
 112   2.0000      -0.401390       -10.9224
 113   2.0000      -0.396287       -10.7835
 114   2.0000      -0.391068       -10.6415
 115   2.0000      -0.388674       -10.5764
 116   2.0000      -0.387362       -10.5406
 117   2.0000      -0.382789       -10.4162
 118   2.0000      -0.379482       -10.3262
 119   2.0000      -0.378984       -10.3127
 120   2.0000      -0.374681       -10.1956
 121   2.0000      -0.363258        -9.8848
 122   2.0000      -0.360729        -9.8159
 123   2.0000      -0.358675        -9.7601
 124   2.0000      -0.355147        -9.6640
 125   2.0000      -0.351014        -9.5516
 126   2.0000      -0.350175        -9.5288
 127   2.0000      -0.344883        -9.3847
 128   2.0000      -0.344040        -9.3618
 129   2.0000      -0.343528        -9.3479
 130   2.0000      -0.339607        -9.2412
 131   2.0000      -0.337501        -9.1839
 132   2.0000      -0.336133        -9.1466
 133   2.0000      -0.334502        -9.1023
 134   2.0000      -0.331171        -9.0116
 135   2.0000      -0.318929        -8.6785
 136   2.0000      -0.317900        -8.6505
 137   2.0000      -0.314946        -8.5701
 138   2.0000      -0.313414        -8.5284
 139   2.0000      -0.310804        -8.4574
 140   2.0000      -0.307181        -8.3588
 141   2.0000      -0.305850        -8.3226
 142   2.0000      -0.303411        -8.2562
 143   2.0000      -0.302170        -8.2225
 144   2.0000      -0.299928        -8.1615
 145   2.0000      -0.299138        -8.1400
 146   2.0000      -0.295833        -8.0500
 147   2.0000      -0.269625        -7.3369
 148   2.0000      -0.265887        -7.2352
 149   2.0000      -0.261135        -7.1058
 150   2.0000      -0.233640        -6.3577
 151   2.0000      -0.228211        -6.2099
 152   2.0000      -0.226315        -6.1583
 153   2.0000      -0.225905        -6.1472
 154   2.0000      -0.224159        -6.0997
 155   2.0000      -0.224025        -6.0960
 156   2.0000      -0.222038        -6.0420
 157   2.0000      -0.220802        -6.0083
 158   2.0000      -0.218774        -5.9531
 159   2.0000      -0.218343        -5.9414
 160   2.0000      -0.216764        -5.8985
 161   2.0000      -0.215596        -5.8667
 162   2.0000      -0.213903        -5.8206
 163   2.0000      -0.211443        -5.7536
 164   2.0000      -0.200224        -5.4484
 165   2.0000      -0.176775        -4.8103
 166   0.0000      -0.093148        -2.5347
 167   0.0000      -0.088980        -2.4213
 168   0.0000      -0.085232        -2.3193
 169   0.0000      -0.083323        -2.2673
 170   0.0000      -0.079367        -2.1597

MULLIKEN ATOMIC CHARGES
-----------------------
   0 C :    0.277268
   1 C :   -0.366655
   2 C :   -0.182390
   3 C :    0.209744
   4 H :    0.211302
   5 C :   -0.127006
   6 C :    0.187829
   7 H :    0.202819
   8 C :   -0.127994
   9 C :   -0.328891
  10 H :    0.208330
  11 C :   -0.348109
  12 H :    0.091890
  13 H :    0.108592
  14 H :    0.106655
  15 C :    0.304534
  16 C :   -0.582179
  17 C :   -0.104660
  18 C :    0.340735
  19 H :    0.205760
  20 C :   -0.235943
  21 C :    0.315232
  22 H :    0.208931
  23 C :   -0.270172
  24 C :   -0.411317
  25 H :    0.202048
  26 C :   -0.396081
  27 H :    0.104089
  28 H :    0.107064
  29 C :    0.214015
  30 C :   -0.365591
  31 C :   -0.107717
  32 C :    0.226359
  33 H :    0.213280
  34 C :   -0.093709
  35 C :    0.212549
  36 H :    0.248346
  37 C :   -0.198050
  38 C :   -0.394019
  39 H :    0.216261
  40 C :   -0.385215
  41 H :    0.115810
  42 H :    0.126154
  43 C :   -0.258272
  44 C :   -0.273861
  45 N :   -0.095833
  46 H :    0.136779
  47 N :   -0.082409
  48 H :    0.147054
  49 C :   -0.258637
  50 C :   -0.240943
  51 N :   -0.303545
  52 H :    0.189969
  53 N :   -0.292025
  54 H :    0.150721
  55 C :   -0.255250
  56 C :   -0.263966
  57 N :   -0.105163
  58 H :    0.136512
  59 N :   -0.067733
  60 H :    0.140340
  61 C :   -0.257372
  62 C :   -0.265201
  63 N :   -0.093379
  64 H :    0.123830
  65 N :   -0.148401
  66 H :    0.159597
  67 C :   -0.262049
  68 C :   -0.272984
  69 N :   -0.091584
  70 H :    0.133212
  71 N :   -0.075447
  72 H :    0.147989
  73 H :    0.111485
  74 H :    0.302596
  75 H :    0.121451
  76 H :    0.307407
  77 H :    0.179210
  78 H :    0.178414
  79 H :    0.148004
  80 H :    0.140532
  81 H :    0.177696
  82 H :    0.176391
  83 H :    0.180520
  84 H :    0.178702
  85 H :    0.177899
  86 H :    0.177848
Sum of atomic charges:   -0.0000000

LOEWDIN ATOMIC CHARGES
----------------------
   0 C :   -0.078034
   1 C :   -0.039719
   2 C :   -0.102793
   3 C :   -0.075931
   4 H :    0.183842
   5 C :   -0.100512
   6 C :   -0.079911
   7 H :    0.182311
   8 C :   -0.106354
   9 C :   -0.028213
  10 H :    0.180104
  11 C :   -0.031055
  12 H :    0.142174
  13 H :    0.142648
  14 H :    0.142038
  15 C :   -0.072104
  16 C :   -0.033201
  17 C :   -0.110589
  18 C :   -0.079814
  19 H :    0.188263
  20 C :   -0.112947
  21 C :   -0.083177
  22 H :    0.181943
  23 C :   -0.129220
  24 C :   -0.041265
  25 H :    0.169689
  26 C :   -0.030603
  27 H :    0.139370
  28 H :    0.140747
  29 C :   -0.079717
  30 C :   -0.029564
  31 C :   -0.103525
  32 C :   -0.080823
  33 H :    0.180682
  34 C :   -0.104214
  35 C :   -0.076274
  36 H :    0.187257
  37 C :   -0.100857
  38 C :   -0.038178
  39 H :    0.184612
  40 C :   -0.027113
  41 H :    0.148509
  42 H :    0.148664
  43 C :   -0.205124
  44 C :   -0.211381
  45 N :   -0.196922
  46 H :    0.141185
  47 N :   -0.200021
  48 H :    0.143594
  49 C :   -0.214333
  50 C :   -0.214800
  51 N :   -0.357813
  52 H :    0.154679
  53 N :   -0.403944
  54 H :    0.142907
  55 C :   -0.206055
  56 C :   -0.210762
  57 N :   -0.192040
  58 H :    0.141200
  59 N :   -0.201543
  60 H :    0.141537
  61 C :   -0.205600
  62 C :   -0.212627
  63 N :   -0.197216
  64 H :    0.137605
  65 N :   -0.216697
  66 H :    0.149031
  67 C :   -0.205306
  68 C :   -0.212067
  69 N :   -0.198859
  70 H :    0.140152
  71 N :   -0.200474
  72 H :    0.145265
  73 H :    0.142544
  74 H :    0.272181
  75 H :    0.134408
  76 H :    0.269167
  77 H :    0.160237
  78 H :    0.154591
  79 H :    0.147983
  80 H :    0.135705
  81 H :    0.160231
  82 H :    0.154288
  83 H :    0.161544
  84 H :    0.153926
  85 H :    0.158914
  86 H :    0.153561

  Mayer bond orders larger than 0.100000
B(  0-C ,  1-C ) :   0.9590 B(  0-C ,  2-C ) :   1.3811 B(  0-C ,  3-C ) :   0.1314
B(  0-C ,  6-C ) :   0.1265 B(  0-C ,  8-C ) :   1.1597 B(  0-C , 47-N ) :  -0.2550
B(  1-C , 13-H ) :   0.8941 B(  1-C , 47-N ) :   2.0508 B(  2-C ,  3-C ) :   1.2041
B(  2-C ,  4-H ) :   0.8903 B(  2-C , 47-N ) :   0.1044 B(  3-C ,  5-C ) :   1.3884
B(  3-C ,  6-C ) :   0.1386 B(  3-C , 11-C ) :   0.9593 B(  3-C , 57-N ) :  -0.2637
B(  5-C ,  6-C ) :   1.2045 B(  5-C ,  7-H ) :   0.8770 B(  6-C ,  8-C ) :   1.4118
B(  6-C ,  9-C ) :   0.9841 B(  6-C , 63-N ) :  -0.2382 B(  8-C , 10-H ) :   0.8669
B(  9-C , 12-H ) :   0.9044 B(  9-C , 63-N ) :   2.0430 B( 11-C , 14-H ) :   0.8986
B( 11-C , 57-N ) :   2.0627 B( 15-C , 16-C ) :   0.6453 B( 15-C , 17-C ) :   1.3557
B( 15-C , 18-C ) :   0.1296 B( 15-C , 21-C ) :   0.1011 B( 15-C , 23-C ) :   1.3585
B( 15-C , 51-N ) :  -0.1382 B( 16-C , 51-N ) :   1.2784 B( 16-C , 53-N ) :   0.9765
B( 16-C , 75-H ) :   0.9821 B( 17-C , 18-C ) :   1.2476 B( 17-C , 19-H ) :   0.9012
B( 18-C , 20-C ) :   1.1792 B( 18-C , 21-C ) :   0.1004 B( 18-C , 26-C ) :   0.9430
B( 18-C , 69-N ) :  -0.2798 B( 20-C , 21-C ) :   1.4238 B( 20-C , 22-H ) :   0.8890
B( 21-C , 23-C ) :   1.2200 B( 21-C , 24-C ) :   0.9191 B( 21-C , 59-N ) :  -0.2618
B( 23-C , 24-C ) :   0.1093 B( 23-C , 25-H ) :   0.8771 B( 24-C , 27-H ) :   0.8981
B( 24-C , 59-N ) :   2.0512 B( 26-C , 28-H ) :   0.8991 B( 26-C , 69-N ) :   2.0823
B( 29-C , 30-C ) :   0.9700 B( 29-C , 31-C ) :   1.4065 B( 29-C , 32-C ) :   0.1505
B( 29-C , 35-C ) :   0.1394 B( 29-C , 37-C ) :   1.1622 B( 29-C , 45-N ) :  -0.2614
B( 30-C , 45-N ) :   2.0671 B( 30-C , 73-H ) :   0.8959 B( 31-C , 32-C ) :   1.1380
B( 31-C , 33-H ) :   0.8678 B( 32-C , 34-C ) :   1.2798 B( 32-C , 35-C ) :   0.1851
B( 32-C , 40-C ) :   1.0124 B( 32-C , 65-N ) :  -0.2059 B( 34-C , 35-C ) :   1.2232
B( 34-C , 36-H ) :   0.8684 B( 34-C , 65-N ) :   0.1018 B( 35-C , 37-C ) :   1.3764
B( 35-C , 38-C ) :   0.9515 B( 35-C , 71-N ) :  -0.2587 B( 37-C , 39-H ) :   0.8871
B( 38-C , 41-H ) :   0.8980 B( 38-C , 71-N ) :   2.0546 B( 40-C , 42-H ) :   0.8973
B( 40-C , 65-N ) :   2.0078 B( 43-C , 44-C ) :   0.9128 B( 43-C , 45-N ) :   0.9238
B( 43-C , 46-H ) :   0.9277 B( 43-C , 77-H ) :   0.9342 B( 44-C , 47-N ) :   0.9247
B( 44-C , 48-H ) :   0.9306 B( 44-C , 78-H ) :   0.9436 B( 49-C , 50-C ) :   0.9528
B( 49-C , 51-N ) :   1.0056 B( 49-C , 52-H ) :   0.9450 B( 49-C , 79-H ) :   0.9422
B( 50-C , 53-N ) :   0.9953 B( 50-C , 54-H ) :   0.9545 B( 50-C , 80-H ) :   0.9439
B( 51-N , 76-H ) :   0.8488 B( 53-N , 74-H ) :   0.8950 B( 55-C , 56-C ) :   0.9138
B( 55-C , 57-N ) :   0.9247 B( 55-C , 58-H ) :   0.9301 B( 55-C , 81-H ) :   0.9333
B( 56-C , 59-N ) :   0.9220 B( 56-C , 60-H ) :   0.9268 B( 56-C , 82-H ) :   0.9436
B( 61-C , 62-C ) :   0.9021 B( 61-C , 63-N ) :   0.9274 B( 61-C , 64-H ) :   0.9369
B( 61-C , 83-H ) :   0.9364 B( 62-C , 65-N ) :   0.8829 B( 62-C , 66-H ) :   0.9323
B( 62-C , 84-H ) :   0.9461 B( 67-C , 68-C ) :   0.9202 B( 67-C , 69-N ) :   0.9267
B( 67-C , 70-H ) :   0.9258 B( 67-C , 85-H ) :   0.9355 B( 68-C , 71-N ) :   0.9133
B( 68-C , 72-H ) :   0.9311 B( 68-C , 86-H ) :   0.9423

Dispersion correction           -0.274226332
FINAL SINGLE POINT ENERGY     -1980.486870877550

DIPOLE MOMENT
-------------
                                X             Y             Z
Electronic contribution:     -8.05270      -2.33884       6.71627
Nuclear contribution   :      7.74762       2.69521      -6.88852
                        -----------------------------------------
Total Dipole Moment    :     -0.30508       0.35637      -0.17224
                        -----------------------------------------
Magnitude (a.u.)       :      0.49974
Magnitude (Debye)      :      1.27024

Rotational constants in cm-1:     0.002296     0.001962     0.001717
Rotational constants in MHz :    68.831328    58.807732    51.460111

                             ****ORCA TERMINATED NORMALLY****
TOTAL RUN TIME: 0 days 1 hours 40 minutes 15 seconds 69 msec
