                         Program Version 4.2.1 -  RELEASE  -
|  1> ! RI-MP2 cc-pVTZ cc-pVTZ/C TIGHTSCF printbasis Grid6 NOFINALGRID SlowConv
|  2>
|  3> %base "_o_3_alde1_5_ami1_2_opt_MP2"
|  4> %maxcore 3000
|  5> %pal
|  6>    nprocs 32
|  7> end
|  8>
|  9> * xyzfile 0 1 _o_3_alde1_5_ami1_2_opt_B97-3c.xyz
| 10>
| 11>                          ****END OF INPUT****

CARTESIAN COORDINATES (ANGSTROEM)
---------------------------------
  C     -3.300939   -1.865267   -0.549720
  C     -3.391438   -1.464675    0.850490
  C     -2.554089   -2.970491   -0.966995
  C     -2.397380   -3.247861   -2.317892
  H     -2.090181   -3.598598   -0.217826
  C     -2.957204   -2.383523   -3.265842
  C     -3.713804   -1.292666   -2.866689
  H     -2.790862   -2.588471   -4.315124
  C     -3.903070   -1.058126   -1.502379
  C     -4.219128   -0.341833   -3.855406
  H     -4.488715   -0.199986   -1.204056
  C     -1.642779   -4.430887   -2.724462
  H     -3.770617   -0.415082   -4.856283
  H     -4.091637   -0.642743    1.049740
  H     -1.248434   -5.045033   -1.903388
  C      2.978133   -2.881561   -0.086930
  C      3.034305   -3.509458    1.230940
  C      3.542784   -1.620159   -0.299070
  C      3.495547   -1.021081   -1.547492
  H      4.030673   -1.126376    0.530854
  C      2.851577   -1.682227   -2.598197
  C      2.299429   -2.940015   -2.408808
  H      2.807186   -1.197937   -3.564681
  C      2.366417   -3.536351   -1.144645
  C      1.674081   -3.624756   -3.538348
  H      1.932494   -4.518310   -1.011166
  C      4.126497    0.281865   -1.731871
  H      1.514043   -3.010166   -4.435015
  H      2.568608   -4.502439    1.312628
  H      4.513506    0.746971   -0.814519
  C     -0.769438    1.489461    0.043779
  C     -0.671284    0.707169    1.277470
  C     -2.023194    1.849688   -0.457946
  C     -2.151584    2.432279   -1.709629
  H     -2.898161    1.611950    0.130553
  C     -1.001467    2.710699   -2.451155
  C      0.255553    2.429130   -1.936520
  H     -1.110069    3.153458   -3.432434
  C      0.365305    1.790040   -0.696198
  C      1.436958    2.782964   -2.718677
  H      1.349408    1.526092   -0.332250
  C     -3.489562    2.645341   -2.252122
  H      1.255249    2.981953   -3.784782
  H     -4.310594    2.479591   -1.542300
  C     -1.537045   -0.350648    3.179743
  C     -2.749978   -1.311997    3.070661
  N     -1.648756    0.575533    2.074518
  H     -0.624003   -0.949141    3.086247
  C     -1.459453    0.402176    4.520910
  N     -2.670061   -1.954530    1.773196
  H     -3.647449   -0.682827    3.124719
  C     -2.843433   -2.361091    4.185267
  H     -1.429452   -0.366255    5.295721
  C     -2.658230    1.301959    4.783193
  C     -0.152020    1.176009    4.620852
  H     -2.947466   -1.810822    5.122888
  C     -1.609515   -3.244368    4.284895
  C     -4.104656   -3.197027    4.010766
  H     -0.096763    1.964822    3.871450
  H      0.703601    0.513683    4.496026
  H     -0.066419    1.646168    5.600018
  H     -3.595403    0.748829    4.813632
  H     -2.748504    2.063758    4.011742
  H     -2.546420    1.805490    5.742718
  H     -4.234183   -3.878010    4.851233
  H     -4.057798   -3.792571    3.100298
  H     -4.993531   -2.568212    3.951425
  H     -1.745566   -4.009824    5.048570
  H     -0.725568   -2.673504    4.556621
  H     -1.416234   -3.742187    3.336432
  C      2.935818   -2.722538    4.585703
  C      3.616622   -3.618207    3.499233
  N      2.071455   -1.681467    4.027871
  H      3.723703   -2.202100    5.135489
  C      2.123221   -3.546187    5.596004
  N      3.580572   -2.942510    2.225124
  H      3.053040   -4.562260    3.439739
  C      5.085229   -3.959045    3.835241
  H      1.300428   -3.999629    5.030010
  C      1.519305   -2.653203    6.673488
  C      2.907418   -4.674337    6.251577
  H      5.101760   -4.236137    4.889606
  C      6.024166   -2.773443    3.651529
  C      5.566746   -5.156172    3.029368
  H      3.757767   -4.284121    6.812297
  H      3.280783   -5.404806    5.537729
  H      2.274099   -5.208529    6.958811
  H      2.305406   -2.215305    7.291044
  H      0.867813   -3.230157    7.329570
  H      0.948400   -1.836807    6.244244
  H      6.587081   -5.423090    3.303246
  H      5.561172   -4.939170    1.961066
  H      4.937231   -6.030985    3.196037
  H      7.020135   -3.024159    4.015392
  H      5.686669   -1.890518    4.192070
  H      6.107265   -2.499137    2.602619
  C     -0.673321   -5.921203   -4.238177
  C      0.732140   -5.441216   -4.666247
  N     -1.456064   -4.741312   -3.940542
  H     -0.534878   -6.531246   -3.335985
  C     -1.409436   -6.777979   -5.279649
  N      1.349576   -4.849969   -3.500295
  H      0.595985   -4.690540   -5.455850
  C      1.641376   -6.548110   -5.230158
  H     -0.788445   -7.658879   -5.453353
  C     -1.621714   -6.066189   -6.607900
  C     -2.733446   -7.266575   -4.706263
  H      1.117884   -6.958078   -6.095384
  C      1.906715   -7.679680   -4.248375
  C      2.945959   -5.949378   -5.739514
  H     -2.590142   -7.783012   -3.756372
  H     -3.218060   -7.960381   -5.392050
  H     -3.415258   -6.435579   -4.532789
  H     -2.199711   -5.156124   -6.465116
  H     -2.164661   -6.708425   -7.300754
  H     -0.682941   -5.791563   -7.086163
  H      3.544494   -5.548928   -4.922842
  H      2.762957   -5.139955   -6.447212
  H      3.541783   -6.706071   -6.248379
  H      2.398666   -7.306519   -3.353069
  H      2.553001   -8.429966   -4.703034
  H      0.991377   -8.181510   -3.939943
  C     -5.376644    1.561796   -4.559068
  C     -5.095188    2.937855   -3.900459
  N     -5.067954    0.555594   -3.568007
  H     -4.708743    1.464238   -5.424064
  C     -6.821250    1.401359   -5.066557
  N     -3.712361    2.932604   -3.468695
  H     -5.761803    3.009607   -3.031643
  C     -5.368524    4.143509   -4.809257
  H     -6.985078    2.211666   -5.779796
  C     -7.869173    1.510094   -3.968218
  C     -6.968841    0.093743   -5.833321
  H     -6.431176    4.111548   -5.060027
  C     -4.567148    4.120526   -6.103071
  C     -5.125600    5.437467   -4.043011
  H     -6.846111   -0.767062   -5.177854
  H     -6.230332    0.014110   -6.631709
  H     -7.956073    0.025735   -6.288312
  H     -8.867263    1.371152   -4.382320
  H     -7.854158    2.481018   -3.476802
  H     -7.711288    0.750532   -3.205633
  H     -5.405858    6.300673   -4.645701
  H     -4.075217    5.541481   -3.775459
  H     -5.708416    5.470388   -3.121951
  H     -4.822984    3.271145   -6.734262
  H     -3.501207    4.069266   -5.891559
  H     -4.754640    5.023879   -6.682730
  C      4.823713    2.169943   -2.885986
  C      3.695373    3.208610   -3.092349
  N      4.229748    0.851997   -2.859843
  H      5.286858    2.393862   -1.915901
  C      5.925482    2.228131   -3.958289
  N      2.597911    2.864439   -2.216485
  H      3.379082    3.159287   -4.141905
  C      4.152920    4.655709   -2.807397
  H      6.230003    3.273744   -4.040878
  C      5.466713    1.758585   -5.332319
  C      7.143158    1.436638   -3.499092
  H      5.110462    4.784484   -3.316047
  C      4.361338    4.945145   -1.326683
  C      3.180504    5.656063   -3.418304
  H      7.518065    1.801306   -2.542353
  H      7.952261    1.515400   -4.224279
  H      6.902536    0.380271   -3.383840
  H      5.183587    0.709158   -5.307127
  H      6.272150    1.876643   -6.056772
  H      4.610469    2.321094   -5.700361
  H      3.071834    5.506473   -4.492757
  H      3.530624    6.675691   -3.260936
  H      2.191998    5.576604   -2.966425
  H      5.057687    4.250249   -0.861564
  H      3.423285    4.880024   -0.780669
  H      4.762252    5.949444   -1.194126
  H      1.341189   -2.126293    3.480717
  H      2.612290   -1.160200    3.348450
  H      0.284921    0.188334    1.437581

 Total Charge           Charge          ....    0
 Multiplicity           Mult            ....    1
 Number of Electrons    NEL             ....  572
 Basis Dimension        Dim             .... 3710

ORBITAL ENERGIES
----------------

  NO   OCC          E(Eh)            E(eV)
   0   2.0000     -15.557642      -423.3450
   1   2.0000     -15.552434      -423.2033
   2   2.0000     -15.550492      -423.1504
   3   2.0000     -15.549962      -423.1360
   4   2.0000     -15.549646      -423.1274
   5   2.0000     -15.548821      -423.1049
   6   2.0000     -15.547085      -423.0577
   7   2.0000     -15.546420      -423.0396
   8   2.0000     -15.546233      -423.0345
   9   2.0000     -15.530134      -422.5964
  10   2.0000     -11.286037      -307.1087
  11   2.0000     -11.281226      -306.9778
  12   2.0000     -11.279358      -306.9269
  13   2.0000     -11.278236      -306.8964
  14   2.0000     -11.277884      -306.8868
  15   2.0000     -11.277300      -306.8709
  16   2.0000     -11.276786      -306.8570
  17   2.0000     -11.275583      -306.8242
  18   2.0000     -11.275066      -306.8101
  19   2.0000     -11.253019      -306.2102
  20   2.0000     -11.251425      -306.1668
  21   2.0000     -11.251270      -306.1626
  22   2.0000     -11.251264      -306.1624
  23   2.0000     -11.250554      -306.1431
  24   2.0000     -11.250207      -306.1337
  25   2.0000     -11.250029      -306.1289
  26   2.0000     -11.249592      -306.1170
  27   2.0000     -11.249331      -306.1099
  28   2.0000     -11.249104      -306.1037
  29   2.0000     -11.248647      -306.0912
  30   2.0000     -11.248493      -306.0870
  31   2.0000     -11.247861      -306.0699
  32   2.0000     -11.247565      -306.0618
  33   2.0000     -11.247080      -306.0486
  34   2.0000     -11.246633      -306.0364
  35   2.0000     -11.246555      -306.0343
  36   2.0000     -11.245972      -306.0185
  37   2.0000     -11.245894      -306.0163
  38   2.0000     -11.245711      -306.0113
  39   2.0000     -11.244929      -305.9901
  40   2.0000     -11.244640      -305.9822
  41   2.0000     -11.244427      -305.9764
  42   2.0000     -11.244278      -305.9723
  43   2.0000     -11.243485      -305.9508
  44   2.0000     -11.243389      -305.9482
  45   2.0000     -11.243088      -305.9400
  46   2.0000     -11.242045      -305.9116
  47   2.0000     -11.224877      -305.4444
  48   2.0000     -11.224649      -305.4382
  49   2.0000     -11.223831      -305.4160
  50   2.0000     -11.223830      -305.4160
  51   2.0000     -11.222787      -305.3876
  52   2.0000     -11.222498      -305.3797
  53   2.0000     -11.221573      -305.3545
  54   2.0000     -11.220496      -305.3252
  55   2.0000     -11.219040      -305.2856
  56   2.0000     -11.216651      -305.2206
  57   2.0000     -11.210578      -305.0553
  58   2.0000     -11.209907      -305.0371
  59   2.0000     -11.208278      -304.9927
  60   2.0000     -11.206881      -304.9547
  61   2.0000     -11.206796      -304.9524
  62   2.0000     -11.205933      -304.9289
  63   2.0000     -11.205473      -304.9164
  64   2.0000     -11.205026      -304.9043
  65   2.0000     -11.204314      -304.8849
  66   2.0000     -11.204297      -304.8844
  67   2.0000     -11.203588      -304.8651
  68   2.0000     -11.203359      -304.8589
  69   2.0000     -11.203088      -304.8515
  70   2.0000     -11.202984      -304.8487
  71   2.0000     -11.202956      -304.8479
  72   2.0000     -11.202644      -304.8394
  73   2.0000     -11.202275      -304.8294
  74   2.0000     -11.199119      -304.7435
  75   2.0000     -11.199028      -304.7410
  76   2.0000     -11.192617      -304.5666
  77   2.0000      -1.257325       -34.2135
  78   2.0000      -1.255647       -34.1679
  79   2.0000      -1.255355       -34.1600
  80   2.0000      -1.252611       -34.0853
  81   2.0000      -1.252417       -34.0800
  82   2.0000      -1.228116       -33.4187
  83   2.0000      -1.227499       -33.4020
  84   2.0000      -1.222983       -33.2791
  85   2.0000      -1.220010       -33.1982
  86   2.0000      -1.184902       -32.2428
  87   2.0000      -1.172196       -31.8971
  88   2.0000      -1.167226       -31.7618
  89   2.0000      -1.162934       -31.6450
  90   2.0000      -1.102897       -30.0114
  91   2.0000      -1.102316       -29.9955
  92   2.0000      -1.100456       -29.9449
  93   2.0000      -1.091678       -29.7061
  94   2.0000      -1.086893       -29.5759
  95   2.0000      -1.073753       -29.2183
  96   2.0000      -1.071265       -29.1506
  97   2.0000      -1.069427       -29.1006
  98   2.0000      -1.064199       -28.9583
  99   2.0000      -1.063579       -28.9415
 100   2.0000      -1.047912       -28.5151
 101   2.0000      -1.047427       -28.5019
 102   2.0000      -1.045694       -28.4548
 103   2.0000      -1.044137       -28.4124
 104   2.0000      -1.040886       -28.3239
 105   2.0000      -1.039199       -28.2780
 106   2.0000      -0.979198       -26.6453
 107   2.0000      -0.973361       -26.4865
 108   2.0000      -0.972396       -26.4602
 109   2.0000      -0.967596       -26.3296
 110   2.0000      -0.962228       -26.1835
 111   2.0000      -0.930903       -25.3312
 112   2.0000      -0.930563       -25.3219
 113   2.0000      -0.930076       -25.3087
 114   2.0000      -0.929807       -25.3013
 115   2.0000      -0.928081       -25.2544
 116   2.0000      -0.927040       -25.2260
 117   2.0000      -0.926565       -25.2131
 118   2.0000      -0.925985       -25.1973
 119   2.0000      -0.925136       -25.1742
 120   2.0000      -0.920758       -25.0551
 121   2.0000      -0.906502       -24.6672
 122   2.0000      -0.905111       -24.6293
 123   2.0000      -0.904534       -24.6136
 124   2.0000      -0.899200       -24.4685
 125   2.0000      -0.888912       -24.1885
 126   2.0000      -0.875110       -23.8130
 127   2.0000      -0.872634       -23.7456
 128   2.0000      -0.868993       -23.6465
 129   2.0000      -0.850992       -23.1567
 130   2.0000      -0.844042       -22.9675
 131   2.0000      -0.842745       -22.9322
 132   2.0000      -0.840109       -22.8605
 133   2.0000      -0.828024       -22.5317
 134   2.0000      -0.823125       -22.3984
 135   2.0000      -0.791179       -21.5291
 136   2.0000      -0.790401       -21.5079
 137   2.0000      -0.789719       -21.4894
 138   2.0000      -0.780886       -21.2490
 139   2.0000      -0.773643       -21.0519
 140   2.0000      -0.770313       -20.9613
 141   2.0000      -0.764246       -20.7962
 142   2.0000      -0.764039       -20.7906
 143   2.0000      -0.755477       -20.5576
 144   2.0000      -0.747073       -20.3289
 145   2.0000      -0.743314       -20.2266
 146   2.0000      -0.741798       -20.1853
 147   2.0000      -0.738439       -20.0939
 148   2.0000      -0.738148       -20.0860
 149   2.0000      -0.729894       -19.8614
 150   2.0000      -0.727993       -19.8097
 151   2.0000      -0.706153       -19.2154
 152   2.0000      -0.703047       -19.1309
 153   2.0000      -0.700760       -19.0686
 154   2.0000      -0.685086       -18.6421
 155   2.0000      -0.682104       -18.5610
 156   2.0000      -0.681184       -18.5360
 157   2.0000      -0.670508       -18.2455
 158   2.0000      -0.668860       -18.2006
 159   2.0000      -0.666186       -18.1278
 160   2.0000      -0.664475       -18.0813
 161   2.0000      -0.663175       -18.0459
 162   2.0000      -0.654678       -17.8147
 163   2.0000      -0.651871       -17.7383
 164   2.0000      -0.651564       -17.7300
 165   2.0000      -0.648478       -17.6460
 166   2.0000      -0.645562       -17.5666
 167   2.0000      -0.640262       -17.4224
 168   2.0000      -0.636262       -17.3136
 169   2.0000      -0.635199       -17.2846
 170   2.0000      -0.633353       -17.2344
 171   2.0000      -0.631673       -17.1887
 172   2.0000      -0.625166       -17.0116
 173   2.0000      -0.621758       -16.9189
 174   2.0000      -0.621087       -16.9006
 175   2.0000      -0.619965       -16.8701
 176   2.0000      -0.615863       -16.7585
 177   2.0000      -0.612365       -16.6633
 178   2.0000      -0.609533       -16.5862
 179   2.0000      -0.606391       -16.5007
 180   2.0000      -0.601018       -16.3545
 181   2.0000      -0.600005       -16.3270
 182   2.0000      -0.598140       -16.2762
 183   2.0000      -0.595557       -16.2059
 184   2.0000      -0.592597       -16.1254
 185   2.0000      -0.591745       -16.1022
 186   2.0000      -0.587848       -15.9962
 187   2.0000      -0.586036       -15.9469
 188   2.0000      -0.583742       -15.8844
 189   2.0000      -0.583524       -15.8785
 190   2.0000      -0.581719       -15.8294
 191   2.0000      -0.580889       -15.8068
 192   2.0000      -0.579033       -15.7563
 193   2.0000      -0.576250       -15.6806
 194   2.0000      -0.575804       -15.6684
 195   2.0000      -0.574502       -15.6330
 196   2.0000      -0.571887       -15.5618
 197   2.0000      -0.567854       -15.4521
 198   2.0000      -0.564866       -15.3708
 199   2.0000      -0.563251       -15.3268
 200   2.0000      -0.561850       -15.2887
 201   2.0000      -0.551805       -15.0154
 202   2.0000      -0.548478       -14.9248
 203   2.0000      -0.545694       -14.8491
 204   2.0000      -0.544228       -14.8092
 205   2.0000      -0.542574       -14.7642
 206   2.0000      -0.541051       -14.7228
 207   2.0000      -0.540130       -14.6977
 208   2.0000      -0.538993       -14.6667
 209   2.0000      -0.536014       -14.5857
 210   2.0000      -0.534970       -14.5573
 211   2.0000      -0.533928       -14.5289
 212   2.0000      -0.533563       -14.5190
 213   2.0000      -0.531812       -14.4714
 214   2.0000      -0.530180       -14.4269
 215   2.0000      -0.529156       -14.3991
 216   2.0000      -0.528366       -14.3776
 217   2.0000      -0.527774       -14.3615
 218   2.0000      -0.527052       -14.3418
 219   2.0000      -0.524034       -14.2597
 220   2.0000      -0.523671       -14.2498
 221   2.0000      -0.522770       -14.2253
 222   2.0000      -0.521091       -14.1796
 223   2.0000      -0.519121       -14.1260
 224   2.0000      -0.518052       -14.0969
 225   2.0000      -0.517201       -14.0738
 226   2.0000      -0.516509       -14.0549
 227   2.0000      -0.512962       -13.9584
 228   2.0000      -0.512121       -13.9355
 229   2.0000      -0.509290       -13.8585
 230   2.0000      -0.507454       -13.8085
 231   2.0000      -0.500244       -13.6123
 232   2.0000      -0.497199       -13.5295
 233   2.0000      -0.495855       -13.4929
 234   2.0000      -0.491766       -13.3816
 235   2.0000      -0.488508       -13.2930
 236   2.0000      -0.482341       -13.1252
 237   2.0000      -0.481707       -13.1079
 238   2.0000      -0.478762       -13.0278
 239   2.0000      -0.477343       -12.9892
 240   2.0000      -0.477097       -12.9825
 241   2.0000      -0.476735       -12.9726
 242   2.0000      -0.476661       -12.9706
 243   2.0000      -0.476181       -12.9575
 244   2.0000      -0.474428       -12.9098
 245   2.0000      -0.471727       -12.8363
 246   2.0000      -0.471365       -12.8265
 247   2.0000      -0.470626       -12.8064
 248   2.0000      -0.469997       -12.7893
 249   2.0000      -0.469182       -12.7671
 250   2.0000      -0.465936       -12.6788
 251   2.0000      -0.461213       -12.5503
 252   2.0000      -0.458802       -12.4846
 253   2.0000      -0.458520       -12.4770
 254   2.0000      -0.457460       -12.4481
 255   2.0000      -0.456677       -12.4268
 256   2.0000      -0.454416       -12.3653
 257   2.0000      -0.453780       -12.3480
 258   2.0000      -0.452015       -12.3000
 259   2.0000      -0.451572       -12.2879
 260   2.0000      -0.448588       -12.2067
 261   2.0000      -0.442565       -12.0428
 262   2.0000      -0.441494       -12.0137
 263   2.0000      -0.438671       -11.9368
 264   2.0000      -0.433911       -11.8073
 265   2.0000      -0.432193       -11.7606
 266   2.0000      -0.426135       -11.5957
 267   2.0000      -0.409260       -11.1365
 268   2.0000      -0.406984       -11.0746
 269   2.0000      -0.405861       -11.0440
 270   2.0000      -0.404351       -11.0029
 271   2.0000      -0.403199       -10.9716
 272   2.0000      -0.403063       -10.9679
 273   2.0000      -0.400953       -10.9105
 274   2.0000      -0.397928       -10.8282
 275   2.0000      -0.396014       -10.7761
 276   2.0000      -0.394681       -10.7398
 277   2.0000      -0.388446       -10.5701
 278   2.0000      -0.387636       -10.5481
 279   2.0000      -0.381941       -10.3931
 280   2.0000      -0.326783        -8.8922
 281   2.0000      -0.326414        -8.8822
 282   2.0000      -0.324921        -8.8415
 283   2.0000      -0.322742        -8.7823
 284   2.0000      -0.319575        -8.6961
 285   2.0000      -0.316304        -8.6071
 286   0.0000       0.069782         1.8989
 287   0.0000       0.070227         1.9110
 288   0.0000       0.071093         1.9345
 289   0.0000       0.075403         2.0518
 290   0.0000       0.080515         2.1909

MULLIKEN ATOMIC CHARGES
-----------------------
   0 C :    0.184891
   1 C :   -0.108969
   2 C :   -0.213087
   3 C :    0.190664
   4 H :    0.159012
   5 C :   -0.225343
   6 C :    0.214962
   7 H :    0.165305
   8 C :   -0.227770
   9 C :   -0.112315
  10 H :    0.166324
  11 C :   -0.134030
  12 H :    0.093806
  13 H :    0.096618
  14 H :    0.097125
  15 C :    0.189069
  16 C :   -0.149116
  17 C :   -0.228068
  18 C :    0.175736
  19 H :    0.168345
  20 C :   -0.203562
  21 C :    0.211580
  22 H :    0.161406
  23 C :   -0.220140
  24 C :   -0.134089
  25 H :    0.160761
  26 C :   -0.103600
  27 H :    0.095875
  28 H :    0.101561
  29 H :    0.085018
  30 C :    0.211809
  31 C :   -0.119188
  32 C :   -0.227342
  33 C :    0.188534
  34 H :    0.165501
  35 C :   -0.230894
  36 C :    0.199172
  37 H :    0.163537
  38 C :   -0.221467
  39 C :   -0.124325
  40 H :    0.159364
  41 C :   -0.111635
  42 H :    0.097088
  43 H :    0.099659
  44 C :    0.040252
  45 C :    0.049481
  46 N :   -0.296992
  47 H :    0.126391
  48 C :   -0.066510
  49 N :   -0.291578
  50 H :    0.108955
  51 C :   -0.061650
  52 H :    0.111898
  53 C :   -0.314550
  54 C :   -0.345336
  55 H :    0.115416
  56 C :   -0.341268
  57 C :   -0.329412
  58 H :    0.097342
  59 H :    0.114866
  60 H :    0.102981
  61 H :    0.092672
  62 H :    0.108981
  63 H :    0.104674
  64 H :    0.104571
  65 H :    0.102192
  66 H :    0.094798
  67 H :    0.110150
  68 H :    0.098022
  69 H :    0.111340
  70 C :    0.043057
  71 C :    0.003422
  72 N :   -0.391712
  73 H :    0.114713
  74 C :   -0.066036
  75 N :   -0.272819
  76 H :    0.105621
  77 C :   -0.068210
  78 H :    0.108336
  79 C :   -0.338954
  80 C :   -0.346570
  81 H :    0.123915
  82 C :   -0.308009
  83 C :   -0.322537
  84 H :    0.097649
  85 H :    0.104527
  86 H :    0.116071
  87 H :    0.097578
  88 H :    0.099073
  89 H :    0.135664
  90 H :    0.109060
  91 H :    0.098172
  92 H :    0.096937
  93 H :    0.104558
  94 H :    0.096718
  95 H :    0.103754
  96 C :    0.053248
  97 C :    0.049740
  98 N :   -0.282327
  99 H :    0.106774
 100 C :   -0.074212
 101 N :   -0.279858
 102 H :    0.109122
 103 C :   -0.074340
 104 H :    0.116698
 105 C :   -0.317441
 106 C :   -0.329221
 107 H :    0.118750
 108 C :   -0.314735
 109 C :   -0.332681
 110 H :    0.093802
 111 H :    0.105875
 112 H :    0.104197
 113 H :    0.111666
 114 H :    0.104985
 115 H :    0.093611
 116 H :    0.102846
 117 H :    0.095803
 118 H :    0.108799
 119 H :    0.109854
 120 H :    0.105023
 121 H :    0.095554
 122 C :    0.047396
 123 C :    0.051444
 124 N :   -0.293789
 125 H :    0.110183
 126 C :   -0.070166
 127 N :   -0.294766
 128 H :    0.107029
 129 C :   -0.068905
 130 H :    0.115546
 131 C :   -0.315168
 132 C :   -0.329858
 133 H :    0.113007
 134 C :   -0.319778
 135 C :   -0.324767
 136 H :    0.101305
 137 H :    0.096241
 138 H :    0.109395
 139 H :    0.104712
 140 H :    0.095950
 141 H :    0.109804
 142 H :    0.103939
 143 H :    0.103606
 144 H :    0.094022
 145 H :    0.093852
 146 H :    0.110513
 147 H :    0.104852
 148 C :    0.036824
 149 C :    0.030650
 150 N :   -0.272748
 151 H :    0.105872
 152 C :   -0.066465
 153 N :   -0.275191
 154 H :    0.111807
 155 C :   -0.068043
 156 H :    0.112775
 157 C :   -0.308333
 158 C :   -0.322480
 159 H :    0.114141
 160 C :   -0.304365
 161 C :   -0.324404
 162 H :    0.094622
 163 H :    0.106508
 164 H :    0.100122
 165 H :    0.108250
 166 H :    0.102046
 167 H :    0.090426
 168 H :    0.097531
 169 H :    0.109080
 170 H :    0.099607
 171 H :    0.091952
 172 H :    0.108936
 173 H :    0.101235
 174 H :    0.133053
 175 H :    0.150814
 176 H :    0.099201
Sum of atomic charges:   -0.0000000

LOEWDIN ATOMIC CHARGES
----------------------
   0 C :   -0.074127
   1 C :   -0.070694
   2 C :    0.092044
   3 C :   -0.075034
   4 H :   -0.019096
   5 C :    0.091887
   6 C :   -0.074697
   7 H :   -0.019552
   8 C :    0.091941
   9 C :   -0.064072
  10 H :   -0.022805
  11 C :   -0.067894
  12 H :   -0.033769
  13 H :   -0.034645
  14 H :   -0.033883
  15 C :   -0.079450
  16 C :   -0.075139
  17 C :    0.086191
  18 C :   -0.074345
  19 H :   -0.021121
  20 C :    0.095280
  21 C :   -0.073439
  22 H :   -0.017740
  23 C :    0.089823
  24 C :   -0.065752
  25 H :   -0.020653
  26 C :   -0.070955
  27 H :   -0.032715
  28 H :   -0.034233
  29 H :   -0.033905
  30 C :   -0.072027
  31 C :   -0.064113
  32 C :    0.091174
  33 C :   -0.075613
  34 H :   -0.023378
  35 C :    0.089507
  36 C :   -0.073608
  37 H :   -0.018827
  38 C :    0.091136
  39 C :   -0.071920
  40 H :   -0.019883
  41 C :   -0.068837
  42 H :   -0.034085
  43 H :   -0.034702
  44 C :   -0.095299
  45 C :   -0.099282
  46 N :    0.240443
  47 H :   -0.031399
  48 C :   -0.023009
  49 N :    0.228088
  50 H :   -0.030546
  51 C :   -0.025764
  52 H :   -0.023873
  53 C :    0.116278
  54 C :    0.115941
  55 H :   -0.023259
  56 C :    0.114839
  57 C :    0.115830
  58 H :   -0.034682
  59 H :   -0.034092
  60 H :   -0.030451
  61 H :   -0.035809
  62 H :   -0.029272
  63 H :   -0.029132
  64 H :   -0.030527
  65 H :   -0.030385
  66 H :   -0.030267
  67 H :   -0.028778
  68 H :   -0.037220
  69 H :   -0.031349
  70 C :   -0.067933
  71 C :   -0.098054
  72 N :    0.354936
  73 H :   -0.026757
  74 C :   -0.029751
  75 N :    0.243795
  76 H :   -0.033308
  77 C :   -0.026391
  78 H :   -0.025268
  79 C :    0.117114
  80 C :    0.114634
  81 H :   -0.022494
  82 C :    0.114715
  83 C :    0.114156
  84 H :   -0.029757
  85 H :   -0.033906
  86 H :   -0.025788
  87 H :   -0.029277
  88 H :   -0.031310
  89 H :   -0.034236
  90 H :   -0.027358
  91 H :   -0.030185
  92 H :   -0.031924
  93 H :   -0.029868
  94 H :   -0.032926
  95 H :   -0.031841
  96 C :   -0.101581
  97 C :   -0.099390
  98 N :    0.233587
  99 H :   -0.030364
 100 C :   -0.026510
 101 N :    0.237676
 102 H :   -0.030532
 103 C :   -0.024969
 104 H :   -0.024399
 105 C :    0.116524
 106 C :    0.116133
 107 H :   -0.023449
 108 C :    0.116990
 109 C :    0.115819
 110 H :   -0.030545
 111 H :   -0.030033
 112 H :   -0.029459
 113 H :   -0.029793
 114 H :   -0.029101
 115 H :   -0.035350
 116 H :   -0.030260
 117 H :   -0.030630
 118 H :   -0.028894
 119 H :   -0.029576
 120 H :   -0.028722
 121 H :   -0.034569
 122 C :   -0.096871
 123 C :   -0.099732
 124 N :    0.238621
 125 H :   -0.031229
 126 C :   -0.023978
 127 N :    0.228499
 128 H :   -0.030499
 129 C :   -0.026728
 130 H :   -0.023633
 131 C :    0.117333
 132 C :    0.115511
 133 H :   -0.024890
 134 C :    0.116358
 135 C :    0.115941
 136 H :   -0.030565
 137 H :   -0.031115
 138 H :   -0.028831
 139 H :   -0.028855
 140 H :   -0.034649
 141 H :   -0.028700
 142 H :   -0.030453
 143 H :   -0.029701
 144 H :   -0.030458
 145 H :   -0.035726
 146 H :   -0.029342
 147 H :   -0.029234
 148 C :   -0.097436
 149 C :   -0.093989
 150 N :    0.236970
 151 H :   -0.030619
 152 C :   -0.023410
 153 N :    0.241026
 154 H :   -0.031847
 155 C :   -0.020531
 156 H :   -0.025802
 157 C :    0.115851
 158 C :    0.114974
 159 H :   -0.025108
 160 C :    0.116096
 161 C :    0.114643
 162 H :   -0.031280
 163 H :   -0.029328
 164 H :   -0.029492
 165 H :   -0.030557
 166 H :   -0.030181
 167 H :   -0.035805
 168 H :   -0.031535
 169 H :   -0.027804
 170 H :   -0.030374
 171 H :   -0.035397
 172 H :   -0.029061
 173 H :   -0.030184
 174 H :   -0.116951
 175 H :   -0.114740
 176 H :   -0.034126

  Mayer bond orders larger than 0.100000
B(  0-C ,  1-C ) :   1.0031 B(  0-C ,  2-C ) :   1.3046 B(  0-C ,  8-C ) :   1.3780
B(  1-C , 13-H ) :   0.9941 B(  1-C , 49-N ) :   1.9476 B(  2-C ,  3-C ) :   1.3951
B(  2-C ,  4-H ) :   0.9644 B(  3-C ,  5-C ) :   1.2935 B(  3-C , 11-C ) :   0.9963
B(  5-C ,  6-C ) :   1.3932 B(  5-C ,  7-H ) :   0.9646 B(  6-C ,  8-C ) :   1.2867
B(  6-C ,  9-C ) :   0.9912 B(  8-C , 10-H ) :   0.9625 B(  9-C , 12-H ) :   0.9882
B(  9-C ,124-N ) :   1.9539 B( 11-C , 14-H ) :   0.9962 B( 11-C , 98-N ) :   1.9523
B( 15-C , 16-C ) :   1.0024 B( 15-C , 17-C ) :   1.2879 B( 15-C , 23-C ) :   1.3981
B( 16-C , 28-H ) :   0.9904 B( 16-C , 75-N ) :   1.9588 B( 17-C , 18-C ) :   1.4008
B( 17-C , 19-H ) :   0.9629 B( 18-C , 20-C ) :   1.2903 B( 18-C , 26-C ) :   0.9982
B( 20-C , 21-C ) :   1.3959 B( 20-C , 22-H ) :   0.9659 B( 21-C , 23-C ) :   1.2876
B( 21-C , 24-C ) :   0.9885 B( 23-C , 25-H ) :   0.9645 B( 24-C , 27-H ) :   0.9931
B( 24-C ,101-N ) :   1.9473 B( 26-C , 29-H ) :   0.9953 B( 26-C ,150-N ) :   1.9621
B( 30-C , 31-C ) :   0.9924 B( 30-C , 32-C ) :   1.2935 B( 30-C , 38-C ) :   1.3942
B( 31-C , 46-N ) :   1.9496 B( 31-C ,176-H ) :   0.9845 B( 32-C , 33-C ) :   1.3769
B( 32-C , 34-H ) :   0.9615 B( 33-C , 35-C ) :   1.3023 B( 33-C , 41-C ) :   0.9995
B( 35-C , 36-C ) :   1.3829 B( 35-C , 37-H ) :   0.9658 B( 36-C , 38-C ) :   1.3065
B( 36-C , 39-C ) :   0.9959 B( 38-C , 40-H ) :   0.9647 B( 39-C , 42-H ) :   0.9845
B( 39-C ,153-N ) :   1.9527 B( 41-C , 43-H ) :   0.9952 B( 41-C ,127-N ) :   1.9467
B( 44-C , 45-C ) :   0.9801 B( 44-C , 46-N ) :   0.9155 B( 44-C , 47-H ) :   0.9717
B( 44-C , 48-C ) :   0.9484 B( 45-C , 49-N ) :   0.9184 B( 45-C , 50-H ) :   0.9774
B( 45-C , 51-C ) :   0.9471 B( 48-C , 52-H ) :   0.9781 B( 48-C , 53-C ) :   0.9506
B( 48-C , 54-C ) :   0.9432 B( 51-C , 55-H ) :   0.9790 B( 51-C , 56-C ) :   0.9631
B( 51-C , 57-C ) :   0.9512 B( 53-C , 61-H ) :   0.9849 B( 53-C , 62-H ) :   0.9752
B( 53-C , 63-H ) :   0.9874 B( 54-C , 58-H ) :   0.9827 B( 54-C , 59-H ) :   0.9707
B( 54-C , 60-H ) :   0.9893 B( 56-C , 67-H ) :   0.9891 B( 56-C , 68-H ) :   0.9829
B( 56-C , 69-H ) :   0.9687 B( 57-C , 64-H ) :   0.9880 B( 57-C , 65-H ) :   0.9808
B( 57-C , 66-H ) :   0.9861 B( 70-C , 71-C ) :   0.9515 B( 70-C , 72-N ) :   1.0059
B( 70-C , 73-H ) :   0.9785 B( 70-C , 74-C ) :   0.9618 B( 71-C , 75-N ) :   0.9170
B( 71-C , 76-H ) :   0.9840 B( 71-C , 77-C ) :   0.9538 B( 72-N ,174-H ) :   0.9752
B( 72-N ,175-H ) :   0.9799 B( 74-C , 78-H ) :   0.9703 B( 74-C , 79-C ) :   0.9671
B( 74-C , 80-C ) :   0.9525 B( 77-C , 81-H ) :   0.9776 B( 77-C , 82-C ) :   0.9509
B( 77-C , 83-C ) :   0.9476 B( 79-C , 87-H ) :   0.9814 B( 79-C , 88-H ) :   0.9890
B( 79-C , 89-H ) :   0.9730 B( 80-C , 84-H ) :   0.9813 B( 80-C , 85-H ) :   0.9831
B( 80-C , 86-H ) :   0.9878 B( 82-C , 93-H ) :   0.9864 B( 82-C , 94-H ) :   0.9859
B( 82-C , 95-H ) :   0.9755 B( 83-C , 90-H ) :   0.9859 B( 83-C , 91-H ) :   0.9802
B( 83-C , 92-H ) :   0.9856 B( 96-C , 97-C ) :   0.9764 B( 96-C , 98-N ) :   0.9212
B( 96-C , 99-H ) :   0.9770 B( 96-C ,100-C ) :   0.9440 B( 97-C ,101-N ) :   0.9260
B( 97-C ,102-H ) :   0.9745 B( 97-C ,103-C ) :   0.9420 B(100-C ,104-H ) :   0.9799
B(100-C ,105-C ) :   0.9492 B(100-C ,106-C ) :   0.9505 B(103-C ,107-H ) :   0.9787
B(103-C ,108-C ) :   0.9492 B(103-C ,109-C ) :   0.9476 B(105-C ,113-H ) :   0.9745
B(105-C ,114-H ) :   0.9876 B(105-C ,115-H ) :   0.9840 B(106-C ,110-H ) :   0.9861
B(106-C ,111-H ) :   0.9878 B(106-C ,112-H ) :   0.9808 B(108-C ,119-H ) :   0.9744
B(108-C ,120-H ) :   0.9873 B(108-C ,121-H ) :   0.9838 B(109-C ,116-H ) :   0.9814
B(109-C ,117-H ) :   0.9861 B(109-C ,118-H ) :   0.9877 B(122-C ,123-C ) :   0.9740
B(122-C ,124-N ) :   0.9203 B(122-C ,125-H ) :   0.9777 B(122-C ,126-C ) :   0.9452
B(123-C ,127-N ) :   0.9214 B(123-C ,128-H ) :   0.9805 B(123-C ,129-C ) :   0.9500
B(126-C ,130-H ) :   0.9792 B(126-C ,131-C ) :   0.9484 B(126-C ,132-C ) :   0.9471
B(129-C ,133-H ) :   0.9809 B(129-C ,134-C ) :   0.9479 B(129-C ,135-C ) :   0.9501
B(131-C ,139-H ) :   0.9873 B(131-C ,140-H ) :   0.9838 B(131-C ,141-H ) :   0.9741
B(132-C ,136-H ) :   0.9804 B(132-C ,137-H ) :   0.9861 B(132-C ,138-H ) :   0.9875
B(134-C ,145-H ) :   0.9838 B(134-C ,146-H ) :   0.9743 B(134-C ,147-H ) :   0.9881
B(135-C ,142-H ) :   0.9879 B(135-C ,143-H ) :   0.9802 B(135-C ,144-H ) :   0.9859
B(148-C ,149-C ) :   0.9759 B(148-C ,150-N ) :   0.9179 B(148-C ,151-H ) :   0.9855
B(148-C ,152-C ) :   0.9557 B(149-C ,153-N ) :   0.9247 B(149-C ,154-H ) :   0.9848
B(149-C ,155-C ) :   0.9522 B(152-C ,156-H ) :   0.9802 B(152-C ,157-C ) :   0.9524
B(152-C ,158-C ) :   0.9483 B(155-C ,159-H ) :   0.9782 B(155-C ,160-C ) :   0.9518
B(155-C ,161-C ) :   0.9450 B(157-C ,165-H ) :   0.9745 B(157-C ,166-H ) :   0.9864
B(157-C ,167-H ) :   0.9854 B(158-C ,162-H ) :   0.9864 B(158-C ,163-H ) :   0.9866
B(158-C ,164-H ) :   0.9794 B(160-C ,171-H ) :   0.9850 B(160-C ,172-H ) :   0.9734
B(160-C ,173-H ) :   0.9857 B(161-C ,168-H ) :   0.9864 B(161-C ,169-H ) :   0.9861
B(161-C ,170-H ) :   0.9795

MP2 TOTAL ENERGY:    -3154.110868836 Eh
FINAL SINGLE POINT ENERGY     -3154.110868836363

DIPOLE MOMENT
-------------
                                X             Y             Z
Electronic contribution:    -14.61679       8.64151     -17.54108
Nuclear contribution   :     14.95476      -9.07468      17.10978
                        -----------------------------------------
Total Dipole Moment    :      0.33797      -0.43317      -0.43130
                        -----------------------------------------
Magnitude (a.u.)       :      0.69848
Magnitude (Debye)      :      1.77539

Rotational constants in cm-1:     0.000786     0.000602     0.000597
Rotational constants in MHz :    23.572244    18.059275    17.898154

                             ****ORCA TERMINATED NORMALLY****
TOTAL RUN TIME: 0 days 9 hours 58 minutes 36 seconds 790 msec
