                         Program Version 4.2.1 -  RELEASE  -
|  1> ! RI-MP2 cc-pVTZ cc-pVTZ/C TIGHTSCF printbasis Grid6 NOFINALGRID SlowConv
|  2>
|  3> %base "_o_3_alde1_6_ami2_2_opt_MP2"
|  4> %maxcore 3000
|  5> %pal
|  6>    nprocs 32
|  7> end
|  8>
|  9> * xyzfile 0 1 _o_3_alde1_6_ami2_2_opt_B97-3c.xyz
| 10>
| 11>                          ****END OF INPUT****

CARTESIAN COORDINATES (ANGSTROEM)
---------------------------------
  C     -5.655705   -0.584046    2.109230
  C     -6.697666   -1.289164    2.854649
  C     -4.688706   -1.281572    1.394858
  C     -3.694193   -0.601100    0.695104
  H     -4.708482   -2.360645    1.377382
  C     -3.670830    0.787983    0.720249
  C     -4.636443    1.507935    1.425266
  H     -2.903672    1.336246    0.189608
  C     -5.625806    0.812587    2.113471
  C     -4.621047    2.970435    1.429992
  H     -6.382015    1.362574    2.663357
  C     -2.679739   -1.318591   -0.084154
  H     -5.467773    3.461103    1.935692
  H     -7.410981   -0.651205    3.399084
  H     -1.953649   -0.685344   -0.599370
  C      4.870142   -1.053407   -0.068718
  C      6.247557   -1.510608   -0.237368
  C      4.610661    0.047442    0.732992
  C      3.301403    0.500899    0.927643
  H      5.416863    0.573132    1.227215
  C      2.252425   -0.157329    0.301237
  C      2.497276   -1.270679   -0.511635
  H      1.233484    0.184045    0.427333
  C      3.801903   -1.707946   -0.689726
  C      1.422625   -1.992226   -1.185805
  H      4.012770   -2.565623   -1.314580
  C      3.033756    1.682935    1.745133
  H      1.752322   -2.850404   -1.788730
  H      7.010048   -0.906018    0.275074
  H      1.976464    1.955257    1.854863
  C      1.221916    2.488433   -3.069650
  C      1.549408    1.630814   -4.205788
  C     -0.075804    2.956485   -2.861051
  C     -0.362257    3.815715   -1.805374
  H     -0.851428    2.650685   -3.550964
  C      0.654798    4.183273   -0.926414
  C      1.949912    3.712299   -1.105169
  H      0.431373    4.834695   -0.095443
  C      2.227436    2.876345   -2.187823
  C      3.015009    4.031586   -0.151232
  H      3.236657    2.505599   -2.331198
  C     -1.732232    4.305142   -1.620577
  H      4.007510    3.661177   -0.427351
  H      2.622504    1.442965   -4.361127
  H     -2.483910    3.821358   -2.252391
  C     -7.203813   -4.218461    4.647939
  C     -7.807892   -3.178019    3.671349
  N     -6.393278   -5.224234    3.958166
  N     -6.780023   -2.554496    2.885401
  C      8.134675   -4.374179   -0.442839
  C      7.940994   -2.933203   -0.977507
  N      7.321637   -5.352546   -1.169091
  N      6.559368   -2.537778   -0.914886
  C      0.607801   -1.122416   -5.982343
  C      1.106732    0.339383   -6.099176
  N     -0.833438   -1.204432   -5.725003
  C      1.333380   -1.807896   -4.833703
  N      0.673547    1.143272   -4.985838
  C     -1.686651   -3.321061   -0.925288
  C     -0.747937   -2.491025   -1.828342
  N     -2.660896   -2.585614   -0.133335
  N      0.195914   -1.675134   -1.106098
  C     -0.870769   -4.162552    0.052869
  C     -3.718337    5.063442    0.878896
  C     -3.384028    5.621174   -0.523934
  N     -3.689674    3.629913    0.877938
  N     -2.009273    5.211196   -0.779356
  C     -3.382074    7.145358   -0.451392
  C      3.607206    3.602861    2.914629
  C      3.811032    4.809578    1.947653
  N      3.966167    2.370467    2.270937
  N      2.781075    4.654395    0.930708
  C      3.489087    6.087883    2.713799
  H     -1.052194   -0.563635   -4.969844
  H     -1.332001   -0.845766   -6.532487
  H     -6.985839   -5.755673    3.329326
  H     -5.730579   -4.739785    3.362814
  H      7.625883   -5.384643   -2.136283
  H      6.366377   -5.013593   -1.193610
  H      1.130617   -1.305691   -3.891114
  H      2.411832   -1.802206   -4.991511
  H      0.999919   -2.839673   -4.747034
  H      2.199661    0.343192   -6.220146
  H      0.671891    0.772282   -7.003834
  H      8.601777   -2.243379   -0.432177
  H      8.246107   -2.926372   -2.027622
  C      7.739212   -4.430591    1.026730
  H      8.303160   -3.705640    1.613655
  H      7.928978   -5.424602    1.424359
  H      6.680514   -4.212291    1.154933
  H     -1.360789   -1.837535   -2.452956
  H     -0.245503   -3.193151   -2.503700
  C     -2.499140   -4.240007   -1.841205
  H     -3.059264   -3.661854   -2.574884
  H     -3.207662   -4.814503   -1.250003
  H     -1.846675   -4.930187   -2.373780
  H     -0.154043   -4.784569   -0.482849
  H     -1.530922   -4.808545    0.626051
  H     -0.323898   -3.528970    0.746381
  C     -8.342481   -4.930962    5.361173
  C     -6.310843   -3.511042    5.658504
  H     -4.680307    5.478880    1.211127
  H     -2.942178    5.418562    1.559531
  C     -4.429330    5.148808   -1.527699
  H     -4.193431    5.497073   -2.532535
  H     -5.405351    5.549988   -1.259611
  H     -4.518042    4.065290   -1.547354
  H     -2.637362    7.491913    0.261529
  H     -4.359789    7.522331   -0.153997
  H     -3.136404    7.568628   -1.423904
  H      4.156714    6.214502    3.565058
  H      2.461274    6.068396    3.068959
  H      3.599594    6.953309    2.062454
  C      5.248420    4.851300    1.438240
  H      5.364877    5.644770    0.700782
  H      5.559643    3.910131    0.995594
  H      5.928675    5.057058    2.262704
  H      2.565863    3.623248    3.253987
  H      4.257999    3.756163    3.775215
  H     -5.914453   -4.230848    6.370661
  H     -6.863714   -2.746954    6.204877
  H     -5.470279   -3.028495    5.162799
  H     -8.472534   -3.713830    2.986922
  H     -8.418000   -2.449534    4.226747
  C      9.598308   -4.754057   -0.607667
  C      0.902764   -1.842880   -7.288665
  H     -8.986411   -5.451652    4.649963
  H     -8.959987   -4.229538    5.920678
  H     -7.942457   -5.668332    6.054120
  H      1.968412   -1.831046   -7.513451
  H      0.379971   -1.372934   -8.123457
  H      0.575300   -2.878979   -7.226545
  H     10.246708   -4.080834   -0.049008
  H      9.899578   -4.715460   -1.656020
  H      9.761604   -5.767932   -0.248428

 Total Charge           Charge          ....    0
 Multiplicity           Mult            ....    1
 Number of Electrons    NEL             ....  462
 Basis Dimension        Dim             .... 2898

ORBITAL ENERGIES
----------------

  NO   OCC          E(Eh)            E(eV)
   0   2.0000     -15.562029      -423.4643
   1   2.0000     -15.558985      -423.3815
   2   2.0000     -15.557870      -423.3512
   3   2.0000     -15.555155      -423.2773
   4   2.0000     -15.554067      -423.2477
   5   2.0000     -15.553967      -423.2450
   6   2.0000     -15.548905      -423.1072
   7   2.0000     -15.546998      -423.0553
   8   2.0000     -15.543875      -422.9704
   9   2.0000     -15.529195      -422.5709
  10   2.0000     -15.527296      -422.5192
  11   2.0000     -15.519565      -422.3088
  12   2.0000     -11.288191      -307.1673
  13   2.0000     -11.287122      -307.1382
  14   2.0000     -11.284236      -307.0597
  15   2.0000     -11.283477      -307.0390
  16   2.0000     -11.283172      -307.0307
  17   2.0000     -11.281098      -306.9743
  18   2.0000     -11.278753      -306.9105
  19   2.0000     -11.273464      -306.7666
  20   2.0000     -11.267367      -306.6006
  21   2.0000     -11.264487      -306.5223
  22   2.0000     -11.262542      -306.4693
  23   2.0000     -11.259200      -306.3784
  24   2.0000     -11.258350      -306.3553
  25   2.0000     -11.257488      -306.3318
  26   2.0000     -11.254237      -306.2433
  27   2.0000     -11.253824      -306.2321
  28   2.0000     -11.253556      -306.2248
  29   2.0000     -11.253078      -306.2118
  30   2.0000     -11.251991      -306.1823
  31   2.0000     -11.251576      -306.1709
  32   2.0000     -11.251357      -306.1650
  33   2.0000     -11.251105      -306.1581
  34   2.0000     -11.250792      -306.1496
  35   2.0000     -11.250028      -306.1288
  36   2.0000     -11.249761      -306.1216
  37   2.0000     -11.249526      -306.1152
  38   2.0000     -11.248793      -306.0952
  39   2.0000     -11.248126      -306.0771
  40   2.0000     -11.246899      -306.0437
  41   2.0000     -11.245978      -306.0186
  42   2.0000     -11.245249      -305.9988
  43   2.0000     -11.244830      -305.9874
  44   2.0000     -11.243959      -305.9637
  45   2.0000     -11.243946      -305.9633
  46   2.0000     -11.243728      -305.9574
  47   2.0000     -11.242511      -305.9243
  48   2.0000     -11.239878      -305.8526
  49   2.0000     -11.239747      -305.8491
  50   2.0000     -11.237412      -305.7855
  51   2.0000     -11.212020      -305.0946
  52   2.0000     -11.211962      -305.0930
  53   2.0000     -11.210633      -305.0568
  54   2.0000     -11.209988      -305.0393
  55   2.0000     -11.208631      -305.0024
  56   2.0000     -11.207285      -304.9657
  57   2.0000     -11.206630      -304.9479
  58   2.0000     -11.204791      -304.8979
  59   2.0000     -11.203374      -304.8593
  60   2.0000     -11.203232      -304.8554
  61   2.0000     -11.202182      -304.8269
  62   2.0000     -11.197920      -304.7109
  63   2.0000      -1.257106       -34.2076
  64   2.0000      -1.252319       -34.0773
  65   2.0000      -1.251047       -34.0427
  66   2.0000      -1.248907       -33.9845
  67   2.0000      -1.247408       -33.9437
  68   2.0000      -1.242467       -33.8093
  69   2.0000      -1.227129       -33.3919
  70   2.0000      -1.225757       -33.3545
  71   2.0000      -1.222554       -33.2674
  72   2.0000      -1.188457       -32.3396
  73   2.0000      -1.187763       -32.3207
  74   2.0000      -1.180866       -32.1330
  75   2.0000      -1.171096       -31.8671
  76   2.0000      -1.165595       -31.7175
  77   2.0000      -1.161798       -31.6141
  78   2.0000      -1.088343       -29.6153
  79   2.0000      -1.083959       -29.4960
  80   2.0000      -1.077622       -29.3236
  81   2.0000      -1.061628       -28.8884
  82   2.0000      -1.056977       -28.7618
  83   2.0000      -1.052521       -28.6406
  84   2.0000      -1.041775       -28.3481
  85   2.0000      -1.031523       -28.0692
  86   2.0000      -1.028117       -27.9765
  87   2.0000      -1.025410       -27.9028
  88   2.0000      -1.024121       -27.8678
  89   2.0000      -1.018764       -27.7220
  90   2.0000      -0.951583       -25.8939
  91   2.0000      -0.949800       -25.8454
  92   2.0000      -0.946296       -25.7500
  93   2.0000      -0.945795       -25.7364
  94   2.0000      -0.944415       -25.6988
  95   2.0000      -0.941467       -25.6186
  96   2.0000      -0.939026       -25.5522
  97   2.0000      -0.938613       -25.5410
  98   2.0000      -0.937128       -25.5005
  99   2.0000      -0.935583       -25.4585
 100   2.0000      -0.930106       -25.3095
 101   2.0000      -0.928872       -25.2759
 102   2.0000      -0.893298       -24.3079
 103   2.0000      -0.887749       -24.1569
 104   2.0000      -0.881035       -23.9742
 105   2.0000      -0.871444       -23.7132
 106   2.0000      -0.869973       -23.6732
 107   2.0000      -0.868102       -23.6223
 108   2.0000      -0.847387       -23.0586
 109   2.0000      -0.831968       -22.6390
 110   2.0000      -0.824086       -22.4245
 111   2.0000      -0.791289       -21.5321
 112   2.0000      -0.786190       -21.3933
 113   2.0000      -0.778719       -21.1900
 114   2.0000      -0.760136       -20.6844
 115   2.0000      -0.755646       -20.5622
 116   2.0000      -0.754459       -20.5299
 117   2.0000      -0.751578       -20.4515
 118   2.0000      -0.747160       -20.3312
 119   2.0000      -0.745053       -20.2739
 120   2.0000      -0.741999       -20.1908
 121   2.0000      -0.724090       -19.7035
 122   2.0000      -0.723141       -19.6777
 123   2.0000      -0.710106       -19.3230
 124   2.0000      -0.697384       -18.9768
 125   2.0000      -0.695880       -18.9358
 126   2.0000      -0.692425       -18.8418
 127   2.0000      -0.684412       -18.6238
 128   2.0000      -0.675140       -18.3715
 129   2.0000      -0.670276       -18.2391
 130   2.0000      -0.665689       -18.1143
 131   2.0000      -0.663857       -18.0645
 132   2.0000      -0.660387       -17.9701
 133   2.0000      -0.656727       -17.8704
 134   2.0000      -0.655394       -17.8342
 135   2.0000      -0.654631       -17.8134
 136   2.0000      -0.651362       -17.7245
 137   2.0000      -0.650178       -17.6923
 138   2.0000      -0.648087       -17.6353
 139   2.0000      -0.644750       -17.5445
 140   2.0000      -0.644136       -17.5278
 141   2.0000      -0.635473       -17.2921
 142   2.0000      -0.634073       -17.2540
 143   2.0000      -0.628996       -17.1158
 144   2.0000      -0.626274       -17.0418
 145   2.0000      -0.622840       -16.9483
 146   2.0000      -0.620043       -16.8722
 147   2.0000      -0.619749       -16.8642
 148   2.0000      -0.617299       -16.7976
 149   2.0000      -0.612286       -16.6611
 150   2.0000      -0.608863       -16.5680
 151   2.0000      -0.605908       -16.4876
 152   2.0000      -0.604440       -16.4476
 153   2.0000      -0.599944       -16.3253
 154   2.0000      -0.597405       -16.2562
 155   2.0000      -0.595973       -16.2172
 156   2.0000      -0.594370       -16.1736
 157   2.0000      -0.590270       -16.0621
 158   2.0000      -0.586465       -15.9585
 159   2.0000      -0.569025       -15.4840
 160   2.0000      -0.568450       -15.4683
 161   2.0000      -0.567188       -15.4340
 162   2.0000      -0.566330       -15.4106
 163   2.0000      -0.562335       -15.3019
 164   2.0000      -0.559283       -15.2189
 165   2.0000      -0.550024       -14.9669
 166   2.0000      -0.548189       -14.9170
 167   2.0000      -0.545768       -14.8511
 168   2.0000      -0.545369       -14.8402
 169   2.0000      -0.541873       -14.7451
 170   2.0000      -0.537741       -14.6327
 171   2.0000      -0.534600       -14.5472
 172   2.0000      -0.533714       -14.5231
 173   2.0000      -0.531840       -14.4721
 174   2.0000      -0.531159       -14.4536
 175   2.0000      -0.530773       -14.4431
 176   2.0000      -0.529188       -14.3999
 177   2.0000      -0.528124       -14.3710
 178   2.0000      -0.525671       -14.3042
 179   2.0000      -0.525228       -14.2922
 180   2.0000      -0.523885       -14.2556
 181   2.0000      -0.523255       -14.2385
 182   2.0000      -0.521188       -14.1822
 183   2.0000      -0.516757       -14.0617
 184   2.0000      -0.514627       -14.0037
 185   2.0000      -0.513229       -13.9657
 186   2.0000      -0.512110       -13.9352
 187   2.0000      -0.510859       -13.9012
 188   2.0000      -0.507154       -13.8004
 189   2.0000      -0.504392       -13.7252
 190   2.0000      -0.503972       -13.7138
 191   2.0000      -0.500795       -13.6273
 192   2.0000      -0.497693       -13.5429
 193   2.0000      -0.495873       -13.4934
 194   2.0000      -0.493284       -13.4229
 195   2.0000      -0.491744       -13.3810
 196   2.0000      -0.488881       -13.3031
 197   2.0000      -0.486949       -13.2505
 198   2.0000      -0.483926       -13.1683
 199   2.0000      -0.480643       -13.0790
 200   2.0000      -0.479360       -13.0441
 201   2.0000      -0.470296       -12.7974
 202   2.0000      -0.469265       -12.7694
 203   2.0000      -0.464417       -12.6374
 204   2.0000      -0.457016       -12.4361
 205   2.0000      -0.456130       -12.4119
 206   2.0000      -0.453620       -12.3436
 207   2.0000      -0.449917       -12.2429
 208   2.0000      -0.445523       -12.1233
 209   2.0000      -0.440383       -11.9834
 210   2.0000      -0.421317       -11.4646
 211   2.0000      -0.415037       -11.2937
 212   2.0000      -0.412974       -11.2376
 213   2.0000      -0.410948       -11.1825
 214   2.0000      -0.408005       -11.1024
 215   2.0000      -0.406957       -11.0739
 216   2.0000      -0.405727       -11.0404
 217   2.0000      -0.402506       -10.9527
 218   2.0000      -0.397722       -10.8226
 219   2.0000      -0.396320       -10.7844
 220   2.0000      -0.394572       -10.7369
 221   2.0000      -0.387460       -10.5433
 222   2.0000      -0.382311       -10.4032
 223   2.0000      -0.379112       -10.3162
 224   2.0000      -0.376141       -10.2353
 225   2.0000      -0.329951        -8.9784
 226   2.0000      -0.327686        -8.9168
 227   2.0000      -0.324461        -8.8290
 228   2.0000      -0.322580        -8.7779
 229   2.0000      -0.319164        -8.6849
 230   2.0000      -0.315596        -8.5878
 231   0.0000       0.064063         1.7432
 232   0.0000       0.067626         1.8402
 233   0.0000       0.068949         1.8762
 234   0.0000       0.070835         1.9275
 235   0.0000       0.084526         2.3001

MULLIKEN ATOMIC CHARGES
-----------------------
   0 C :    0.159443
   1 C :   -0.104077
   2 C :   -0.155509
   3 C :    0.145939
   4 H :    0.181144
   5 C :   -0.207743
   6 C :    0.166879
   7 H :    0.176625
   8 C :   -0.238625
   9 C :   -0.114233
  10 H :    0.137300
  11 C :   -0.099467
  12 H :    0.087209
  13 H :    0.084823
  14 H :    0.115082
  15 C :    0.162778
  16 C :   -0.093480
  17 C :   -0.217405
  18 C :    0.154692
  19 H :    0.167697
  20 C :   -0.202850
  21 C :    0.161172
  22 H :    0.175674
  23 C :   -0.201748
  24 C :   -0.140783
  25 H :    0.160864
  26 C :   -0.107375
  27 H :    0.107143
  28 H :    0.093371
  29 H :    0.128578
  30 C :    0.182166
  31 C :   -0.105091
  32 C :   -0.208679
  33 C :    0.159971
  34 H :    0.156496
  35 C :   -0.174146
  36 C :    0.174453
  37 H :    0.180436
  38 C :   -0.245489
  39 C :   -0.140405
  40 H :    0.143619
  41 C :   -0.088267
  42 H :    0.116184
  43 H :    0.092706
  44 H :    0.100735
  45 C :    0.159658
  46 C :   -0.040317
  47 N :   -0.383470
  48 N :   -0.255197
  49 C :    0.160163
  50 C :   -0.042318
  51 N :   -0.381553
  52 N :   -0.267485
  53 C :    0.154446
  54 C :   -0.039514
  55 N :   -0.377953
  56 C :   -0.354654
  57 N :   -0.270495
  58 C :    0.205286
  59 C :   -0.138263
  60 N :   -0.279662
  61 N :   -0.240063
  62 C :   -0.318845
  63 C :   -0.036962
  64 C :    0.188665
  65 N :   -0.249739
  66 N :   -0.268023
  67 C :   -0.296802
  68 C :   -0.048798
  69 C :    0.166837
  70 N :   -0.278563
  71 N :   -0.275625
  72 C :   -0.294845
  73 H :    0.146027
  74 H :    0.125004
  75 H :    0.124223
  76 H :    0.151085
  77 H :    0.124708
  78 H :    0.144695
  79 H :    0.117150
  80 H :    0.105059
  81 H :    0.117183
  82 H :    0.062759
  83 H :    0.105126
  84 H :    0.059967
  85 H :    0.101617
  86 C :   -0.314639
  87 H :    0.086954
  88 H :    0.113981
  89 H :    0.106384
  90 H :    0.129045
  91 H :    0.106830
  92 C :   -0.298212
  93 H :    0.103605
  94 H :    0.111819
  95 H :    0.087583
  96 H :    0.087704
  97 H :    0.118416
  98 H :    0.112821
  99 C :   -0.306740
 100 C :   -0.312443
 101 H :    0.066256
 102 H :    0.113637
 103 C :   -0.372367
 104 H :    0.114044
 105 H :    0.112138
 106 H :    0.113935
 107 H :    0.108072
 108 H :    0.085657
 109 H :    0.102857
 110 H :    0.087394
 111 H :    0.106824
 112 H :    0.102004
 113 C :   -0.341245
 114 H :    0.108972
 115 H :    0.112220
 116 H :    0.110165
 117 H :    0.088460
 118 H :    0.111518
 119 H :    0.112049
 120 H :    0.083432
 121 H :    0.107431
 122 H :    0.101159
 123 H :    0.056389
 124 C :   -0.307407
 125 C :   -0.309316
 126 H :    0.089851
 127 H :    0.089906
 128 H :    0.112115
 129 H :    0.092413
 130 H :    0.092471
 131 H :    0.111684
 132 H :    0.092022
 133 H :    0.090295
 134 H :    0.113534
Sum of atomic charges:   -0.0000000

LOEWDIN ATOMIC CHARGES
----------------------
   0 C :   -0.079552
   1 C :   -0.075094
   2 C :    0.113603
   3 C :   -0.071987
   4 H :   -0.018347
   5 C :    0.089452
   6 C :   -0.080761
   7 H :   -0.019539
   8 C :    0.065702
   9 C :   -0.076390
  10 H :   -0.023548
  11 C :   -0.067339
  12 H :   -0.036900
  13 H :   -0.037338
  14 H :   -0.038294
  15 C :   -0.079855
  16 C :   -0.072812
  17 C :    0.090425
  18 C :   -0.077721
  19 H :   -0.019017
  20 C :    0.099643
  21 C :   -0.076111
  22 H :   -0.015344
  23 C :    0.091099
  24 C :   -0.074329
  25 H :   -0.019620
  26 C :   -0.065568
  27 H :   -0.032497
  28 H :   -0.033972
  29 H :   -0.029316
  30 C :   -0.079851
  31 C :   -0.071395
  32 C :    0.088556
  33 C :   -0.071867
  34 H :   -0.020658
  35 C :    0.114028
  36 C :   -0.078864
  37 H :   -0.016848
  38 C :    0.071520
  39 C :   -0.070049
  40 H :   -0.021515
  41 C :   -0.068508
  42 H :   -0.034963
  43 H :   -0.034953
  44 H :   -0.035602
  45 C :   -0.195373
  46 C :   -0.039057
  47 N :    0.340938
  48 N :    0.228255
  49 C :   -0.194834
  50 C :   -0.038604
  51 N :    0.340945
  52 N :    0.220642
  53 C :   -0.192466
  54 C :   -0.037944
  55 N :    0.339097
  56 C :    0.110906
  57 N :    0.216707
  58 C :   -0.203975
  59 C :   -0.039170
  60 N :    0.242468
  61 N :    0.221805
  62 C :    0.115248
  63 C :   -0.033792
  64 C :   -0.207406
  65 N :    0.232454
  66 N :    0.244009
  67 C :    0.117703
  68 C :   -0.030748
  69 C :   -0.203061
  70 N :    0.214087
  71 N :    0.233639
  72 C :    0.115992
  73 H :   -0.111010
  74 H :   -0.107031
  75 H :   -0.108633
  76 H :   -0.106581
  77 H :   -0.108512
  78 H :   -0.108683
  79 H :   -0.033604
  80 H :   -0.029919
  81 H :   -0.027513
  82 H :   -0.036141
  83 H :   -0.029183
  84 H :   -0.036404
  85 H :   -0.030216
  86 C :    0.114109
  87 H :   -0.030546
  88 H :   -0.024755
  89 H :   -0.030883
  90 H :   -0.025930
  91 H :   -0.028163
  92 C :    0.119741
  93 H :   -0.027052
  94 H :   -0.025500
  95 H :   -0.029993
  96 H :   -0.030468
  97 H :   -0.024429
  98 H :   -0.030522
  99 C :    0.115866
 100 C :    0.113596
 101 H :   -0.036565
 102 H :   -0.022475
 103 C :    0.109442
 104 H :   -0.027810
 105 H :   -0.023758
 106 H :   -0.032797
 107 H :   -0.025368
 108 H :   -0.030570
 109 H :   -0.026835
 110 H :   -0.029893
 111 H :   -0.026132
 112 H :   -0.026573
 113 C :    0.113980
 114 H :   -0.028298
 115 H :   -0.036332
 116 H :   -0.023019
 117 H :   -0.032050
 118 H :   -0.026753
 119 H :   -0.025418
 120 H :   -0.031663
 121 H :   -0.030177
 122 H :   -0.029462
 123 H :   -0.037747
 124 C :    0.116751
 125 C :    0.117077
 126 H :   -0.030900
 127 H :   -0.028687
 128 H :   -0.023402
 129 H :   -0.027268
 130 H :   -0.030305
 131 H :   -0.023239
 132 H :   -0.027880
 133 H :   -0.030738
 134 H :   -0.022946

  Mayer bond orders larger than 0.100000
B(  0-C ,  1-C ) :   0.9954 B(  0-C ,  2-C ) :   1.3486 B(  0-C ,  8-C ) :   1.3465
B(  1-C , 13-H ) :   0.9933 B(  1-C , 48-N ) :   1.9980 B(  2-C ,  3-C ) :   1.3109
B(  2-C ,  4-H ) :   0.9471 B(  3-C ,  5-C ) :   1.3745 B(  3-C , 11-C ) :   1.0101
B(  5-C ,  6-C ) :   1.3321 B(  5-C ,  7-H ) :   0.9568 B(  6-C ,  8-C ) :   1.3855
B(  6-C ,  9-C ) :   0.9874 B(  8-C , 10-H ) :   0.9777 B(  9-C , 12-H ) :   0.9928
B(  9-C , 65-N ) :   1.9993 B( 11-C , 14-H ) :   0.9783 B( 11-C , 60-N ) :   1.9670
B( 15-C , 16-C ) :   1.0053 B( 15-C , 17-C ) :   1.3905 B( 15-C , 23-C ) :   1.2928
B( 16-C , 28-H ) :   0.9892 B( 16-C , 52-N ) :   1.9864 B( 17-C , 18-C ) :   1.2916
B( 17-C , 19-H ) :   0.9604 B( 18-C , 20-C ) :   1.3949 B( 18-C , 26-C ) :   1.0014
B( 20-C , 21-C ) :   1.2904 B( 20-C , 22-H ) :   0.9600 B( 21-C , 23-C ) :   1.3985
B( 21-C , 24-C ) :   1.0139 B( 23-C , 25-H ) :   0.9632 B( 24-C , 27-H ) :   0.9880
B( 24-C , 61-N ) :   1.9477 B( 26-C , 29-H ) :   0.9876 B( 26-C , 70-N ) :   1.9439
B( 30-C , 31-C ) :   0.9988 B( 30-C , 32-C ) :   1.3307 B( 30-C , 38-C ) :   1.3680
B( 31-C , 43-H ) :   0.9880 B( 31-C , 57-N ) :   1.9598 B( 32-C , 33-C ) :   1.3625
B( 32-C , 34-H ) :   0.9654 B( 33-C , 35-C ) :   1.3132 B( 33-C , 41-C ) :   1.0149
B( 35-C , 36-C ) :   1.3337 B( 35-C , 37-H ) :   0.9479 B( 36-C , 38-C ) :   1.3411
B( 36-C , 39-C ) :   1.0122 B( 38-C , 40-H ) :   0.9745 B( 39-C , 42-H ) :   0.9842
B( 39-C , 71-N ) :   1.9640 B( 41-C , 44-H ) :   0.9837 B( 41-C , 66-N ) :   1.9758
B( 45-C , 46-C ) :   0.9723 B( 45-C , 47-N ) :   0.9684 B( 45-C , 99-C ) :   0.9499
B( 45-C ,100-C ) :   0.9333 B( 46-C , 48-N ) :   0.9666 B( 46-C ,122-H ) :   0.9757
B( 46-C ,123-H ) :   0.9782 B( 47-N , 75-H ) :   0.9978 B( 47-N , 76-H ) :   0.9925
B( 49-C , 50-C ) :   0.9695 B( 49-C , 51-N ) :   0.9656 B( 49-C , 86-C ) :   0.9319
B( 49-C ,124-C ) :   0.9502 B( 50-C , 52-N ) :   0.9646 B( 50-C , 84-H ) :   0.9785
B( 50-C , 85-H ) :   0.9777 B( 51-N , 77-H ) :   0.9982 B( 51-N , 78-H ) :   0.9941
B( 53-C , 54-C ) :   0.9666 B( 53-C , 55-N ) :   0.9884 B( 53-C , 56-C ) :   0.9382
B( 53-C ,125-C ) :   0.9538 B( 54-C , 57-N ) :   0.9683 B( 54-C , 82-H ) :   0.9797
B( 54-C , 83-H ) :   0.9787 B( 55-N , 73-H ) :   0.9821 B( 55-N , 74-H ) :   0.9962
B( 56-C , 79-H ) :   0.9771 B( 56-C , 80-H ) :   0.9867 B( 56-C , 81-H ) :   0.9801
B( 58-C , 59-C ) :   0.9583 B( 58-C , 60-N ) :   0.9609 B( 58-C , 62-C ) :   0.9324
B( 58-C , 92-C ) :   0.9544 B( 59-C , 61-N ) :   0.9338 B( 59-C , 90-H ) :   0.9766
B( 59-C , 91-H ) :   0.9760 B( 62-C , 96-H ) :   0.9801 B( 62-C , 97-H ) :   0.9825
B( 62-C , 98-H ) :   0.9785 B( 63-C , 64-C ) :   0.9438 B( 63-C , 65-N ) :   0.9857
B( 63-C ,101-H ) :   0.9806 B( 63-C ,102-H ) :   0.9744 B( 64-C , 66-N ) :   0.9439
B( 64-C , 67-C ) :   0.9502 B( 64-C ,103-C ) :   0.9391 B( 67-C ,107-H ) :   0.9832
B( 67-C ,108-H ) :   0.9825 B( 67-C ,109-H ) :   0.9829 B( 68-C , 69-C ) :   0.9196
B( 68-C , 70-N ) :   0.9789 B( 68-C ,117-H ) :   0.9818 B( 68-C ,118-H ) :   0.9855
B( 69-C , 71-N ) :   0.9385 B( 69-C , 72-C ) :   0.9563 B( 69-C ,113-C ) :   0.9545
B( 72-C ,110-H ) :   0.9840 B( 72-C ,111-H ) :   0.9831 B( 72-C ,112-H ) :   0.9825
B( 86-C , 87-H ) :   0.9859 B( 86-C , 88-H ) :   0.9843 B( 86-C , 89-H ) :   0.9786
B( 92-C , 93-H ) :   0.9800 B( 92-C , 94-H ) :   0.9822 B( 92-C , 95-H ) :   0.9810
B( 99-C ,126-H ) :   0.9807 B( 99-C ,127-H ) :   0.9861 B( 99-C ,128-H ) :   0.9850
B(100-C ,119-H ) :   0.9845 B(100-C ,120-H ) :   0.9861 B(100-C ,121-H ) :   0.9788
B(103-C ,104-H ) :   0.9840 B(103-C ,105-H ) :   0.9814 B(103-C ,106-H ) :   0.9798
B(113-C ,114-H ) :   0.9858 B(113-C ,115-H ) :   0.9748 B(113-C ,116-H ) :   0.9794
B(124-C ,132-H ) :   0.9860 B(124-C ,133-H ) :   0.9803 B(124-C ,134-H ) :   0.9845
B(125-C ,129-H ) :   0.9852 B(125-C ,130-H ) :   0.9809 B(125-C ,131-H ) :   0.9850

MP2 TOTAL ENERGY:    -2638.229896486 Eh
FINAL SINGLE POINT ENERGY     -2638.229896485640

DIPOLE MOMENT
-------------
                                X             Y             Z
Electronic contribution:     -5.79781      31.87416       0.20655
Nuclear contribution   :      5.99683     -30.22172      -1.08161
                        -----------------------------------------
Total Dipole Moment    :      0.19901       1.65245      -0.87506
                        -----------------------------------------
Magnitude (a.u.)       :      1.88040
Magnitude (Debye)      :      4.77961

Rotational constants in cm-1:     0.001090     0.000713     0.000592
Rotational constants in MHz :    32.671773    21.376922    17.759954

                             ****ORCA TERMINATED NORMALLY****
TOTAL RUN TIME: 0 days 4 hours 24 minutes 21 seconds 168 msec
