                         Program Version 4.2.1 -  RELEASE  -
|  1> ! DFT COPT B97-3c TightSCF printbasis  Grid6 NOFINALGRID SlowConv
|  2>
|  3> %base "_o_3_alde1_6_ami2_1_opt_B97-3c"
|  4> %maxcore 3000
|  5> %scf
|  6>    MaxIter 2000
|  7> end
|  8> %pal
|  9>    nprocs 32
| 10> end
| 11>
| 12> * xyzfile 0 1 o_3_alde1_6_ami2_1_opt.xyz
| 13> # * xyzfile 0 1 _o_3_alde1_6_ami2_1_opt_B97-3c.xyz
| 14>
| 15>                          ****END OF INPUT****
 Total Charge           Charge          ....    0
 Multiplicity           Mult            ....    1
 Number of Electrons    NEL             ....  462
Dispersion correction           -0.426854501
FINAL SINGLE POINT ENERGY     -2642.490039010045
Dispersion correction            ... done
Dispersion correction           -0.426815334
FINAL SINGLE POINT ENERGY     -2642.492148213506
Dispersion correction            ... done
Dispersion correction           -0.426782575
FINAL SINGLE POINT ENERGY     -2642.492959362966
Dispersion correction            ... done
FINAL SINGLE POINT ENERGY     -2642.493457895958
FINAL SINGLE POINT ENERGY     -2642.494058832389
FINAL SINGLE POINT ENERGY     -2642.494431229640
FINAL SINGLE POINT ENERGY     -2642.494784665511
FINAL SINGLE POINT ENERGY     -2642.495093185449
FINAL SINGLE POINT ENERGY     -2642.495402109662
FINAL SINGLE POINT ENERGY     -2642.495665755242
FINAL SINGLE POINT ENERGY     -2642.498910504595
FINAL SINGLE POINT ENERGY     -2642.498961242367
FINAL SINGLE POINT ENERGY     -2642.499010601372
FINAL SINGLE POINT ENERGY     -2642.499063893687
FINAL SINGLE POINT ENERGY     -2642.499125288547
FINAL SINGLE POINT ENERGY     -2642.499196274232
FINAL SINGLE POINT ENERGY     -2642.499262315676
Dispersion correction            ... done
Dispersion correction           -0.421499151
FINAL SINGLE POINT ENERGY     -2642.499325241826
Dispersion correction            ... done
ORCA finished by error termination in GTOInt
                         Program Version 4.2.1 -  RELEASE  -
|  1> ! DFT COPT B97-3c TightSCF printbasis  Grid6 NOFINALGRID SlowConv
|  2>
|  3> %base "_o_3_alde1_6_ami2_1_opt_B97-3c"
|  4> %maxcore 3000
|  5> %scf
|  6>    MaxIter 2000
|  7> end
|  8> %pal
|  9>    nprocs 32
| 10> end
| 11>
| 12> #* xyzfile 0 1 o_3_alde1_6_ami2_1_opt.xyz
| 13> * xyzfile 0 1 _o_3_alde1_6_ami2_1_opt_B97-3c.xyz
| 14>
| 15>                          ****END OF INPUT****
Dispersion correction           -0.421436124
FINAL SINGLE POINT ENERGY     -2642.499376753515
Dispersion correction            ... done
                    ***********************HURRAY********************

CARTESIAN COORDINATES (ANGSTROEM)
---------------------------------
  C     -4.028401   -1.337798    0.088552
  C     -4.648316   -1.974676    1.307124
  C     -3.187818   -2.075655   -0.726259
  C     -2.625935   -1.520697   -1.876185
  H     -2.926079   -3.094135   -0.480204
  C     -2.891324   -0.193351   -2.190326
  C     -3.721828    0.573617   -1.375694
  H     -2.454570    0.268664   -3.066063
  C     -4.282477   -0.010389   -0.239242
  C     -3.979898    1.985321   -1.668401
  H     -4.924292    0.585850    0.399982
  C     -1.792336   -2.328736   -2.770326
  H     -4.380028    2.557606   -0.825784
  H     -1.373037   -1.791323   -3.626206
  C      4.118915   -1.578057    0.710341
  C      4.490260   -1.343469    2.146701
  C      4.742422   -0.881838   -0.311867
  C      4.352593   -1.066019   -1.643552
  H      5.532999   -0.178401   -0.097185
  C      3.338242   -1.960951   -1.941131
  C      2.726584   -2.701670   -0.929720
  H      3.015456   -2.111539   -2.962169
  C      3.124435   -2.503094    0.388895
  C      1.690890   -3.685108   -1.242373
  H      2.647712   -3.056448    1.185778
  C      4.955360   -0.291461   -2.727193
  H      1.234174   -4.194888   -0.382677
  H      4.412031   -0.332677   -3.676048
  C      1.145166    2.263344    0.277655
  C      0.730286    1.687127    1.611932
  C      0.206305    2.726111   -0.625539
  C      0.591674    3.147589   -1.901656
  H     -0.837197    2.750993   -0.353449
  C      1.929387    3.106802   -2.267633
  C      2.897471    2.702941   -1.347061
  H      2.246384    3.417459   -3.254510
  C      2.491128    2.281941   -0.082172
  C      4.320062    2.687787   -1.675523
  H      3.238656    1.944390    0.625418
  C     -0.421149    3.599465   -2.857076
  H      4.986798    2.424439   -0.844009
  H     -0.179268    3.451343   -3.920182
  C     -5.476924   -3.974432    2.113401
  C     -4.055047   -3.859164    2.699754
  N     -5.503776   -3.098256    0.950598
  H     -5.749165   -4.990705    1.835700
  N     -3.637537   -2.506961    2.258471
  C     -4.036093   -3.967416    4.214189
  C     -3.124664   -4.901989    2.092470
  C      3.868607   -0.858866    4.274287
  C      4.874526    0.256515    3.826419
  N      3.351798   -1.473892    3.059312
  H      3.056332   -0.465716    4.881910
  N      5.083557   -0.017481    2.382647
  C      6.199501    0.134276    4.560919
  C      4.286517    1.646198    4.010912
  C     -0.181435   -0.494726    2.038286
  C     -1.273646    0.501832    1.629938
  N      1.055107    0.229986    1.650348
  C     -0.293729   -1.817833    1.313984
  C     -0.187884   -0.726682    3.544074
  N     -0.703180    1.821274    1.877566
  H     -2.207757    0.373898    2.171109
  C     -0.843223   -4.400022   -3.490830
  C      0.343421   -4.950322   -2.671108
  N     -1.613654   -3.568940   -2.572596
  C     -1.756675   -5.573143   -3.848446
  C     -0.348523   -3.723852   -4.762789
  N      1.348828   -3.951989   -2.435545
  H      0.803697   -5.748137   -3.258920
  H      0.216394   -4.434446   -5.363326
  C     -3.901448    3.933203   -3.034643
  C     -2.507690    4.423204   -3.486118
  N     -3.735877    2.500790   -2.801111
  C     -4.869289    4.091982   -4.203966
  C     -4.369721    4.764680   -1.846305
  N     -1.520876    4.109387   -2.486378
  H     -2.557264    5.508264   -3.607583
  H     -5.343737    4.440048   -1.482572
  C      6.475700    1.306594   -3.601550
  C      6.197841    2.724417   -3.020799
  N      6.004229    0.402783   -2.564488
  C      7.985369    1.124346   -3.712450
  C      5.829853    1.165124   -4.973490
  N      4.782416    2.932304   -2.835286
  H      6.579319    3.462678   -3.726731
  H      2.613011   -0.873979    2.683223
  H      5.233588   -2.089986    2.452033
  H      4.520625    0.641181    1.855119
  H     -0.835444    2.071499    2.846514
  H      1.314159   -0.060269    0.715071
  H      1.274815    2.204514    2.405766
  H     -3.563065   -1.890922    3.055579
  H     -5.111865   -3.571307    0.146399
  H     -5.263486   -1.223103    1.815917
  H      4.392774   -1.612889    4.864983
  H      4.212923    1.899123    5.067859
  H      3.286074    1.707984    3.581855
  H      4.909585    2.402940    3.533051
  H     -6.208210   -3.621406    2.844678
  H     -3.153244   -4.869042    1.004859
  H     -3.402067   -5.908019    2.407831
  H     -2.097338   -4.714658    2.398340
  H     -1.495050    0.389678    0.569268
  H     -0.097806    0.208363    4.097428
  H      0.642100   -1.368239    3.831917
  H     -1.114091   -1.213252    3.848724
  H     -0.051035   -5.391535   -1.746934
  H     -1.184671   -3.370768   -5.364733
  H      0.312091   -2.889527   -4.547174
  H     -2.273329    3.984827   -4.463505
  H     -4.467644    5.804922   -2.151069
  H     -3.654334    4.726308   -1.028644
  H      6.764837    2.809402   -2.086388
  H      6.883141    0.922809    4.250434
  H      6.669753   -0.823134    4.342192
  H      6.061676    0.202963    5.640974
  H     -3.035034   -3.794062    4.609376
  H     -4.347127   -4.960159    4.535818
  H     -4.713984   -3.244189    4.667322
  H      0.505331   -2.491081    1.611841
  H     -0.248955   -1.684853    0.234407
  H     -1.246796   -2.283003    1.551425
  H     -1.236698   -6.291885   -4.480254
  H     -2.631564   -5.215083   -4.387846
  H     -2.100125   -6.079972   -2.949483
  H      5.963564    0.158376   -5.367386
  H      6.298965    1.858219   -5.668556
  H      4.768772    1.394908   -4.947980
  H      8.452310    1.197408   -2.733298
  H      8.417496    1.879096   -4.368218
  H      8.216142    0.142220   -4.122152
  H     -4.908593    5.130512   -4.530483
  H     -5.872614    3.787419   -3.911352
  H     -4.560917    3.473820   -5.043754

 Multiplicity           Mult            ....    1
 Number of Electrons    NEL             ....  462
 Basis Dimension        Dim             .... 1413

ORBITAL ENERGIES
----------------

  NO   OCC          E(Eh)            E(eV)
   0   2.0000     -13.982326      -380.4784
   1   2.0000     -13.979081      -380.3901
   2   2.0000     -13.978554      -380.3758
   3   2.0000     -13.977429      -380.3452
   4   2.0000     -13.976846      -380.3293
   5   2.0000     -13.976373      -380.3164
   6   2.0000     -13.976275      -380.3138
   7   2.0000     -13.974316      -380.2605
   8   2.0000     -13.972790      -380.2189
   9   2.0000     -13.970846      -380.1660
  10   2.0000     -13.966480      -380.0473
  11   2.0000     -13.960358      -379.8807
  12   2.0000      -9.953001      -270.8349
  13   2.0000      -9.951457      -270.7929
  14   2.0000      -9.937701      -270.4186
  15   2.0000      -9.931037      -270.2373
  16   2.0000      -9.930726      -270.2288
  17   2.0000      -9.930201      -270.2145
  18   2.0000      -9.929803      -270.2037
  19   2.0000      -9.928935      -270.1801
  20   2.0000      -9.927969      -270.1538
  21   2.0000      -9.927846      -270.1504
  22   2.0000      -9.927789      -270.1489
  23   2.0000      -9.927280      -270.1350
  24   2.0000      -9.925221      -270.0790
  25   2.0000      -9.922460      -270.0039
  26   2.0000      -9.919043      -269.9109
  27   2.0000      -9.915760      -269.8215
  28   2.0000      -9.913771      -269.7674
  29   2.0000      -9.912583      -269.7351
  30   2.0000      -9.910511      -269.6787
  31   2.0000      -9.906919      -269.5810
  32   2.0000      -9.906480      -269.5690
  33   2.0000      -9.906107      -269.5589
  34   2.0000      -9.906003      -269.5560
  35   2.0000      -9.904731      -269.5214
  36   2.0000      -9.904672      -269.5198
  37   2.0000      -9.904086      -269.5039
  38   2.0000      -9.903478      -269.4873
  39   2.0000      -9.902870      -269.4708
  40   2.0000      -9.902703      -269.4663
  41   2.0000      -9.902311      -269.4556
  42   2.0000      -9.902111      -269.4501
  43   2.0000      -9.901480      -269.4330
  44   2.0000      -9.899866      -269.3890
  45   2.0000      -9.898325      -269.3471
  46   2.0000      -9.897657      -269.3289
  47   2.0000      -9.897180      -269.3159
  48   2.0000      -9.895567      -269.2721
  49   2.0000      -9.893382      -269.2126
  50   2.0000      -9.891853      -269.1710
  51   2.0000      -9.890621      -269.1375
  52   2.0000      -9.881688      -268.8944
  53   2.0000      -9.879637      -268.8386
  54   2.0000      -9.879569      -268.8368
  55   2.0000      -9.878390      -268.8047
  56   2.0000      -9.878309      -268.8024
  57   2.0000      -9.875502      -268.7261
  58   2.0000      -9.874943      -268.7108
  59   2.0000      -9.874796      -268.7069
  60   2.0000      -9.873880      -268.6819
  61   2.0000      -9.870265      -268.5836
  62   2.0000      -9.867986      -268.5216
  63   2.0000      -0.891490       -24.2587
  64   2.0000      -0.888342       -24.1730
  65   2.0000      -0.880698       -23.9650
  66   2.0000      -0.862846       -23.4792
  67   2.0000      -0.862150       -23.4603
  68   2.0000      -0.861551       -23.4440
  69   2.0000      -0.843024       -22.9398
  70   2.0000      -0.840088       -22.8600
  71   2.0000      -0.835650       -22.7392
  72   2.0000      -0.799432       -21.7537
  73   2.0000      -0.794769       -21.6268
  74   2.0000      -0.792426       -21.5630
  75   2.0000      -0.790582       -21.5128
  76   2.0000      -0.787957       -21.4414
  77   2.0000      -0.775139       -21.0926
  78   2.0000      -0.740676       -20.1548
  79   2.0000      -0.738814       -20.1041
  80   2.0000      -0.734733       -19.9931
  81   2.0000      -0.729264       -19.8443
  82   2.0000      -0.725310       -19.7367
  83   2.0000      -0.719197       -19.5704
  84   2.0000      -0.706011       -19.2115
  85   2.0000      -0.696670       -18.9574
  86   2.0000      -0.691879       -18.8270
  87   2.0000      -0.690174       -18.7806
  88   2.0000      -0.687738       -18.7143
  89   2.0000      -0.686228       -18.6732
  90   2.0000      -0.635258       -17.2863
  91   2.0000      -0.634760       -17.2727
  92   2.0000      -0.633045       -17.2260
  93   2.0000      -0.630330       -17.1521
  94   2.0000      -0.629395       -17.1267
  95   2.0000      -0.628732       -17.1087
  96   2.0000      -0.628293       -17.0967
  97   2.0000      -0.627449       -17.0738
  98   2.0000      -0.625953       -17.0330
  99   2.0000      -0.625459       -17.0196
 100   2.0000      -0.618643       -16.8341
 101   2.0000      -0.612621       -16.6703
 102   2.0000      -0.599878       -16.3235
 103   2.0000      -0.593029       -16.1371
 104   2.0000      -0.591155       -16.0861
 105   2.0000      -0.583127       -15.8677
 106   2.0000      -0.577952       -15.7269
 107   2.0000      -0.573628       -15.6092
 108   2.0000      -0.569610       -15.4999
 109   2.0000      -0.562574       -15.3084
 110   2.0000      -0.556030       -15.1304
 111   2.0000      -0.532039       -14.4775
 112   2.0000      -0.527806       -14.3623
 113   2.0000      -0.526374       -14.3234
 114   2.0000      -0.518328       -14.1044
 115   2.0000      -0.516819       -14.0634
 116   2.0000      -0.509504       -13.8643
 117   2.0000      -0.505599       -13.7580
 118   2.0000      -0.500987       -13.6326
 119   2.0000      -0.495217       -13.4755
 120   2.0000      -0.485688       -13.2162
 121   2.0000      -0.473002       -12.8710
 122   2.0000      -0.471233       -12.8229
 123   2.0000      -0.468620       -12.7518
 124   2.0000      -0.467429       -12.7194
 125   2.0000      -0.464771       -12.6471
 126   2.0000      -0.461572       -12.5600
 127   2.0000      -0.457180       -12.4405
 128   2.0000      -0.449891       -12.2422
 129   2.0000      -0.448489       -12.2040
 130   2.0000      -0.445998       -12.1362
 131   2.0000      -0.444212       -12.0876
 132   2.0000      -0.440626       -11.9901
 133   2.0000      -0.436348       -11.8736
 134   2.0000      -0.431323       -11.7369
 135   2.0000      -0.430246       -11.7076
 136   2.0000      -0.424124       -11.5410
 137   2.0000      -0.422926       -11.5084
 138   2.0000      -0.419879       -11.4255
 139   2.0000      -0.418110       -11.3773
 140   2.0000      -0.415351       -11.3023
 141   2.0000      -0.413643       -11.2558
 142   2.0000      -0.412229       -11.2173
 143   2.0000      -0.410569       -11.1721
 144   2.0000      -0.409623       -11.1464
 145   2.0000      -0.409139       -11.1332
 146   2.0000      -0.406467       -11.0605
 147   2.0000      -0.403970       -10.9926
 148   2.0000      -0.401612       -10.9284
 149   2.0000      -0.399058       -10.8589
 150   2.0000      -0.395750       -10.7689
 151   2.0000      -0.393290       -10.7020
 152   2.0000      -0.390325       -10.6213
 153   2.0000      -0.388486       -10.5712
 154   2.0000      -0.386923       -10.5287
 155   2.0000      -0.384333       -10.4582
 156   2.0000      -0.379878       -10.3370
 157   2.0000      -0.378515       -10.2999
 158   2.0000      -0.377356       -10.2684
 159   2.0000      -0.369210       -10.0467
 160   2.0000      -0.365422        -9.9436
 161   2.0000      -0.364398        -9.9158
 162   2.0000      -0.359763        -9.7897
 163   2.0000      -0.358119        -9.7449
 164   2.0000      -0.356564        -9.7026
 165   2.0000      -0.355315        -9.6686
 166   2.0000      -0.354827        -9.6553
 167   2.0000      -0.351648        -9.5688
 168   2.0000      -0.350030        -9.5248
 169   2.0000      -0.348944        -9.4952
 170   2.0000      -0.348093        -9.4721
 171   2.0000      -0.347253        -9.4492
 172   2.0000      -0.345610        -9.4045
 173   2.0000      -0.343906        -9.3581
 174   2.0000      -0.342658        -9.3242
 175   2.0000      -0.340981        -9.2786
 176   2.0000      -0.340402        -9.2628
 177   2.0000      -0.339078        -9.2268
 178   2.0000      -0.337732        -9.1902
 179   2.0000      -0.336811        -9.1651
 180   2.0000      -0.335882        -9.1398
 181   2.0000      -0.335466        -9.1285
 182   2.0000      -0.333579        -9.0771
 183   2.0000      -0.331125        -9.0104
 184   2.0000      -0.329476        -8.9655
 185   2.0000      -0.326480        -8.8840
 186   2.0000      -0.324087        -8.8188
 187   2.0000      -0.322362        -8.7719
 188   2.0000      -0.321382        -8.7452
 189   2.0000      -0.320835        -8.7304
 190   2.0000      -0.319561        -8.6957
 191   2.0000      -0.316723        -8.6185
 192   2.0000      -0.315576        -8.5873
 193   2.0000      -0.313881        -8.5411
 194   2.0000      -0.310645        -8.4531
 195   2.0000      -0.309254        -8.4152
 196   2.0000      -0.308308        -8.3895
 197   2.0000      -0.307494        -8.3673
 198   2.0000      -0.305032        -8.3003
 199   2.0000      -0.302908        -8.2426
 200   2.0000      -0.302057        -8.2194
 201   2.0000      -0.299753        -8.1567
 202   2.0000      -0.297229        -8.0880
 203   2.0000      -0.296001        -8.0546
 204   2.0000      -0.294181        -8.0051
 205   2.0000      -0.292600        -7.9620
 206   2.0000      -0.292289        -7.9536
 207   2.0000      -0.289646        -7.8817
 208   2.0000      -0.287876        -7.8335
 209   2.0000      -0.285408        -7.7663
 210   2.0000      -0.269802        -7.3417
 211   2.0000      -0.265113        -7.2141
 212   2.0000      -0.262076        -7.1314
 213   2.0000      -0.226858        -6.1731
 214   2.0000      -0.224911        -6.1201
 215   2.0000      -0.221214        -6.0195
 216   2.0000      -0.218954        -5.9580
 217   2.0000      -0.216502        -5.8913
 218   2.0000      -0.214600        -5.8396
 219   2.0000      -0.214143        -5.8271
 220   2.0000      -0.212399        -5.7797
 221   2.0000      -0.211364        -5.7515
 222   2.0000      -0.211019        -5.7421
 223   2.0000      -0.210421        -5.7258
 224   2.0000      -0.208307        -5.6683
 225   2.0000      -0.205471        -5.5911
 226   2.0000      -0.205028        -5.5791
 227   2.0000      -0.201455        -5.4819
 228   2.0000      -0.193269        -5.2591
 229   2.0000      -0.192362        -5.2344
 230   2.0000      -0.180245        -4.9047
 231   0.0000      -0.082737        -2.2514
 232   0.0000      -0.079954        -2.1756
 233   0.0000      -0.076857        -2.0914
 234   0.0000      -0.067542        -1.8379
 235   0.0000      -0.066595        -1.8121

MULLIKEN ATOMIC CHARGES
-----------------------
   0 C :    0.517715
   1 C :   -0.769423
   2 C :   -0.181082
   3 C :    0.321643
   4 H :    0.225647
   5 C :   -0.226832
   6 C :    0.248836
   7 H :    0.209906
   8 C :   -0.216819
   9 C :   -0.427540
  10 H :    0.198248
  11 C :   -0.458510
  12 H :    0.123502
  13 H :    0.143423
  14 C :    0.053306
  15 C :   -0.480807
  16 C :   -0.203317
  17 C :    0.430539
  18 H :    0.246088
  19 C :   -0.264395
  20 C :    0.321467
  21 H :    0.218481
  22 C :   -0.166604
  23 C :   -0.401603
  24 H :    0.238370
  25 C :   -0.446473
  26 H :    0.107552
  27 H :    0.126169
  28 C :    0.020686
  29 C :   -0.421743
  30 C :   -0.065670
  31 C :    0.251069
  32 H :    0.281769
  33 C :   -0.174657
  34 C :    0.271060
  35 H :    0.218490
  36 C :   -0.035011
  37 C :   -0.387231
  38 H :    0.117556
  39 C :   -0.380953
  40 H :    0.105925
  41 H :    0.097250
  42 C :   -0.286412
  43 C :    0.042830
  44 N :   -0.279017
  45 H :    0.193515
  46 N :   -0.312360
  47 C :   -0.511235
  48 C :   -0.475053
  49 C :   -0.303530
  50 C :    0.018584
  51 N :   -0.258212
  52 H :    0.181063
  53 N :   -0.240411
  54 C :   -0.478398
  55 C :   -0.534573
  56 C :   -0.236895
  57 C :   -0.178457
  58 N :   -0.417038
  59 C :   -0.323035
  60 C :   -0.453292
  61 N :   -0.296391
  62 H :    0.163618
  63 C :   -0.060232
  64 C :   -0.306529
  65 N :   -0.060699
  66 C :   -0.447285
  67 C :   -0.516792
  68 N :   -0.041618
  69 H :    0.178518
  70 H :    0.178540
  71 C :   -0.031385
  72 C :   -0.272944
  73 N :   -0.069484
  74 C :   -0.446082
  75 C :   -0.550617
  76 N :   -0.066348
  77 H :    0.171247
  78 H :    0.175327
  79 C :   -0.060926
  80 C :   -0.294614
  81 N :   -0.060705
  82 C :   -0.434191
  83 C :   -0.537291
  84 N :   -0.069611
  85 H :    0.174339
  86 H :    0.333258
  87 H :    0.170774
  88 H :    0.229071
  89 H :    0.309556
  90 H :    0.339268
  91 H :    0.173392
  92 H :    0.303532
  93 H :    0.316103
  94 H :    0.173151
  95 H :    0.169087
  96 H :    0.170091
  97 H :    0.156910
  98 H :    0.183307
  99 H :    0.154752
 100 H :    0.154751
 101 H :    0.157764
 102 H :    0.171051
 103 H :    0.143551
 104 H :    0.143487
 105 H :    0.187532
 106 H :    0.136454
 107 H :    0.133615
 108 H :    0.177478
 109 H :    0.191552
 110 H :    0.138669
 111 H :    0.177767
 112 H :    0.205462
 113 H :    0.154555
 114 H :    0.164388
 115 H :    0.172215
 116 H :    0.156166
 117 H :    0.180976
 118 H :    0.173345
 119 H :    0.168979
 120 H :    0.132637
 121 H :    0.156866
 122 H :    0.210554
 123 H :    0.160106
 124 H :    0.173129
 125 H :    0.171291
 126 H :    0.182229
 127 H :    0.179436
 128 H :    0.195399
 129 H :    0.178936
 130 H :    0.156855
 131 H :    0.170795
 132 H :    0.158840
 133 H :    0.170683
 134 H :    0.178292
Sum of atomic charges:   -0.0000000

LOEWDIN ATOMIC CHARGES
----------------------
   0 C :   -0.071447
   1 C :   -0.027040
   2 C :   -0.119696
   3 C :   -0.083241
   4 H :    0.181420
   5 C :   -0.117467
   6 C :   -0.081742
   7 H :    0.182237
   8 C :   -0.133278
   9 C :   -0.035303
  10 H :    0.169399
  11 C :   -0.034163
  12 H :    0.147885
  13 H :    0.149778
  14 C :   -0.067905
  15 C :   -0.039425
  16 C :   -0.123272
  17 C :   -0.078172
  18 H :    0.189510
  19 C :   -0.117913
  20 C :   -0.087948
  21 H :    0.181187
  22 C :   -0.132950
  23 C :   -0.034228
  24 H :    0.180901
  25 C :   -0.032262
  26 H :    0.142185
  27 H :    0.149491
  28 C :   -0.077173
  29 C :   -0.031398
  30 C :   -0.109974
  31 C :   -0.077548
  32 H :    0.194198
  33 C :   -0.117103
  34 C :   -0.078839
  35 H :    0.181969
  36 C :   -0.134287
  37 C :   -0.034927
  38 H :    0.164562
  39 C :   -0.032527
  40 H :    0.144747
  41 H :    0.139514
  42 C :   -0.197028
  43 C :   -0.106674
  44 N :   -0.350928
  45 H :    0.161033
  46 N :   -0.356840
  47 C :   -0.418499
  48 C :   -0.416765
  49 C :   -0.208929
  50 C :   -0.106627
  51 N :   -0.377134
  52 H :    0.155796
  53 N :   -0.347306
  54 C :   -0.413061
  55 C :   -0.420957
  56 C :   -0.099415
  57 C :   -0.200474
  58 N :   -0.359503
  59 C :   -0.422880
  60 C :   -0.415310
  61 N :   -0.357037
  62 H :    0.154793
  63 C :   -0.102677
  64 C :   -0.194411
  65 N :   -0.169896
  66 C :   -0.407856
  67 C :   -0.427604
  68 N :   -0.191990
  69 H :    0.162006
  70 H :    0.165271
  71 C :   -0.104521
  72 C :   -0.194930
  73 N :   -0.163189
  74 C :   -0.407761
  75 C :   -0.431454
  76 N :   -0.182408
  77 H :    0.162193
  78 H :    0.155592
  79 C :   -0.099944
  80 C :   -0.197126
  81 N :   -0.169808
  82 C :   -0.408493
  83 C :   -0.427961
  84 N :   -0.198752
  85 H :    0.157576
  86 H :    0.270608
  87 H :    0.161395
  88 H :    0.256398
  89 H :    0.263446
  90 H :    0.278921
  91 H :    0.149903
  92 H :    0.263790
  93 H :    0.270123
  94 H :    0.144709
  95 H :    0.153336
  96 H :    0.160840
  97 H :    0.151726
  98 H :    0.159407
  99 H :    0.152490
 100 H :    0.152104
 101 H :    0.153245
 102 H :    0.160713
 103 H :    0.165320
 104 H :    0.147841
 105 H :    0.165366
 106 H :    0.151461
 107 H :    0.146591
 108 H :    0.157406
 109 H :    0.165161
 110 H :    0.146014
 111 H :    0.162645
 112 H :    0.170295
 113 H :    0.150697
 114 H :    0.158277
 115 H :    0.156737
 116 H :    0.151535
 117 H :    0.159984
 118 H :    0.163764
 119 H :    0.153010
 120 H :    0.155809
 121 H :    0.161357
 122 H :    0.178796
 123 H :    0.156215
 124 H :    0.160072
 125 H :    0.160742
 126 H :    0.158742
 127 H :    0.163910
 128 H :    0.165572
 129 H :    0.163025
 130 H :    0.155798
 131 H :    0.160217
 132 H :    0.157058
 133 H :    0.159389
 134 H :    0.162166

  Mayer bond orders larger than 0.100000
B(  0-C ,  1-C ) :   0.4481 B(  0-C ,  2-C ) :   1.0814 B(  0-C ,  3-C ) :   0.1421
B(  0-C ,  6-C ) :   0.1011 B(  0-C ,  8-C ) :   1.3872 B(  0-C , 46-N ) :  -0.1805
B(  1-C , 44-N ) :   1.1515 B(  1-C , 46-N ) :   1.1604 B(  1-C , 94-H ) :   0.9962
B(  2-C ,  3-C ) :   1.4097 B(  2-C ,  4-H ) :   0.9037 B(  2-C , 11-C ) :  -0.1223
B(  2-C , 65-N ) :   0.1145 B(  3-C ,  5-C ) :   1.1030 B(  3-C ,  6-C ) :   0.1146
B(  3-C , 11-C ) :   0.8987 B(  3-C , 65-N ) :  -0.2296 B(  5-C ,  6-C ) :   1.4093
B(  5-C ,  7-H ) :   0.8893 B(  5-C , 11-C ) :   0.1109 B(  6-C ,  8-C ) :   1.2307
B(  6-C ,  9-C ) :   0.9355 B(  6-C , 73-N ) :  -0.1914 B(  8-C , 10-H ) :   0.8816
B(  9-C , 12-H ) :   0.8887 B(  9-C , 73-N ) :   2.0164 B( 11-C , 13-H ) :   0.9109
B( 11-C , 65-N ) :   2.0485 B( 14-C , 15-C ) :   0.8925 B( 14-C , 16-C ) :   1.3864
B( 14-C , 17-C ) :   0.1251 B( 14-C , 22-C ) :   1.4623 B( 15-C , 16-C ) :  -0.1101
B( 15-C , 51-N ) :   1.0179 B( 15-C , 53-N ) :   1.0467 B( 15-C , 87-H ) :   0.9287
B( 16-C , 17-C ) :   1.2374 B( 16-C , 18-H ) :   0.8941 B( 17-C , 19-C ) :   1.1306
B( 17-C , 20-C ) :   0.1103 B( 17-C , 25-C ) :   0.8440 B( 17-C , 81-N ) :  -0.2363
B( 19-C , 20-C ) :   1.3912 B( 19-C , 21-H ) :   0.9034 B( 19-C , 25-C ) :   0.1352
B( 20-C , 22-C ) :   1.1411 B( 20-C , 23-C ) :   0.9395 B( 20-C , 68-N ) :  -0.2370
B( 22-C , 24-H ) :   0.8543 B( 23-C , 26-H ) :   0.9021 B( 23-C , 68-N ) :   2.0149
B( 25-C , 27-H ) :   0.9128 B( 25-C , 81-N ) :   2.0850 B( 28-C , 29-C ) :   0.7109
B( 28-C , 30-C ) :   1.4096 B( 28-C , 31-C ) :   0.1935 B( 28-C , 34-C ) :   0.1754
B( 28-C , 36-C ) :   1.2584 B( 28-C , 61-N ) :  -0.1641 B( 29-C , 58-N ) :   1.0057
B( 29-C , 61-N ) :   1.2138 B( 29-C , 91-H ) :   0.9844 B( 30-C , 31-C ) :   1.2400
B( 30-C , 32-H ) :   0.8792 B( 31-C , 33-C ) :   1.1462 B( 31-C , 34-C ) :   0.1517
B( 31-C , 39-C ) :   0.9292 B( 31-C , 76-N ) :  -0.2509 B( 33-C , 34-C ) :   1.3814
B( 33-C , 35-H ) :   0.8886 B( 34-C , 36-C ) :   1.1754 B( 34-C , 37-C ) :   0.9310
B( 34-C , 84-N ) :  -0.2057 B( 36-C , 38-H ) :   0.9483 B( 37-C , 40-H ) :   0.9060
B( 37-C , 84-N ) :   1.9983 B( 39-C , 41-H ) :   0.9077 B( 39-C , 76-N ) :   2.0665
B( 42-C , 43-C ) :   0.8689 B( 42-C , 44-N ) :   0.9903 B( 42-C , 45-H ) :   0.9460
B( 42-C , 99-H ) :   0.9288 B( 43-C , 46-N ) :   0.9874 B( 43-C , 47-C ) :   0.9944
B( 43-C , 48-C ) :   1.0124 B( 44-N , 93-H ) :   0.8638 B( 46-N , 92-H ) :   0.8624
B( 47-C ,117-H ) :   0.9625 B( 47-C ,118-H ) :   0.9550 B( 47-C ,119-H ) :   0.9465
B( 48-C ,100-H ) :   0.9525 B( 48-C ,101-H ) :   0.9517 B( 48-C ,102-H ) :   0.9537
B( 49-C , 50-C ) :   0.8412 B( 49-C , 51-N ) :   1.0114 B( 49-C , 52-H ) :   0.9436
B( 49-C , 95-H ) :   0.9367 B( 50-C , 53-N ) :   1.0351 B( 50-C , 54-C ) :   0.9998
B( 50-C , 55-C ) :   0.9782 B( 51-N , 86-H ) :   0.9070 B( 53-N , 54-C ) :  -0.1006
B( 53-N , 88-H ) :   0.9220 B( 54-C ,114-H ) :   0.9554 B( 54-C ,115-H ) :   0.9553
B( 54-C ,116-H ) :   0.9585 B( 55-C , 96-H ) :   0.9530 B( 55-C , 97-H ) :   0.9567
B( 55-C , 98-H ) :   0.9657 B( 56-C , 57-C ) :   0.8773 B( 56-C , 58-N ) :   1.0523
B( 56-C , 59-C ) :   1.0434 B( 56-C , 60-C ) :   1.0005 B( 57-C , 58-N ) :  -0.1212
B( 57-C , 59-C ) :  -0.1029 B( 57-C , 61-N ) :   0.9852 B( 57-C , 62-H ) :   0.9394
B( 57-C ,103-H ) :   0.9077 B( 58-N , 86-H ) :  -0.1249 B( 58-N , 90-H ) :   0.8346
B( 59-C ,120-H ) :   0.9542 B( 59-C ,121-H ) :   0.9184 B( 59-C ,122-H ) :   0.9545
B( 60-C ,104-H ) :   0.9506 B( 60-C ,105-H ) :   0.9460 B( 60-C ,106-H ) :   0.9630
B( 61-N , 89-H ) :   0.8665 B( 63-C , 64-C ) :   0.8938 B( 63-C , 65-N ) :   0.8820
B( 63-C , 66-C ) :   0.9988 B( 63-C , 67-C ) :   0.9678 B( 64-C , 68-N ) :   0.9723
B( 64-C , 69-H ) :   0.9416 B( 64-C ,107-H ) :   0.9174 B( 66-C ,123-H ) :   0.9533
B( 66-C ,124-H ) :   0.9520 B( 66-C ,125-H ) :   0.9494 B( 67-C , 70-H ) :   0.9418
B( 67-C ,108-H ) :   0.9573 B( 67-C ,109-H ) :   0.9484 B( 71-C , 72-C ) :   0.8769
B( 71-C , 73-N ) :   0.9069 B( 71-C , 74-C ) :   0.9862 B( 71-C , 75-C ) :   0.9522
B( 72-C , 76-N ) :   0.9939 B( 72-C , 77-H ) :   0.9372 B( 72-C ,110-H ) :   0.9241
B( 74-C ,132-H ) :   0.9538 B( 74-C ,133-H ) :   0.9517 B( 74-C ,134-H ) :   0.9492
B( 75-C , 78-H ) :   0.9560 B( 75-C ,111-H ) :   0.9389 B( 75-C ,112-H ) :   0.9520
B( 79-C , 80-C ) :   0.8910 B( 79-C , 81-N ) :   0.8765 B( 79-C , 82-C ) :   0.9862
B( 79-C , 83-C ) :   0.9556 B( 80-C , 84-N ) :   0.9140 B( 80-C , 85-H ) :   0.9444
B( 80-C ,113-H ) :   0.9150 B( 82-C ,129-H ) :   0.9482 B( 82-C ,130-H ) :   0.9539
B( 82-C ,131-H ) :   0.9530 B( 83-C ,126-H ) :   0.9589 B( 83-C ,127-H ) :   0.9404
B( 83-C ,128-H ) :   0.9479

Dispersion correction           -0.421436832
FINAL SINGLE POINT ENERGY     -2642.499400193458

DIPOLE MOMENT
-------------
                                X             Y             Z
Electronic contribution:      4.27233      12.81117     -17.85095
Nuclear contribution   :     -5.39583     -13.06117      18.67762
                        -----------------------------------------
Total Dipole Moment    :     -1.12350      -0.25000       0.82667
                        -----------------------------------------
Magnitude (a.u.)       :      1.41708
Magnitude (Debye)      :      3.60194

Rotational constants in cm-1:     0.001420     0.001005     0.000871
Rotational constants in MHz :    42.565460    30.121849    26.110038

                             ****ORCA TERMINATED NORMALLY****
TOTAL RUN TIME: 0 days 0 hours 5 minutes 3 seconds 733 msec
