                         Program Version 4.2.1 -  RELEASE  -
|  1> ! RI-MP2 cc-pVTZ cc-pVTZ/C TIGHTSCF printbasis Grid6 NOFINALGRID SlowConv
|  2>
|  3> %base "_o_3_alde1_6_ami3_2_opt_MP2"
|  4> %maxcore 3000
|  5> %pal
|  6>    nprocs 32
|  7> end
|  8>
|  9> * xyzfile 0 1 _o_3_alde1_6_ami3_2_opt_B97-3c.xyz
| 10>
| 11>                          ****END OF INPUT****

CARTESIAN COORDINATES (ANGSTROEM)
---------------------------------
  C     -3.259315   -1.567456   -0.616033
  C     -3.596986   -1.392681    0.796347
  C     -2.618776   -2.731120   -1.054472
  C     -2.261045   -2.889236   -2.384141
  H     -2.401754   -3.503217   -0.328339
  C     -2.540926   -1.863075   -3.292107
  C     -3.189697   -0.708707   -2.878725
  H     -2.245752   -1.992534   -4.325136
  C     -3.542971   -0.564598   -1.531857
  C     -3.474930    0.337702   -3.858501
  H     -4.034530    0.348056   -1.221318
  C     -1.591940   -4.119364   -2.799288
  H     -2.992156    0.207012   -4.837358
  H     -4.015087   -0.414533    1.073064
  H     -1.376012   -4.829747   -1.989631
  C      3.220745   -2.402494   -0.315432
  C      3.089729   -2.807873    1.083774
  C      3.950619   -1.259638   -0.658738
  C      4.049496   -0.847597   -1.978392
  H      4.431059   -0.699487    0.132422
  C      3.401321   -1.586089   -2.973512
  C      2.686145   -2.730976   -2.653821
  H      3.475738   -1.248178   -3.998840
  C      2.594812   -3.132100   -1.315796
  C      2.031995   -3.483871   -3.722294
  H      2.020616   -4.018510   -1.080002
  C      4.821001    0.352080   -2.293128
  H      2.008734   -2.984174   -4.701085
  H      2.422689   -3.659992    1.276608
  H      5.239952    0.879176   -1.425075
  C      0.678004    3.659097   -0.216083
  C      0.935918    3.732558    1.221835
  C     -0.630209    3.723606   -0.707157
  C     -0.887291    3.618013   -2.064990
  H     -1.438953    3.851015    0.000080
  C      0.181019    3.435743   -2.948878
  C      1.486237    3.384282   -2.481739
  H     -0.032783    3.342122   -4.005547
  C      1.728268    3.492563   -1.107175
  C      2.577748    3.202249   -3.436622
  H      2.750391    3.435775   -0.756384
  C     -2.268293    3.691130   -2.534882
  H      2.267359    2.946436   -4.459604
  H      1.981122    3.590101    1.530732
  H     -3.026297    3.779626   -1.744678
  C     -2.418913   -2.263934    3.861886
  C     -3.694857   -2.037022    3.045273
  N     -1.391286   -1.334496    3.415154
  N     -3.400211   -2.305411    1.657649
  C     -4.813367   -2.955438    3.527893
  C      2.956198   -1.408025    4.180798
  C      3.461957   -2.616686    3.387573
  N      1.694841   -0.954832    3.611881
  C      2.774642   -1.775385    5.644360
  N      3.691699   -2.201733    2.023882
  C     -0.525775    2.844250    4.156186
  C      0.325650    3.920174    3.475069
  N     -0.190427    1.541800    3.598442
  C     -0.287079    2.853812    5.657176
  N      0.007637    3.927033    2.066860
  C     -0.573143   -5.600053   -4.273523
  C      0.872910   -5.267187   -4.673089
  N     -1.272440   -4.366609   -4.002679
  N      1.522079   -4.632941   -3.550219
  C     -4.405178    2.321216   -4.650540
  C     -3.994526    3.692426   -4.091749
  N     -4.223100    1.332896   -3.613949
  N     -2.589564    3.654902   -3.762387
  C      5.750989    1.994872   -3.650180
  C      4.793926    3.089906   -4.146202
  N      5.003736    0.771983   -3.477001
  N      3.801411    3.325849   -3.124583
  C      5.558138    4.378076   -4.434836
  H     -0.296442    1.585052    2.591607
  H     -0.853615    0.826041    3.889252
  H     -0.479821   -1.562173    3.808080
  H     -1.268268   -1.444727    2.415407
  H      1.832302   -0.773203    2.624494
  H      1.409135   -0.056298    3.995296
  C     -1.278605   -6.370276   -5.382052
  C     -4.265518    4.794869   -5.107155
  H     -1.574837    3.121311    3.971670
  C     -0.559925    4.219818    6.268376
  H      0.749309    2.558946    5.841389
  H     -0.914259    2.090807    6.123526
  C      0.266037    5.298815    5.583192
  H     -0.350989    4.202865    7.339491
  H     -1.622099    4.459211    6.164591
  C      0.043696    5.292594    4.078884
  H      1.325434    5.129416    5.795223
  H      0.024360    6.282724    5.988877
  H      0.676474    6.034174    3.589281
  H     -0.989203    5.562952    3.850144
  H      1.382001    3.658929    3.645374
  H     -3.997309   -0.988445    3.194173
  C     -5.083681   -2.774131    5.013357
  H     -4.523748   -3.987815    3.321472
  H     -5.712776   -2.759957    2.942330
  C     -3.818148   -2.976228    5.834080
  H     -5.864030   -3.466102    5.334757
  H     -5.471355   -1.767302    5.192265
  C     -2.698954   -2.070397    5.343170
  H     -3.501566   -4.020255    5.756241
  H     -4.016486   -2.792256    6.891456
  H     -1.781274   -2.251811    5.907041
  H     -2.962921   -1.022540    5.508325
  H     -2.133363   -3.314341    3.699010
  H      3.745225   -0.643848    4.111700
  C      4.754204   -3.155871    3.993449
  H      2.683920   -3.394319    3.443301
  C      4.578083   -3.508882    5.462103
  H      5.530823   -2.396868    3.879035
  H      5.080292   -4.025384    3.421038
  C      4.055415   -2.321244    6.257322
  H      5.525416   -3.860135    5.874676
  H      3.874099   -4.340702    5.554115
  H      2.429109   -0.896648    6.193408
  H      1.976747   -2.519249    5.715090
  H      3.885122   -2.604724    7.297455
  H      4.815536   -1.534954    6.272003
  H      4.335909    2.729187   -5.079243
  C      6.695836    4.153237   -5.418138
  H      5.947044    4.769138   -3.492502
  H      4.856923    5.121868   -4.815358
  C      7.640003    3.067337   -4.925356
  H      7.235972    5.087827   -5.579243
  H      6.287121    3.860211   -6.389456
  C      6.887103    1.777887   -4.641283
  H      8.136789    3.409309   -4.012892
  H      8.428820    2.884514   -5.656856
  H      7.557519    1.015413   -4.243189
  H      6.470058    1.373573   -5.565857
  H      6.168920    2.348812   -2.695918
  H     -4.612001    3.867133   -3.198022
  C     -5.718890    4.804712   -5.552111
  H     -3.609196    4.645382   -5.966866
  H     -3.987041    5.752670   -4.666292
  C     -6.129449    3.448955   -6.106155
  H     -5.874879    5.586344   -6.297421
  H     -6.359922    5.054974   -4.701947
  C     -5.862918    2.341408   -5.099069
  H     -5.568376    3.251128   -7.023993
  H     -7.185030    3.451055   -6.383437
  H     -6.112489    1.366105   -5.518868
  H     -6.494928    2.473277   -4.218547
  H     -3.765953    2.115429   -5.522034
  H     -0.514966   -6.234005   -3.376156
  C     -0.518565   -7.630207   -5.763025
  H     -1.381657   -5.715717   -6.249882
  H     -2.289860   -6.610529   -5.051997
  C      0.912972   -7.304446   -6.160757
  H     -1.034265   -8.144863   -6.575394
  H     -0.508183   -8.321511   -4.915480
  C      1.626449   -6.535710   -5.059903
  H      0.903930   -6.707041   -7.076935
  H      1.464608   -8.217270   -6.392215
  H      2.635892   -6.261392   -5.368957
  H      1.731189   -7.161314   -4.171217
  H      0.828184   -4.597785   -5.545103

 Total Charge           Charge          ....    0
 Multiplicity           Mult            ....    1
 Number of Electrons    NEL             ....  546
 Basis Dimension        Dim             .... 3426

ORBITAL ENERGIES
----------------

  NO   OCC          E(Eh)            E(eV)
   0   2.0000     -15.552174      -423.1962
   1   2.0000     -15.551997      -423.1913
   2   2.0000     -15.551977      -423.1908
   3   2.0000     -15.551095      -423.1668
   4   2.0000     -15.551034      -423.1652
   5   2.0000     -15.551034      -423.1652
   6   2.0000     -15.549601      -423.1261
   7   2.0000     -15.549514      -423.1238
   8   2.0000     -15.549505      -423.1235
   9   2.0000     -15.517278      -422.2466
  10   2.0000     -15.516424      -422.2234
  11   2.0000     -15.516370      -422.2219
  12   2.0000     -11.279814      -306.9393
  13   2.0000     -11.279625      -306.9342
  14   2.0000     -11.279598      -306.9335
  15   2.0000     -11.278009      -306.8902
  16   2.0000     -11.277953      -306.8887
  17   2.0000     -11.277931      -306.8881
  18   2.0000     -11.276700      -306.8546
  19   2.0000     -11.276642      -306.8530
  20   2.0000     -11.276600      -306.8519
  21   2.0000     -11.249428      -306.1125
  22   2.0000     -11.249396      -306.1116
  23   2.0000     -11.249362      -306.1107
  24   2.0000     -11.248029      -306.0744
  25   2.0000     -11.248011      -306.0739
  26   2.0000     -11.247961      -306.0726
  27   2.0000     -11.246635      -306.0365
  28   2.0000     -11.246541      -306.0339
  29   2.0000     -11.246541      -306.0339
  30   2.0000     -11.245540      -306.0067
  31   2.0000     -11.245466      -306.0047
  32   2.0000     -11.245451      -306.0043
  33   2.0000     -11.245002      -305.9921
  34   2.0000     -11.244895      -305.9892
  35   2.0000     -11.244880      -305.9887
  36   2.0000     -11.244419      -305.9762
  37   2.0000     -11.244151      -305.9689
  38   2.0000     -11.244133      -305.9684
  39   2.0000     -11.243891      -305.9618
  40   2.0000     -11.243847      -305.9606
  41   2.0000     -11.243784      -305.9589
  42   2.0000     -11.243779      -305.9588
  43   2.0000     -11.243764      -305.9584
  44   2.0000     -11.243760      -305.9583
  45   2.0000     -11.242791      -305.9319
  46   2.0000     -11.242691      -305.9292
  47   2.0000     -11.242679      -305.9289
  48   2.0000     -11.238021      -305.8021
  49   2.0000     -11.237692      -305.7932
  50   2.0000     -11.237585      -305.7902
  51   2.0000     -11.215447      -305.1878
  52   2.0000     -11.215447      -305.1878
  53   2.0000     -11.215435      -305.1875
  54   2.0000     -11.214691      -305.1673
  55   2.0000     -11.214684      -305.1671
  56   2.0000     -11.214675      -305.1668
  57   2.0000     -11.213724      -305.1410
  58   2.0000     -11.213719      -305.1408
  59   2.0000     -11.213711      -305.1406
  60   2.0000     -11.212633      -305.1113
  61   2.0000     -11.212433      -305.1058
  62   2.0000     -11.212376      -305.1043
  63   2.0000     -11.212281      -305.1017
  64   2.0000     -11.212243      -305.1006
  65   2.0000     -11.212236      -305.1004
  66   2.0000     -11.211395      -305.0776
  67   2.0000     -11.211196      -305.0722
  68   2.0000     -11.211110      -305.0698
  69   2.0000     -11.210894      -305.0639
  70   2.0000     -11.210649      -305.0573
  71   2.0000     -11.210620      -305.0565
  72   2.0000     -11.207191      -304.9632
  73   2.0000     -11.206920      -304.9558
  74   2.0000     -11.206782      -304.9521
  75   2.0000      -1.254094       -34.1256
  76   2.0000      -1.252664       -34.0867
  77   2.0000      -1.252628       -34.0857
  78   2.0000      -1.244146       -33.8549
  79   2.0000      -1.243961       -33.8499
  80   2.0000      -1.243930       -33.8491
  81   2.0000      -1.226040       -33.3622
  82   2.0000      -1.226002       -33.3612
  83   2.0000      -1.222626       -33.2693
  84   2.0000      -1.179698       -32.1012
  85   2.0000      -1.174183       -31.9511
  86   2.0000      -1.173899       -31.9434
  87   2.0000      -1.165704       -31.7204
  88   2.0000      -1.159531       -31.5524
  89   2.0000      -1.159339       -31.5472
  90   2.0000      -1.113110       -30.2893
  91   2.0000      -1.113097       -30.2889
  92   2.0000      -1.108745       -30.1705
  93   2.0000      -1.096386       -29.8342
  94   2.0000      -1.094620       -29.7861
  95   2.0000      -1.094414       -29.7805
  96   2.0000      -1.054823       -28.7032
  97   2.0000      -1.054791       -28.7023
  98   2.0000      -1.053928       -28.6788
  99   2.0000      -1.053109       -28.6566
 100   2.0000      -1.053043       -28.6548
 101   2.0000      -1.052874       -28.6501
 102   2.0000      -1.004986       -27.3471
 103   2.0000      -1.004940       -27.3458
 104   2.0000      -1.001725       -27.2583
 105   2.0000      -0.999861       -27.2076
 106   2.0000      -0.995989       -27.1022
 107   2.0000      -0.995857       -27.0986
 108   2.0000      -0.992416       -27.0050
 109   2.0000      -0.988676       -26.9032
 110   2.0000      -0.988653       -26.9026
 111   2.0000      -0.973986       -26.5035
 112   2.0000      -0.970747       -26.4154
 113   2.0000      -0.970518       -26.4091
 114   2.0000      -0.896305       -24.3897
 115   2.0000      -0.893740       -24.3199
 116   2.0000      -0.893719       -24.3193
 117   2.0000      -0.885638       -24.0994
 118   2.0000      -0.883282       -24.0353
 119   2.0000      -0.883224       -24.0337
 120   2.0000      -0.871501       -23.7148
 121   2.0000      -0.871435       -23.7130
 122   2.0000      -0.862718       -23.4758
 123   2.0000      -0.829952       -22.5842
 124   2.0000      -0.829920       -22.5833
 125   2.0000      -0.829759       -22.5789
 126   2.0000      -0.826088       -22.4790
 127   2.0000      -0.825919       -22.4744
 128   2.0000      -0.821655       -22.3584
 129   2.0000      -0.818679       -22.2774
 130   2.0000      -0.812333       -22.1047
 131   2.0000      -0.812176       -22.1004
 132   2.0000      -0.804632       -21.8951
 133   2.0000      -0.799932       -21.7673
 134   2.0000      -0.799850       -21.7650
 135   2.0000      -0.765506       -20.8305
 136   2.0000      -0.765485       -20.8299
 137   2.0000      -0.764448       -20.8017
 138   2.0000      -0.758306       -20.6346
 139   2.0000      -0.757094       -20.6016
 140   2.0000      -0.756926       -20.5970
 141   2.0000      -0.747242       -20.3335
 142   2.0000      -0.746801       -20.3215
 143   2.0000      -0.746719       -20.3193
 144   2.0000      -0.742414       -20.2021
 145   2.0000      -0.742371       -20.2009
 146   2.0000      -0.742310       -20.1993
 147   2.0000      -0.703229       -19.1358
 148   2.0000      -0.698101       -18.9963
 149   2.0000      -0.698032       -18.9944
 150   2.0000      -0.688846       -18.7445
 151   2.0000      -0.688672       -18.7397
 152   2.0000      -0.688604       -18.7379
 153   2.0000      -0.665864       -18.1191
 154   2.0000      -0.665844       -18.1185
 155   2.0000      -0.663373       -18.0513
 156   2.0000      -0.659130       -17.9358
 157   2.0000      -0.659012       -17.9326
 158   2.0000      -0.654253       -17.8031
 159   2.0000      -0.652120       -17.7451
 160   2.0000      -0.652035       -17.7428
 161   2.0000      -0.651173       -17.7193
 162   2.0000      -0.645626       -17.5684
 163   2.0000      -0.639116       -17.3912
 164   2.0000      -0.638523       -17.3751
 165   2.0000      -0.638339       -17.3701
 166   2.0000      -0.636320       -17.3151
 167   2.0000      -0.635936       -17.3047
 168   2.0000      -0.625422       -17.0186
 169   2.0000      -0.625401       -17.0180
 170   2.0000      -0.625041       -17.0082
 171   2.0000      -0.622784       -16.9468
 172   2.0000      -0.617177       -16.7943
 173   2.0000      -0.617136       -16.7931
 174   2.0000      -0.611880       -16.6501
 175   2.0000      -0.608053       -16.5460
 176   2.0000      -0.607866       -16.5409
 177   2.0000      -0.607803       -16.5391
 178   2.0000      -0.605481       -16.4760
 179   2.0000      -0.605238       -16.4694
 180   2.0000      -0.597354       -16.2548
 181   2.0000      -0.596383       -16.2284
 182   2.0000      -0.596375       -16.2282
 183   2.0000      -0.590939       -16.0803
 184   2.0000      -0.589653       -16.0453
 185   2.0000      -0.589551       -16.0425
 186   2.0000      -0.588879       -16.0242
 187   2.0000      -0.588821       -16.0226
 188   2.0000      -0.587536       -15.9877
 189   2.0000      -0.574194       -15.6246
 190   2.0000      -0.574119       -15.6226
 191   2.0000      -0.572930       -15.5902
 192   2.0000      -0.560358       -15.2481
 193   2.0000      -0.560334       -15.2475
 194   2.0000      -0.560213       -15.2442
 195   2.0000      -0.553217       -15.0538
 196   2.0000      -0.551754       -15.0140
 197   2.0000      -0.551570       -15.0090
 198   2.0000      -0.541766       -14.7422
 199   2.0000      -0.541685       -14.7400
 200   2.0000      -0.538140       -14.6435
 201   2.0000      -0.537618       -14.6293
 202   2.0000      -0.535548       -14.5730
 203   2.0000      -0.535533       -14.5726
 204   2.0000      -0.531116       -14.4524
 205   2.0000      -0.528031       -14.3685
 206   2.0000      -0.527843       -14.3633
 207   2.0000      -0.522266       -14.2116
 208   2.0000      -0.522210       -14.2101
 209   2.0000      -0.520795       -14.1715
 210   2.0000      -0.520117       -14.1531
 211   2.0000      -0.520034       -14.1509
 212   2.0000      -0.518382       -14.1059
 213   2.0000      -0.514295       -13.9947
 214   2.0000      -0.514104       -13.9895
 215   2.0000      -0.513274       -13.9669
 216   2.0000      -0.498537       -13.5659
 217   2.0000      -0.495366       -13.4796
 218   2.0000      -0.495214       -13.4754
 219   2.0000      -0.490858       -13.3569
 220   2.0000      -0.490259       -13.3406
 221   2.0000      -0.490215       -13.3394
 222   2.0000      -0.489094       -13.3089
 223   2.0000      -0.486512       -13.2387
 224   2.0000      -0.486416       -13.2360
 225   2.0000      -0.484771       -13.1913
 226   2.0000      -0.484250       -13.1771
 227   2.0000      -0.484201       -13.1758
 228   2.0000      -0.476386       -12.9631
 229   2.0000      -0.473934       -12.8964
 230   2.0000      -0.473866       -12.8945
 231   2.0000      -0.470560       -12.8046
 232   2.0000      -0.469440       -12.7741
 233   2.0000      -0.469427       -12.7738
 234   2.0000      -0.463383       -12.6093
 235   2.0000      -0.461857       -12.5678
 236   2.0000      -0.461830       -12.5670
 237   2.0000      -0.458346       -12.4722
 238   2.0000      -0.458193       -12.4681
 239   2.0000      -0.457845       -12.4586
 240   2.0000      -0.454176       -12.3588
 241   2.0000      -0.454125       -12.3574
 242   2.0000      -0.450919       -12.2701
 243   2.0000      -0.437443       -11.9034
 244   2.0000      -0.436868       -11.8878
 245   2.0000      -0.436750       -11.8846
 246   2.0000      -0.435918       -11.8619
 247   2.0000      -0.430190       -11.7061
 248   2.0000      -0.430121       -11.7042
 249   2.0000      -0.426610       -11.6087
 250   2.0000      -0.424527       -11.5520
 251   2.0000      -0.424413       -11.5489
 252   2.0000      -0.409619       -11.1463
 253   2.0000      -0.408667       -11.1204
 254   2.0000      -0.408613       -11.1189
 255   2.0000      -0.405857       -11.0439
 256   2.0000      -0.405825       -11.0431
 257   2.0000      -0.404812       -11.0155
 258   2.0000      -0.403176       -10.9710
 259   2.0000      -0.403113       -10.9693
 260   2.0000      -0.401640       -10.9292
 261   2.0000      -0.392354       -10.6765
 262   2.0000      -0.392249       -10.6736
 263   2.0000      -0.388453       -10.5703
 264   2.0000      -0.382871       -10.4184
 265   2.0000      -0.382597       -10.4110
 266   2.0000      -0.365767        -9.9530
 267   2.0000      -0.321452        -8.7471
 268   2.0000      -0.321424        -8.7464
 269   2.0000      -0.321140        -8.7387
 270   2.0000      -0.320622        -8.7246
 271   2.0000      -0.320401        -8.7185
 272   2.0000      -0.320344        -8.7170
 273   0.0000       0.072960         1.9853
 274   0.0000       0.075587         2.0568
 275   0.0000       0.075636         2.0582
 276   0.0000       0.079781         2.1709
 277   0.0000       0.079820         2.1720

MULLIKEN ATOMIC CHARGES
-----------------------
   0 C :    0.171658
   1 C :   -0.099383
   2 C :   -0.207765
   3 C :    0.174696
   4 H :    0.157980
   5 C :   -0.205415
   6 C :    0.185881
   7 H :    0.154696
   8 C :   -0.203963
   9 C :   -0.098626
  10 H :    0.155267
  11 C :   -0.102106
  12 H :    0.087446
  13 H :    0.094469
  14 H :    0.092328
  15 C :    0.171799
  16 C :   -0.098943
  17 C :   -0.207850
  18 C :    0.174059
  19 H :    0.158054
  20 C :   -0.205033
  21 C :    0.185979
  22 H :    0.154714
  23 C :   -0.204099
  24 C :   -0.098859
  25 H :    0.155233
  26 C :   -0.101266
  27 H :    0.087599
  28 H :    0.094271
  29 H :    0.092150
  30 C :    0.171092
  31 C :   -0.099763
  32 C :   -0.207640
  33 C :    0.174536
  34 H :    0.158105
  35 C :   -0.205105
  36 C :    0.185209
  37 H :    0.154654
  38 C :   -0.203901
  39 C :   -0.098473
  40 H :    0.155295
  41 C :   -0.101570
  42 H :    0.087559
  43 H :    0.094631
  44 H :    0.092140
  45 C :    0.060205
  46 C :    0.083253
  47 N :   -0.425423
  48 N :   -0.294124
  49 C :   -0.201111
  50 C :    0.059736
  51 C :    0.083116
  52 N :   -0.424168
  53 C :   -0.212730
  54 N :   -0.294278
  55 C :    0.060177
  56 C :    0.082705
  57 N :   -0.424927
  58 C :   -0.212293
  59 N :   -0.293629
  60 C :    0.092677
  61 C :    0.083520
  62 N :   -0.283906
  63 N :   -0.284050
  64 C :    0.083551
  65 C :    0.092822
  66 N :   -0.284055
  67 N :   -0.283957
  68 C :    0.092468
  69 C :    0.083412
  70 N :   -0.283916
  71 N :   -0.284036
  72 C :   -0.201526
  73 H :    0.143910
  74 H :    0.167546
  75 H :    0.167190
  76 H :    0.144096
  77 H :    0.145207
  78 H :    0.165553
  79 C :   -0.201775
  80 C :   -0.201833
  81 H :    0.086871
  82 C :   -0.198183
  83 H :    0.091091
  84 H :    0.110362
  85 C :   -0.208341
  86 H :    0.110517
  87 H :    0.086422
  88 C :   -0.201121
  89 H :    0.088296
  90 H :    0.111286
  91 H :    0.106179
  92 H :    0.095773
  93 H :    0.075224
  94 H :    0.075162
  95 C :   -0.208453
  96 H :    0.095749
  97 H :    0.106202
  98 C :   -0.197958
  99 H :    0.111330
 100 H :    0.088332
 101 C :   -0.213346
 102 H :    0.086465
 103 H :    0.110558
 104 H :    0.110704
 105 H :    0.091496
 106 H :    0.087290
 107 H :    0.088060
 108 C :   -0.201087
 109 H :    0.075284
 110 C :   -0.208433
 111 H :    0.095977
 112 H :    0.106226
 113 C :   -0.198090
 114 H :    0.111438
 115 H :    0.088340
 116 H :    0.110098
 117 H :    0.091608
 118 H :    0.110637
 119 H :    0.086589
 120 H :    0.078860
 121 C :   -0.204832
 122 H :    0.098692
 123 H :    0.108111
 124 C :   -0.204776
 125 H :    0.112805
 126 H :    0.087993
 127 C :   -0.201732
 128 H :    0.088061
 129 H :    0.112624
 130 H :    0.109019
 131 H :    0.096378
 132 H :    0.076859
 133 H :    0.076776
 134 C :   -0.204797
 135 H :    0.096362
 136 H :    0.109034
 137 C :   -0.204866
 138 H :    0.112601
 139 H :    0.088075
 140 C :   -0.201574
 141 H :    0.087987
 142 H :    0.112805
 143 H :    0.108112
 144 H :    0.098717
 145 H :    0.078806
 146 H :    0.076830
 147 C :   -0.204797
 148 H :    0.096340
 149 H :    0.109064
 150 C :   -0.204848
 151 H :    0.112608
 152 H :    0.088060
 153 C :   -0.201538
 154 H :    0.087966
 155 H :    0.112830
 156 H :    0.108113
 157 H :    0.098711
 158 H :    0.078858
Sum of atomic charges:   -0.0000000

LOEWDIN ATOMIC CHARGES
----------------------
   0 C :   -0.078187
   1 C :   -0.068543
   2 C :    0.090760
   3 C :   -0.075769
   4 H :   -0.020475
   5 C :    0.092860
   6 C :   -0.074456
   7 H :   -0.019422
   8 C :    0.091474
   9 C :   -0.068166
  10 H :   -0.020187
  11 C :   -0.067718
  12 H :   -0.033998
  13 H :   -0.034400
  14 H :   -0.034045
  15 C :   -0.078201
  16 C :   -0.068576
  17 C :    0.090749
  18 C :   -0.075695
  19 H :   -0.020444
  20 C :    0.092936
  21 C :   -0.074438
  22 H :   -0.019410
  23 C :    0.091397
  24 C :   -0.068103
  25 H :   -0.020208
  26 C :   -0.067733
  27 H :   -0.033985
  28 H :   -0.034402
  29 H :   -0.034023
  30 C :   -0.078274
  31 C :   -0.068652
  32 C :    0.090842
  33 C :   -0.075748
  34 H :   -0.020452
  35 C :    0.092899
  36 C :   -0.074499
  37 H :   -0.019411
  38 C :    0.091406
  39 C :   -0.068154
  40 H :   -0.020214
  41 C :   -0.067765
  42 H :   -0.033978
  43 H :   -0.034437
  44 H :   -0.034035
  45 C :   -0.095249
  46 C :   -0.111284
  47 N :    0.361109
  48 N :    0.234856
  49 C :    0.061674
  50 C :   -0.095044
  51 C :   -0.111295
  52 N :    0.362416
  53 C :    0.056965
  54 N :    0.234774
  55 C :   -0.095089
  56 C :   -0.111173
  57 N :    0.359438
  58 C :    0.056853
  59 N :    0.235073
  60 C :   -0.112741
  61 C :   -0.110339
  62 N :    0.228995
  63 N :    0.231560
  64 C :   -0.110425
  65 C :   -0.112752
  66 N :    0.231593
  67 N :    0.229071
  68 C :   -0.112675
  69 C :   -0.110410
  70 N :    0.229181
  71 N :    0.231508
  72 C :    0.061668
  73 H :   -0.115691
  74 H :   -0.121984
  75 H :   -0.122709
  76 H :   -0.115769
  77 H :   -0.115194
  78 H :   -0.121067
  79 C :    0.060683
  80 C :    0.060713
  81 H :   -0.035480
  82 C :    0.058560
  83 H :   -0.026040
  84 H :   -0.026082
  85 C :    0.058145
  86 H :   -0.026850
  87 H :   -0.026674
  88 C :    0.061609
  89 H :   -0.026813
  90 H :   -0.026306
  91 H :   -0.026999
  92 H :   -0.024127
  93 H :   -0.032521
  94 H :   -0.032487
  95 C :    0.058175
  96 H :   -0.024145
  97 H :   -0.027001
  98 C :    0.058626
  99 H :   -0.026305
 100 H :   -0.026804
 101 C :    0.056936
 102 H :   -0.026665
 103 H :   -0.026829
 104 H :   -0.026026
 105 H :   -0.026024
 106 H :   -0.035465
 107 H :   -0.035284
 108 C :    0.061760
 109 H :   -0.032468
 110 C :    0.058210
 111 H :   -0.024102
 112 H :   -0.026976
 113 C :    0.058655
 114 H :   -0.026279
 115 H :   -0.026777
 116 H :   -0.026011
 117 H :   -0.025974
 118 H :   -0.026774
 119 H :   -0.026635
 120 H :   -0.031933
 121 C :    0.058180
 122 H :   -0.023750
 123 H :   -0.025759
 124 C :    0.058040
 125 H :   -0.025564
 126 H :   -0.026273
 127 C :    0.060690
 128 H :   -0.026162
 129 H :   -0.025721
 130 H :   -0.025228
 131 H :   -0.024131
 132 H :   -0.031114
 133 H :   -0.031091
 134 C :    0.058064
 135 H :   -0.024144
 136 H :   -0.025221
 137 C :    0.058209
 138 H :   -0.025724
 139 H :   -0.026163
 140 C :    0.061705
 141 H :   -0.026280
 142 H :   -0.025576
 143 H :   -0.025771
 144 H :   -0.023755
 145 H :   -0.031934
 146 H :   -0.031086
 147 C :    0.058057
 148 H :   -0.024138
 149 H :   -0.025207
 150 C :    0.058213
 151 H :   -0.025724
 152 H :   -0.026172
 153 C :    0.061670
 154 H :   -0.026276
 155 H :   -0.025582
 156 H :   -0.025762
 157 H :   -0.023757
 158 H :   -0.031935

  Mayer bond orders larger than 0.100000
B(  0-C ,  1-C ) :   0.9973 B(  0-C ,  2-C ) :   1.2898 B(  0-C ,  8-C ) :   1.3921
B(  1-C , 13-H ) :   0.9891 B(  1-C , 48-N ) :   1.9595 B(  2-C ,  3-C ) :   1.3918
B(  2-C ,  4-H ) :   0.9628 B(  3-C ,  5-C ) :   1.2884 B(  3-C , 11-C ) :   1.0045
B(  5-C ,  6-C ) :   1.3891 B(  5-C ,  7-H ) :   0.9656 B(  6-C ,  8-C ) :   1.2924
B(  6-C ,  9-C ) :   0.9949 B(  8-C , 10-H ) :   0.9654 B(  9-C , 12-H ) :   0.9894
B(  9-C , 66-N ) :   1.9745 B( 11-C , 14-H ) :   0.9910 B( 11-C , 62-N ) :   1.9733
B( 15-C , 16-C ) :   0.9974 B( 15-C , 17-C ) :   1.2898 B( 15-C , 23-C ) :   1.3920
B( 16-C , 28-H ) :   0.9889 B( 16-C , 54-N ) :   1.9596 B( 17-C , 18-C ) :   1.3919
B( 17-C , 19-H ) :   0.9629 B( 18-C , 20-C ) :   1.2886 B( 18-C , 26-C ) :   1.0045
B( 20-C , 21-C ) :   1.3892 B( 20-C , 22-H ) :   0.9656 B( 21-C , 23-C ) :   1.2923
B( 21-C , 24-C ) :   0.9949 B( 23-C , 25-H ) :   0.9654 B( 24-C , 27-H ) :   0.9894
B( 24-C , 63-N ) :   1.9743 B( 26-C , 29-H ) :   0.9909 B( 26-C , 70-N ) :   1.9733
B( 30-C , 31-C ) :   0.9974 B( 30-C , 32-C ) :   1.2899 B( 30-C , 38-C ) :   1.3921
B( 31-C , 43-H ) :   0.9891 B( 31-C , 59-N ) :   1.9590 B( 32-C , 33-C ) :   1.3917
B( 32-C , 34-H ) :   0.9627 B( 33-C , 35-C ) :   1.2884 B( 33-C , 41-C ) :   1.0045
B( 35-C , 36-C ) :   1.3893 B( 35-C , 37-H ) :   0.9656 B( 36-C , 38-C ) :   1.2922
B( 36-C , 39-C ) :   0.9953 B( 38-C , 40-H ) :   0.9653 B( 39-C , 42-H ) :   0.9895
B( 39-C , 71-N ) :   1.9743 B( 41-C , 44-H ) :   0.9909 B( 41-C , 67-N ) :   1.9735
B( 45-C , 46-C ) :   0.9445 B( 45-C , 47-N ) :   0.9678 B( 45-C ,101-C ) :   0.9459
B( 45-C ,106-H ) :   0.9807 B( 46-C , 48-N ) :   0.9387 B( 46-C , 49-C ) :   0.9568
B( 46-C , 94-H ) :   0.9728 B( 47-N , 75-H ) :   0.9317 B( 47-N , 76-H ) :   0.9688
B( 49-C , 95-C ) :   0.9437 B( 49-C , 96-H ) :   0.9832 B( 49-C , 97-H ) :   0.9921
B( 50-C , 51-C ) :   0.9443 B( 50-C , 52-N ) :   0.9665 B( 50-C , 53-C ) :   0.9463
B( 50-C ,107-H ) :   0.9807 B( 51-C , 54-N ) :   0.9388 B( 51-C ,108-C ) :   0.9567
B( 51-C ,109-H ) :   0.9728 B( 52-N , 77-H ) :   0.9679 B( 52-N , 78-H ) :   0.9335
B( 53-C ,113-C ) :   0.9530 B( 53-C ,116-H ) :   0.9908 B( 53-C ,117-H ) :   0.9832
B( 55-C , 56-C ) :   0.9444 B( 55-C , 57-N ) :   0.9694 B( 55-C , 58-C ) :   0.9458
B( 55-C , 81-H ) :   0.9805 B( 56-C , 59-N ) :   0.9388 B( 56-C , 88-C ) :   0.9569
B( 56-C , 93-H ) :   0.9727 B( 57-N , 73-H ) :   0.9686 B( 57-N , 74-H ) :   0.9322
B( 58-C , 82-C ) :   0.9528 B( 58-C , 83-H ) :   0.9834 B( 58-C , 84-H ) :   0.9907
B( 60-C , 61-C ) :   0.9394 B( 60-C , 62-N ) :   0.9353 B( 60-C , 79-C ) :   0.9549
B( 60-C ,146-H ) :   0.9727 B( 61-C , 63-N ) :   0.9420 B( 61-C ,153-C ) :   0.9527
B( 61-C ,158-H ) :   0.9717 B( 64-C , 65-C ) :   0.9395 B( 64-C , 66-N ) :   0.9420
B( 64-C ,140-C ) :   0.9527 B( 64-C ,145-H ) :   0.9718 B( 65-C , 67-N ) :   0.9353
B( 65-C , 80-C ) :   0.9549 B( 65-C ,133-H ) :   0.9727 B( 68-C , 69-C ) :   0.9396
B( 68-C , 70-N ) :   0.9354 B( 68-C ,127-C ) :   0.9549 B( 68-C ,132-H ) :   0.9726
B( 69-C , 71-N ) :   0.9420 B( 69-C , 72-C ) :   0.9528 B( 69-C ,120-H ) :   0.9717
B( 72-C ,121-C ) :   0.9416 B( 72-C ,122-H ) :   0.9827 B( 72-C ,123-H ) :   0.9911
B( 79-C ,147-C ) :   0.9428 B( 79-C ,148-H ) :   0.9838 B( 79-C ,149-H ) :   0.9914
B( 80-C ,134-C ) :   0.9428 B( 80-C ,135-H ) :   0.9838 B( 80-C ,136-H ) :   0.9914
B( 82-C , 85-C ) :   0.9429 B( 82-C , 86-H ) :   0.9963 B( 82-C , 87-H ) :   0.9846
B( 85-C , 88-C ) :   0.9438 B( 85-C , 89-H ) :   0.9856 B( 85-C , 90-H ) :   0.9953
B( 88-C , 91-H ) :   0.9921 B( 88-C , 92-H ) :   0.9832 B( 95-C , 98-C ) :   0.9429
B( 95-C , 99-H ) :   0.9953 B( 95-C ,100-H ) :   0.9856 B( 98-C ,101-C ) :   0.9532
B( 98-C ,102-H ) :   0.9847 B( 98-C ,103-H ) :   0.9963 B(101-C ,104-H ) :   0.9906
B(101-C ,105-H ) :   0.9833 B(108-C ,110-C ) :   0.9437 B(108-C ,111-H ) :   0.9831
B(108-C ,112-H ) :   0.9921 B(110-C ,113-C ) :   0.9428 B(110-C ,114-H ) :   0.9953
B(110-C ,115-H ) :   0.9856 B(113-C ,118-H ) :   0.9963 B(113-C ,119-H ) :   0.9846
B(121-C ,124-C ) :   0.9440 B(121-C ,125-H ) :   0.9952 B(121-C ,126-H ) :   0.9850
B(124-C ,127-C ) :   0.9428 B(124-C ,128-H ) :   0.9849 B(124-C ,129-H ) :   0.9955
B(127-C ,130-H ) :   0.9914 B(127-C ,131-H ) :   0.9838 B(134-C ,137-C ) :   0.9440
B(134-C ,138-H ) :   0.9955 B(134-C ,139-H ) :   0.9849 B(137-C ,140-C ) :   0.9416
B(137-C ,141-H ) :   0.9850 B(137-C ,142-H ) :   0.9952 B(140-C ,143-H ) :   0.9911
B(140-C ,144-H ) :   0.9827 B(147-C ,150-C ) :   0.9439 B(147-C ,151-H ) :   0.9955
B(147-C ,152-H ) :   0.9849 B(150-C ,153-C ) :   0.9416 B(150-C ,154-H ) :   0.9850
B(150-C ,155-H ) :   0.9952 B(153-C ,156-H ) :   0.9911 B(153-C ,157-H ) :   0.9827

MP2 TOTAL ENERGY:    -3101.799844465 Eh
FINAL SINGLE POINT ENERGY     -3101.799844464937

DIPOLE MOMENT
-------------
                                X             Y             Z
Electronic contribution:      1.95858       1.59442     -40.44348
Nuclear contribution   :     -1.93694      -1.59465      40.26506
                        -----------------------------------------
Total Dipole Moment    :      0.02164      -0.00023      -0.17842
                        -----------------------------------------
Magnitude (a.u.)       :      0.17973
Magnitude (Debye)      :      0.45684

Rotational constants in cm-1:     0.000698     0.000618     0.000616
Rotational constants in MHz :    20.920073    18.539002    18.481598

                             ****ORCA TERMINATED NORMALLY****
TOTAL RUN TIME: 0 days 8 hours 48 minutes 9 seconds 747 msec
