                         Program Version 4.2.1 -  RELEASE  -
|  1> ! DFT COPT B97-3c TightSCF printbasis  Grid6 NOFINALGRID SlowConv
|  2>
|  3> %base "_o_3_alde1_4_ami4_1_opt_B97-3c"
|  4> %maxcore 3000
|  5> %scf
|  6>    MaxIter 2000
|  7> end
|  8> %pal
|  9>    nprocs 32
| 10> end
| 11>
| 12> * xyzfile 0 1 o_3_alde1_4_ami4_1_opt.xyz
| 13> # * xyzfile 0 1 _o_3_alde1_4_ami4_1_opt_B97-3c.xyz
| 14>
| 15>                          ****END OF INPUT****
 Total Charge           Charge          ....    0
 Multiplicity           Mult            ....    1
 Number of Electrons    NEL             ....  308
Dispersion correction           -0.253818375
FINAL SINGLE POINT ENERGY     -1866.439891701618
Dispersion correction            ... done
Dispersion correction           -0.253726320
FINAL SINGLE POINT ENERGY     -1866.441304879106
Dispersion correction            ... done
Dispersion correction           -0.253680657
FINAL SINGLE POINT ENERGY     -1866.441812533797
Dispersion correction            ... done
FINAL SINGLE POINT ENERGY     -1866.442272252416
FINAL SINGLE POINT ENERGY     -1866.442632073867
FINAL SINGLE POINT ENERGY     -1866.443001127561
FINAL SINGLE POINT ENERGY     -1866.443272293814
FINAL SINGLE POINT ENERGY     -1866.443504678727
FINAL SINGLE POINT ENERGY     -1866.443749158310
FINAL SINGLE POINT ENERGY     -1866.444032978578
FINAL SINGLE POINT ENERGY     -1866.446511343000
FINAL SINGLE POINT ENERGY     -1866.446521354399
FINAL SINGLE POINT ENERGY     -1866.446531312094
FINAL SINGLE POINT ENERGY     -1866.446539611174
FINAL SINGLE POINT ENERGY     -1866.446546388680
FINAL SINGLE POINT ENERGY     -1866.446551918594
FINAL SINGLE POINT ENERGY     -1866.446556510831
Dispersion correction            ... done
Dispersion correction           -0.247545125
FINAL SINGLE POINT ENERGY     -1866.446560507031
Dispersion correction            ... done
Dispersion correction           -0.247528003
FINAL SINGLE POINT ENERGY     -1866.446564088833
Dispersion correction            ... done
                    ***********************HURRAY********************

CARTESIAN COORDINATES (ANGSTROEM)
---------------------------------
  C     -3.273916   -2.180556   -0.135145
  C     -3.385310   -1.888218    1.293729
  C     -2.576111   -3.299539   -0.564883
  C     -2.412282   -3.553430   -1.930518
  H     -2.153302   -3.997316    0.145908
  C     -2.892607   -2.635943   -2.856689
  C     -3.573524   -1.489987   -2.439089
  H     -2.737932   -2.791035   -3.916387
  C     -3.792084   -1.293432   -1.082990
  C     -4.007628   -0.450884   -3.370683
  H     -4.324807   -0.420333   -0.733131
  C     -1.712022   -4.741444   -2.409038
  H     -4.721122    0.271746   -2.954353
  H     -2.681533   -2.428205    1.943137
  H     -1.691076   -4.860377   -3.500684
  C      0.922643   -1.109828   -4.739860
  C     -0.014256   -0.793081   -5.828114
  C      1.813029   -0.145552   -4.263320
  C      2.659083   -0.429063   -3.201037
  H      1.819281    0.830789   -4.730886
  C      2.606497   -1.696645   -2.611406
  C      1.759686   -2.679157   -3.105174
  H      3.250115   -1.898245   -1.765037
  C      0.909915   -2.374314   -4.172046
  C      1.722556   -3.998110   -2.474442
  H      0.232347   -3.135267   -4.534965
  C      3.539728    0.621209   -2.696601
  H      2.120386   -4.049362   -1.451471
  H     -0.698425   -1.617764   -6.105598
  H      3.480593    1.574095   -3.238559
  C     -1.854756    1.934348    0.412438
  C     -2.937303    1.672528    1.356653
  C     -2.174519    2.109148   -0.926474
  C     -1.174898    2.222652   -1.896383
  H     -3.205818    2.096364   -1.251715
  C      0.152616    2.234285   -1.494531
  C      0.492470    2.088293   -0.145460
  H      0.947564    2.313525   -2.222903
  C     -0.510806    1.903767    0.794986
  C      1.893936    2.027697    0.265768
  H     -0.269382    1.725410    1.834594
  C     -1.505429    2.179109   -3.321196
  H      2.086387    1.512465    1.217974
  H     -0.656128    2.028122   -4.000510
  C     -3.938381    0.845993    3.262840
  C     -4.105971   -0.675798    3.149951
  N     -2.754103    1.250374    2.541478
  N     -4.197026   -1.030307    1.756786
  O     -0.071077    0.278983   -6.399394
  C     -0.381789   -6.627379   -2.278071
  C      1.100070   -6.234069   -2.303889
  N     -1.144508   -5.580470   -1.641063
  N      1.237133   -5.014220   -3.057108
  C     -3.992756    0.854056   -5.270726
  C     -2.936786    1.962333   -5.147012
  N     -3.565591   -0.331327   -4.556614
  N     -2.699706    2.227385   -3.748376
  C      4.968790    1.669700   -1.221897
  C      4.195410    2.247245   -0.030449
  N      4.298587    0.478716   -1.687920
  N      2.836657    2.498678   -0.440127
  H     -3.947881    1.813850    0.950907
  H     -3.353591    2.858319   -5.613324
  H     -2.029627    1.682577   -5.689534
  H     -4.944798    1.241156   -4.889005
  H     -4.115931    0.614709   -6.326337
  H     -0.706500   -6.818322   -3.307855
  H     -0.485391   -7.549904   -1.707155
  H      1.650155   -7.029234   -2.810690
  H      1.480798   -6.147705   -1.278353
  H      4.668423    3.192728    0.244566
  H      4.263263    1.567667    0.828545
  H      5.034538    2.441810   -1.997799
  H      5.978282    1.418131   -0.897440
  H     -5.039553   -0.943678    3.649294
  H     -3.281323   -1.182871    3.666626
  H     -3.833361    1.107525    4.315725
  H     -4.848096    1.321171    2.875775

 Multiplicity           Mult            ....    1
 Number of Electrons    NEL             ....  308
 Basis Dimension        Dim             ....  943

ORBITAL ENERGIES
----------------

  NO   OCC          E(Eh)            E(eV)
   0   2.0000     -18.744091      -510.0526
   1   2.0000     -13.990702      -380.7064
   2   2.0000     -13.986932      -380.6038
   3   2.0000     -13.985982      -380.5779
   4   2.0000     -13.984938      -380.5495
   5   2.0000     -13.983310      -380.5052
   6   2.0000     -13.980568      -380.4306
   7   2.0000     -13.980122      -380.4185
   8   2.0000     -13.980112      -380.4182
   9   2.0000      -9.979989      -271.5693
  10   2.0000      -9.943796      -270.5844
  11   2.0000      -9.939425      -270.4655
  12   2.0000      -9.938875      -270.4505
  13   2.0000      -9.938298      -270.4348
  14   2.0000      -9.936370      -270.3824
  15   2.0000      -9.933321      -270.2994
  16   2.0000      -9.933165      -270.2952
  17   2.0000      -9.932133      -270.2671
  18   2.0000      -9.926578      -270.1159
  19   2.0000      -9.925313      -270.0815
  20   2.0000      -9.923152      -270.0227
  21   2.0000      -9.922683      -270.0099
  22   2.0000      -9.922656      -270.0092
  23   2.0000      -9.922649      -270.0090
  24   2.0000      -9.922035      -269.9923
  25   2.0000      -9.921127      -269.9676
  26   2.0000      -9.919854      -269.9329
  27   2.0000      -9.919781      -269.9310
  28   2.0000      -9.919468      -269.9225
  29   2.0000      -9.918452      -269.8948
  30   2.0000      -9.914848      -269.7967
  31   2.0000      -9.913844      -269.7694
  32   2.0000      -9.913447      -269.7586
  33   2.0000      -9.913328      -269.7554
  34   2.0000      -9.912954      -269.7452
  35   2.0000      -9.912464      -269.7318
  36   2.0000      -9.911587      -269.7080
  37   2.0000      -9.911265      -269.6992
  38   2.0000      -9.909642      -269.6551
  39   2.0000      -9.908660      -269.6283
  40   2.0000      -9.908272      -269.6178
  41   2.0000      -9.908176      -269.6152
  42   2.0000      -9.907973      -269.6097
  43   2.0000      -9.907004      -269.5833
  44   2.0000      -0.967056       -26.3149
  45   2.0000      -0.873857       -23.7788
  46   2.0000      -0.872000       -23.7283
  47   2.0000      -0.868761       -23.6402
  48   2.0000      -0.863892       -23.5077
  49   2.0000      -0.850946       -23.1554
  50   2.0000      -0.849929       -23.1277
  51   2.0000      -0.845965       -23.0199
  52   2.0000      -0.841930       -22.9101
  53   2.0000      -0.813187       -22.1279
  54   2.0000      -0.803800       -21.8725
  55   2.0000      -0.799139       -21.7457
  56   2.0000      -0.735602       -20.0167
  57   2.0000      -0.731930       -19.9168
  58   2.0000      -0.730115       -19.8674
  59   2.0000      -0.723159       -19.6782
  60   2.0000      -0.717238       -19.5170
  61   2.0000      -0.713664       -19.4198
  62   2.0000      -0.692245       -18.8369
  63   2.0000      -0.681020       -18.5315
  64   2.0000      -0.678810       -18.4714
  65   2.0000      -0.672101       -18.2888
  66   2.0000      -0.620639       -16.8884
  67   2.0000      -0.619462       -16.8564
  68   2.0000      -0.615213       -16.7408
  69   2.0000      -0.611917       -16.6511
  70   2.0000      -0.606446       -16.5022
  71   2.0000      -0.590042       -16.0559
  72   2.0000      -0.588675       -16.0186
  73   2.0000      -0.584659       -15.9094
  74   2.0000      -0.566094       -15.4042
  75   2.0000      -0.556860       -15.1529
  76   2.0000      -0.552563       -15.0360
  77   2.0000      -0.544969       -14.8294
  78   2.0000      -0.534159       -14.5352
  79   2.0000      -0.505571       -13.7573
  80   2.0000      -0.501710       -13.6522
  81   2.0000      -0.498689       -13.5700
  82   2.0000      -0.497034       -13.5250
  83   2.0000      -0.492321       -13.3967
  84   2.0000      -0.488698       -13.2981
  85   2.0000      -0.478869       -13.0307
  86   2.0000      -0.472487       -12.8570
  87   2.0000      -0.470475       -12.8023
  88   2.0000      -0.463092       -12.6014
  89   2.0000      -0.460176       -12.5220
  90   2.0000      -0.456429       -12.4201
  91   2.0000      -0.446382       -12.1467
  92   2.0000      -0.444750       -12.1023
  93   2.0000      -0.441582       -12.0161
  94   2.0000      -0.440539       -11.9877
  95   2.0000      -0.434654       -11.8275
  96   2.0000      -0.433432       -11.7943
  97   2.0000      -0.431286       -11.7359
  98   2.0000      -0.423820       -11.5327
  99   2.0000      -0.413274       -11.2458
 100   2.0000      -0.411349       -11.1934
 101   2.0000      -0.410357       -11.1664
 102   2.0000      -0.407150       -11.0791
 103   2.0000      -0.405554       -11.0357
 104   2.0000      -0.404112       -10.9965
 105   2.0000      -0.401076       -10.9138
 106   2.0000      -0.400065       -10.8863
 107   2.0000      -0.394824       -10.7437
 108   2.0000      -0.390192       -10.6177
 109   2.0000      -0.386027       -10.5043
 110   2.0000      -0.383432       -10.4337
 111   2.0000      -0.382331       -10.4037
 112   2.0000      -0.381577       -10.3832
 113   2.0000      -0.378737       -10.3060
 114   2.0000      -0.363405        -9.8888
 115   2.0000      -0.360615        -9.8128
 116   2.0000      -0.355910        -9.6848
 117   2.0000      -0.354768        -9.6537
 118   2.0000      -0.352407        -9.5895
 119   2.0000      -0.348563        -9.4849
 120   2.0000      -0.346416        -9.4265
 121   2.0000      -0.344507        -9.3745
 122   2.0000      -0.342344        -9.3156
 123   2.0000      -0.340821        -9.2742
 124   2.0000      -0.332881        -9.0581
 125   2.0000      -0.329367        -8.9625
 126   2.0000      -0.323664        -8.8073
 127   2.0000      -0.318733        -8.6732
 128   2.0000      -0.316789        -8.6203
 129   2.0000      -0.315671        -8.5898
 130   2.0000      -0.312814        -8.5121
 131   2.0000      -0.307123        -8.3573
 132   2.0000      -0.305009        -8.2997
 133   2.0000      -0.302638        -8.2352
 134   2.0000      -0.301208        -8.1963
 135   2.0000      -0.298407        -8.1201
 136   2.0000      -0.283018        -7.7013
 137   2.0000      -0.265054        -7.2125
 138   2.0000      -0.260374        -7.0851
 139   2.0000      -0.242978        -6.6118
 140   2.0000      -0.233389        -6.3508
 141   2.0000      -0.229416        -6.2427
 142   2.0000      -0.227696        -6.1959
 143   2.0000      -0.226435        -6.1616
 144   2.0000      -0.225118        -6.1258
 145   2.0000      -0.224324        -6.1042
 146   2.0000      -0.223712        -6.0875
 147   2.0000      -0.221366        -6.0237
 148   2.0000      -0.220727        -6.0063
 149   2.0000      -0.220259        -5.9935
 150   2.0000      -0.219697        -5.9783
 151   2.0000      -0.218106        -5.9350
 152   2.0000      -0.217291        -5.9128
 153   2.0000      -0.213807        -5.8180
 154   0.0000      -0.105632        -2.8744
 155   0.0000      -0.095894        -2.6094
 156   0.0000      -0.091447        -2.4884
 157   0.0000      -0.086268        -2.3475
 158   0.0000      -0.085536        -2.3275

MULLIKEN ATOMIC CHARGES
-----------------------
   0 C :    0.223747
   1 C :   -0.365974
   2 C :   -0.217239
   3 C :    0.290975
   4 H :    0.213983
   5 C :   -0.145069
   6 C :    0.239794
   7 H :    0.207318
   8 C :   -0.101190
   9 C :   -0.380031
  10 H :    0.210924
  11 C :   -0.397353
  12 H :    0.108865
  13 H :    0.108497
  14 H :    0.110555
  15 C :    0.179393
  16 C :   -0.100671
  17 C :   -0.171660
  18 C :    0.323592
  19 H :    0.234554
  20 C :   -0.205519
  21 C :    0.220141
  22 H :    0.218024
  23 C :   -0.099478
  24 C :   -0.366033
  25 H :    0.209621
  26 C :   -0.389556
  27 H :    0.112059
  28 H :    0.111225
  29 H :    0.117057
  30 C :    0.284893
  31 C :   -0.369227
  32 C :   -0.134568
  33 C :    0.204712
  34 H :    0.210633
  35 C :   -0.138847
  36 C :    0.219409
  37 H :    0.196055
  38 C :   -0.193013
  39 C :   -0.351928
  40 H :    0.211086
  41 C :   -0.352511
  42 H :    0.105973
  43 H :    0.112252
  44 C :   -0.275892
  45 C :   -0.256539
  46 N :   -0.083293
  47 N :   -0.095759
  48 O :   -0.345597
  49 C :   -0.279475
  50 C :   -0.259540
  51 N :   -0.074658
  52 N :   -0.096542
  53 C :   -0.258996
  54 C :   -0.272354
  55 N :   -0.105876
  56 N :   -0.102296
  57 C :   -0.271223
  58 C :   -0.253498
  59 N :   -0.071518
  60 N :   -0.105369
  61 H :    0.111265
  62 H :    0.171084
  63 H :    0.159935
  64 H :    0.146664
  65 H :    0.177586
  66 H :    0.149603
  67 H :    0.181505
  68 H :    0.181726
  69 H :    0.137958
  70 H :    0.180727
  71 H :    0.137132
  72 H :    0.147186
  73 H :    0.179337
  74 H :    0.179610
  75 H :    0.135936
  76 H :    0.178159
  77 H :    0.147541
Sum of atomic charges:   -0.0000000

LOEWDIN ATOMIC CHARGES
----------------------
   0 C :   -0.078147
   1 C :   -0.030011
   2 C :   -0.106200
   3 C :   -0.080727
   4 H :    0.183781
   5 C :   -0.107703
   6 C :   -0.076983
   7 H :    0.179694
   8 C :   -0.103557
   9 C :   -0.039501
  10 H :    0.181172
  11 C :   -0.039273
  12 H :    0.144365
  13 H :    0.141883
  14 H :    0.142489
  15 C :   -0.065698
  16 C :    0.217462
  17 C :   -0.091035
  18 C :   -0.076800
  19 H :    0.189601
  20 C :   -0.090322
  21 C :   -0.076480
  22 H :    0.186177
  23 C :   -0.090052
  24 C :   -0.031826
  25 H :    0.183350
  26 C :   -0.042244
  27 H :    0.143893
  28 H :    0.158056
  29 H :    0.144424
  30 C :   -0.078998
  31 C :   -0.039270
  32 C :   -0.105140
  33 C :   -0.077076
  34 H :    0.181383
  35 C :   -0.104263
  36 C :   -0.078560
  37 H :    0.180319
  38 C :   -0.105375
  39 C :   -0.030440
  40 H :    0.183420
  41 C :   -0.031714
  42 H :    0.141730
  43 H :    0.150336
  44 C :   -0.211239
  45 C :   -0.205058
  46 N :   -0.200655
  47 N :   -0.195283
  48 O :   -0.496738
  49 C :   -0.210584
  50 C :   -0.205366
  51 N :   -0.201106
  52 N :   -0.191577
  53 C :   -0.209556
  54 C :   -0.207886
  55 N :   -0.197238
  56 N :   -0.191809
  57 C :   -0.210928
  58 C :   -0.204718
  59 N :   -0.194559
  60 N :   -0.195193
  61 H :    0.143079
  62 H :    0.160154
  63 H :    0.165199
  64 H :    0.143509
  65 H :    0.156366
  66 H :    0.144819
  67 H :    0.155611
  68 H :    0.160925
  69 H :    0.141906
  70 H :    0.161307
  71 H :    0.141244
  72 H :    0.144142
  73 H :    0.155498
  74 H :    0.160407
  75 H :    0.141000
  76 H :    0.154447
  77 H :    0.143740

  Mayer bond orders larger than 0.100000
B(  0-C ,  1-C ) :   0.9642 B(  0-C ,  2-C ) :   1.1766 B(  0-C ,  3-C ) :   0.1234
B(  0-C ,  6-C ) :   0.1375 B(  0-C ,  8-C ) :   1.4060 B(  0-C , 47-N ) :  -0.2615
B(  1-C , 13-H ) :   0.8973 B(  1-C , 47-N ) :   2.0708 B(  2-C ,  3-C ) :   1.3866
B(  2-C ,  4-H ) :   0.8919 B(  3-C ,  5-C ) :   1.1621 B(  3-C ,  6-C ) :   0.1429
B(  3-C , 11-C ) :   0.9348 B(  3-C , 51-N ) :  -0.2565 B(  5-C ,  6-C ) :   1.3907
B(  5-C ,  7-H ) :   0.8750 B(  6-C ,  8-C ) :   1.1739 B(  6-C ,  9-C ) :   0.9722
B(  6-C , 55-N ) :  -0.2496 B(  8-C , 10-H ) :   0.8664 B(  9-C , 12-H ) :   0.8890
B(  9-C , 55-N ) :   2.0423 B( 11-C , 14-H ) :   0.8986 B( 11-C , 51-N ) :   2.0516
B( 15-C , 16-C ) :   0.9338 B( 15-C , 17-C ) :   1.2727 B( 15-C , 18-C ) :   0.1017
B( 15-C , 21-C ) :   0.1240 B( 15-C , 23-C ) :   1.2388 B( 15-C , 48-O ) :  -0.1422
B( 16-C , 28-H ) :   0.9500 B( 16-C , 48-O ) :   1.9908 B( 17-C , 18-C ) :   1.1377
B( 17-C , 19-H ) :   0.8811 B( 17-C , 26-C ) :   0.1035 B( 18-C , 20-C ) :   1.3928
B( 18-C , 21-C ) :   0.1258 B( 18-C , 26-C ) :   0.9318 B( 18-C , 59-N ) :  -0.2544
B( 20-C , 21-C ) :   1.2006 B( 20-C , 22-H ) :   0.8885 B( 21-C , 23-C ) :   1.3855
B( 21-C , 24-C ) :   0.9600 B( 21-C , 52-N ) :  -0.2708 B( 23-C , 25-H ) :   0.8605
B( 24-C , 27-H ) :   0.8915 B( 24-C , 52-N ) :   2.0707 B( 26-C , 29-H ) :   0.8953
B( 26-C , 59-N ) :   2.0558 B( 30-C , 31-C ) :   0.9586 B( 30-C , 32-C ) :   1.1512
B( 30-C , 33-C ) :   0.1222 B( 30-C , 36-C ) :   0.1278 B( 30-C , 38-C ) :   1.3872
B( 30-C , 46-N ) :  -0.2557 B( 31-C , 46-N ) :   2.0484 B( 31-C , 61-H ) :   0.8949
B( 32-C , 33-C ) :   1.4180 B( 32-C , 34-H ) :   0.8646 B( 33-C , 35-C ) :   1.2048
B( 33-C , 36-C ) :   0.1385 B( 33-C , 41-C ) :   0.9355 B( 33-C , 56-N ) :  -0.2380
B( 35-C , 36-C ) :   1.3786 B( 35-C , 37-H ) :   0.8814 B( 36-C , 38-C ) :   1.1956
B( 36-C , 39-C ) :   0.9665 B( 36-C , 60-N ) :  -0.2625 B( 38-C , 40-H ) :   0.8897
B( 38-C , 46-N ) :   0.1046 B( 39-C , 42-H ) :   0.8965 B( 39-C , 60-N ) :   2.0552
B( 41-C , 43-H ) :   0.9202 B( 41-C , 56-N ) :   2.0501 B( 44-C , 45-C ) :   0.9122
B( 44-C , 46-N ) :   0.9247 B( 44-C , 76-H ) :   0.9434 B( 44-C , 77-H ) :   0.9307
B( 45-C , 47-N ) :   0.9225 B( 45-C , 74-H ) :   0.9338 B( 45-C , 75-H ) :   0.9279
B( 49-C , 50-C ) :   0.9176 B( 49-C , 51-N ) :   0.9136 B( 49-C , 66-H ) :   0.9307
B( 49-C , 67-H ) :   0.9422 B( 50-C , 52-N ) :   0.9249 B( 50-C , 68-H ) :   0.9341
B( 50-C , 69-H ) :   0.9270 B( 53-C , 54-C ) :   0.9054 B( 53-C , 55-N ) :   0.9163
B( 53-C , 64-H ) :   0.9297 B( 53-C , 65-H ) :   0.9439 B( 54-C , 56-N ) :   0.9258
B( 54-C , 62-H ) :   0.9345 B( 54-C , 63-H ) :   0.9289 B( 57-C , 58-C ) :   0.9151
B( 57-C , 59-N ) :   0.9159 B( 57-C , 72-H ) :   0.9278 B( 57-C , 73-H ) :   0.9425
B( 58-C , 60-N ) :   0.9226 B( 58-C , 70-H ) :   0.9333 B( 58-C , 71-H ) :   0.9297

Dispersion correction           -0.247513885
FINAL SINGLE POINT ENERGY     -1866.446567439650

DIPOLE MOMENT
-------------
                                X             Y             Z
Electronic contribution:     -0.20926       1.69059      -6.35355
Nuclear contribution   :      0.65826      -2.26937       7.19895
                        -----------------------------------------
Total Dipole Moment    :      0.44901      -0.57878       0.84540
                        -----------------------------------------
Magnitude (a.u.)       :      1.11861
Magnitude (Debye)      :      2.84328

Rotational constants in cm-1:     0.002474     0.002327     0.001927
Rotational constants in MHz :    74.156045    69.763327    57.773244

                             ****ORCA TERMINATED NORMALLY****
TOTAL RUN TIME: 0 days 1 hours 10 minutes 23 seconds 327 msec
