                         Program Version 4.2.1 -  RELEASE  -
|  1> ! RI-MP2 cc-pVTZ cc-pVTZ/C TIGHTSCF printbasis Grid6 NOFINALGRID SlowConv
|  2>
|  3> %base "_o_3_alde1_5_ami3_2_opt_MP2"
|  4> %maxcore 3000
|  5> %pal
|  6>    nprocs 32
|  7> end
|  8>
|  9> * xyzfile 0 1 _o_3_alde1_5_ami3_2_opt_B97-3c.xyz
| 10>
| 11>                          ****END OF INPUT****

CARTESIAN COORDINATES (ANGSTROEM)
---------------------------------
  C     -3.388694   -1.536863   -0.142064
  C     -3.386463   -1.221003    1.283614
  C     -2.665880   -2.607321   -0.676069
  C     -2.598029   -2.800370   -2.049597
  H     -2.142163   -3.271156   -0.000819
  C     -3.226392   -1.886459   -2.902781
  C     -3.964274   -0.830921   -2.388133
  H     -3.122427   -2.021601   -3.971526
  C     -4.061932   -0.680788   -1.001759
  C     -4.541700    0.170443   -3.284976
  H     -4.629672    0.152658   -0.611805
  C     -1.838933   -3.931505   -2.577198
  H     -4.148337    0.167237   -4.311604
  H     -4.100009   -0.442879    1.582470
  H     -1.415152   -4.605366   -1.821375
  C      2.098883   -1.978717    0.256169
  C      1.816386   -2.531417    1.581815
  C      2.758626   -0.756221    0.102762
  C      3.009212   -0.233120   -1.157469
  H      3.066040   -0.220175    0.991053
  C      2.579216   -0.937606   -2.286764
  C      1.940966   -2.162377   -2.154748
  H      2.757624   -0.509113   -3.264156
  C      1.703880   -2.677349   -0.875478
  C      1.485596   -2.876563   -3.347247
  H      1.194213   -3.627690   -0.786196
  C      3.669821    1.064255   -1.262716
  H      1.462037   -2.285595   -4.273396
  H      1.269126   -3.478555    1.573826
  H      3.890046    1.549488   -0.302575
  C     -0.959945    2.069734    0.587191
  C     -0.750959    1.191683    1.740339
  C     -2.252780    2.385631    0.160394
  C     -2.468175    3.033085   -1.048137
  H     -3.088534    2.052649    0.760352
  C     -1.369558    3.411348   -1.825174
  C     -0.076658    3.175077   -1.379440
  H     -1.548367    3.882238   -2.783023
  C      0.120663    2.486762   -0.177357
  C      1.066141    3.555771   -2.210133
  H      1.131947    2.251410    0.124584
  C     -3.841130    3.188628   -1.521124
  H      0.857345    3.662912   -3.284437
  H     -4.616256    2.934438   -0.786808
  C     -1.445892   -0.120510    3.546643
  C     -2.587095   -1.156389    3.452075
  N     -1.684692    0.892082    2.546735
  N     -2.579444   -1.730095    2.123634
  C      3.285186   -2.538245    4.725176
  C      1.940431   -2.529595    3.955393
  N      3.971279   -1.255813    4.764427
  N      2.182101   -1.949365    2.649802
  C     -0.812767   -5.230766   -4.209980
  C      0.594258   -4.685121   -4.525212
  N     -1.658246   -4.127029   -3.819337
  N      1.119587   -4.091060   -3.320672
  C     -5.766072    2.088859   -3.804341
  C     -5.535567    3.433742   -3.080308
  N     -5.390402    1.031098   -2.898809
  N     -4.141156    3.518313   -2.711071
  C      4.460718    2.978712   -2.289957
  C      3.321545    3.947970   -2.657514
  N      3.949240    1.630149   -2.365167
  N      2.232536    3.715381   -1.738357
  H      3.960559   -0.862758    3.830794
  H      3.436783   -0.613839    5.340476
  H      0.251280    0.749664    1.825110
  C      1.264348   -3.892765    4.008413
  C     -1.420620    0.495112    4.942279
  C      3.818057    5.387031   -2.575407
  C     -7.228813    1.966260   -4.216577
  C      1.502289   -5.814688   -5.001328
  H      0.490431   -3.944685   -5.332065
  C      0.914713   -6.540783   -6.201584
  H      2.483030   -5.400770   -5.240162
  H      1.651569   -6.510943   -4.173584
  C     -0.482689   -7.062948   -5.904159
  H      1.573376   -7.358482   -6.497278
  H      0.870073   -5.857215   -7.054016
  C     -1.394181   -5.946505   -5.420647
  H     -0.421766   -7.841583   -5.138534
  H     -0.909940   -7.535569   -6.789776
  H     -1.547001   -5.212455   -6.214659
  H     -2.381501   -6.332893   -5.163851
  H     -0.687513   -5.949883   -3.387494
  H     -0.498429   -0.646167    3.368224
  C     -1.290895   -0.565451    6.024949
  H     -2.337393    1.071406    5.083559
  H     -0.595038    1.206264    4.997729
  C     -2.381565   -1.620168    5.913488
  H     -1.316373   -0.094593    7.008661
  H     -0.313478   -1.048074    5.942077
  C     -2.428106   -2.226248    4.519510
  H     -3.348531   -1.163950    6.143371
  H     -2.228814   -2.404766    6.656420
  H     -3.247932   -2.941060    4.435054
  H     -1.512049   -2.783476    4.319764
  H     -3.517422   -0.599565    3.636352
  H      3.022454    3.736452   -3.694418
  C      5.652453    3.182429   -3.211657
  H      4.757225    3.230960   -1.260940
  C      6.146038    4.620788   -3.155275
  H      5.358633    2.920126   -4.230307
  H      6.446187    2.489150   -2.929402
  C      5.028891    5.605279   -3.470788
  H      6.979006    4.757604   -3.846416
  H      6.539081    4.829765   -2.156182
  H      4.729640    5.486791   -4.515851
  H      5.385288    6.630913   -3.366181
  H      4.066475    5.613315   -1.536605
  H      3.003980    6.057573   -2.854767
  H     -5.140560    2.085056   -4.709077
  C     -5.945126    4.593998   -3.973209
  H     -6.182152    3.414448   -2.190760
  C     -7.395094    4.469111   -4.415664
  H     -5.282767    4.614949   -4.841272
  H     -5.782606    5.530682   -3.438055
  C     -7.656650    3.132612   -5.094616
  H     -7.653308    5.291933   -5.083880
  H     -8.049212    4.563864   -3.544346
  H     -8.712870    3.035661   -5.349252
  H     -7.107053    3.093688   -6.039232
  H     -7.843286    1.922883   -3.314980
  H     -7.371015    1.017606   -4.736463
  H      1.302076   -1.809019    4.481635
  C      3.088061   -3.053217    6.142167
  H      3.938039   -3.238757    4.193551
  C      2.390220   -4.401100    6.189801
  H      2.491851   -2.320865    6.697935
  H      4.060129   -3.093817    6.633368
  C      1.067199   -4.359332    5.442741
  H      2.235178   -4.707029    7.225528
  H      3.035476   -5.159473    5.738051
  H      0.382523   -3.677577    5.955698
  H      0.587451   -5.339454    5.452168
  H      1.879261   -4.624090    3.475947
  H      0.304908   -3.859862    3.489011

 Total Charge           Charge          ....    0
 Multiplicity           Mult            ....    1
 Number of Electrons    NEL             ....  482
 Basis Dimension        Dim             .... 2990

ORBITAL ENERGIES
----------------

  NO   OCC          E(Eh)            E(eV)
   0   2.0000     -15.556406      -423.3113
   1   2.0000     -15.553236      -423.2251
   2   2.0000     -15.551641      -423.1817
   3   2.0000     -15.551395      -423.1750
   4   2.0000     -15.549904      -423.1344
   5   2.0000     -15.549653      -423.1276
   6   2.0000     -15.549313      -423.1183
   7   2.0000     -15.549132      -423.1134
   8   2.0000     -15.547564      -423.0707
   9   2.0000     -15.524655      -422.4473
  10   2.0000     -11.282738      -307.0189
  11   2.0000     -11.280755      -306.9649
  12   2.0000     -11.279743      -306.9374
  13   2.0000     -11.278404      -306.9010
  14   2.0000     -11.277866      -306.8863
  15   2.0000     -11.277557      -306.8779
  16   2.0000     -11.277097      -306.8654
  17   2.0000     -11.277026      -306.8635
  18   2.0000     -11.275940      -306.8339
  19   2.0000     -11.251761      -306.1760
  20   2.0000     -11.251620      -306.1721
  21   2.0000     -11.250913      -306.1529
  22   2.0000     -11.250324      -306.1369
  23   2.0000     -11.249867      -306.1244
  24   2.0000     -11.249293      -306.1088
  25   2.0000     -11.249026      -306.1016
  26   2.0000     -11.248800      -306.0954
  27   2.0000     -11.248289      -306.0815
  28   2.0000     -11.248259      -306.0807
  29   2.0000     -11.248114      -306.0767
  30   2.0000     -11.248104      -306.0765
  31   2.0000     -11.247148      -306.0505
  32   2.0000     -11.246686      -306.0379
  33   2.0000     -11.246515      -306.0332
  34   2.0000     -11.246391      -306.0299
  35   2.0000     -11.246028      -306.0200
  36   2.0000     -11.245839      -306.0148
  37   2.0000     -11.245675      -306.0104
  38   2.0000     -11.245051      -305.9934
  39   2.0000     -11.244657      -305.9827
  40   2.0000     -11.244625      -305.9818
  41   2.0000     -11.244483      -305.9779
  42   2.0000     -11.244184      -305.9698
  43   2.0000     -11.243790      -305.9591
  44   2.0000     -11.243570      -305.9531
  45   2.0000     -11.242914      -305.9353
  46   2.0000     -11.242383      -305.9208
  47   2.0000     -11.220064      -305.3135
  48   2.0000     -11.219435      -305.2964
  49   2.0000     -11.218345      -305.2667
  50   2.0000     -11.217339      -305.2393
  51   2.0000     -11.216503      -305.2166
  52   2.0000     -11.216384      -305.2133
  53   2.0000     -11.216244      -305.2095
  54   2.0000     -11.216170      -305.2075
  55   2.0000     -11.216102      -305.2056
  56   2.0000     -11.215571      -305.1912
  57   2.0000     -11.215451      -305.1879
  58   2.0000     -11.215348      -305.1851
  59   2.0000     -11.215251      -305.1825
  60   2.0000     -11.215172      -305.1803
  61   2.0000     -11.215038      -305.1767
  62   2.0000     -11.213473      -305.1341
  63   2.0000     -11.212506      -305.1078
  64   2.0000     -11.212457      -305.1065
  65   2.0000     -11.212225      -305.1001
  66   2.0000     -11.211859      -305.0902
  67   2.0000      -1.256135       -34.1812
  68   2.0000      -1.254579       -34.1388
  69   2.0000      -1.254118       -34.1263
  70   2.0000      -1.252702       -34.0877
  71   2.0000      -1.244979       -33.8776
  72   2.0000      -1.227273       -33.3958
  73   2.0000      -1.225989       -33.3608
  74   2.0000      -1.222027       -33.2531
  75   2.0000      -1.220701       -33.2170
  76   2.0000      -1.181905       -32.1613
  77   2.0000      -1.171521       -31.8787
  78   2.0000      -1.164606       -31.6905
  79   2.0000      -1.162399       -31.6305
  80   2.0000      -1.115687       -30.3594
  81   2.0000      -1.114032       -30.3144
  82   2.0000      -1.113383       -30.2967
  83   2.0000      -1.106966       -30.1221
  84   2.0000      -1.100648       -29.9502
  85   2.0000      -1.056736       -28.7552
  86   2.0000      -1.056432       -28.7470
  87   2.0000      -1.055205       -28.7136
  88   2.0000      -1.055056       -28.7095
  89   2.0000      -1.052884       -28.6504
  90   2.0000      -1.052298       -28.6345
  91   2.0000      -1.007290       -27.4097
  92   2.0000      -1.006516       -27.3887
  93   2.0000      -1.002918       -27.2908
  94   2.0000      -1.001546       -27.2535
  95   2.0000      -1.000865       -27.2349
  96   2.0000      -0.998436       -27.1688
  97   2.0000      -0.990018       -26.9397
  98   2.0000      -0.989162       -26.9165
  99   2.0000      -0.987063       -26.8593
 100   2.0000      -0.975863       -26.5546
 101   2.0000      -0.898289       -24.4437
 102   2.0000      -0.897389       -24.4192
 103   2.0000      -0.895868       -24.3778
 104   2.0000      -0.891599       -24.2616
 105   2.0000      -0.889575       -24.2066
 106   2.0000      -0.881158       -23.9775
 107   2.0000      -0.875720       -23.8295
 108   2.0000      -0.874554       -23.7978
 109   2.0000      -0.862482       -23.4693
 110   2.0000      -0.836638       -22.7661
 111   2.0000      -0.831311       -22.6211
 112   2.0000      -0.829837       -22.5810
 113   2.0000      -0.828045       -22.5323
 114   2.0000      -0.822493       -22.3812
 115   2.0000      -0.821731       -22.3604
 116   2.0000      -0.818713       -22.2783
 117   2.0000      -0.810044       -22.0424
 118   2.0000      -0.802973       -21.8500
 119   2.0000      -0.800478       -21.7821
 120   2.0000      -0.774671       -21.0799
 121   2.0000      -0.766992       -20.8709
 122   2.0000      -0.766499       -20.8575
 123   2.0000      -0.766196       -20.8492
 124   2.0000      -0.764892       -20.8138
 125   2.0000      -0.750074       -20.4105
 126   2.0000      -0.749675       -20.3997
 127   2.0000      -0.745677       -20.2909
 128   2.0000      -0.744196       -20.2506
 129   2.0000      -0.741272       -20.1710
 130   2.0000      -0.735582       -20.0162
 131   2.0000      -0.705516       -19.1981
 132   2.0000      -0.700872       -19.0717
 133   2.0000      -0.697686       -18.9850
 134   2.0000      -0.692065       -18.8320
 135   2.0000      -0.690419       -18.7872
 136   2.0000      -0.686954       -18.6930
 137   2.0000      -0.671784       -18.2802
 138   2.0000      -0.668161       -18.1816
 139   2.0000      -0.666898       -18.1472
 140   2.0000      -0.662600       -18.0303
 141   2.0000      -0.655382       -17.8339
 142   2.0000      -0.653865       -17.7926
 143   2.0000      -0.653509       -17.7829
 144   2.0000      -0.651358       -17.7244
 145   2.0000      -0.648658       -17.6509
 146   2.0000      -0.645561       -17.5666
 147   2.0000      -0.635903       -17.3038
 148   2.0000      -0.628934       -17.1142
 149   2.0000      -0.626114       -17.0374
 150   2.0000      -0.625414       -17.0184
 151   2.0000      -0.625051       -17.0085
 152   2.0000      -0.623645       -16.9702
 153   2.0000      -0.623054       -16.9542
 154   2.0000      -0.620802       -16.8929
 155   2.0000      -0.612135       -16.6570
 156   2.0000      -0.610623       -16.6159
 157   2.0000      -0.606423       -16.5016
 158   2.0000      -0.601550       -16.3690
 159   2.0000      -0.599057       -16.3012
 160   2.0000      -0.598248       -16.2791
 161   2.0000      -0.595616       -16.2075
 162   2.0000      -0.593430       -16.1480
 163   2.0000      -0.591739       -16.1020
 164   2.0000      -0.590800       -16.0765
 165   2.0000      -0.589525       -16.0418
 166   2.0000      -0.578891       -15.7524
 167   2.0000      -0.575907       -15.6712
 168   2.0000      -0.575318       -15.6552
 169   2.0000      -0.573901       -15.6167
 170   2.0000      -0.571250       -15.5445
 171   2.0000      -0.567709       -15.4481
 172   2.0000      -0.562817       -15.3150
 173   2.0000      -0.561652       -15.2833
 174   2.0000      -0.561145       -15.2695
 175   2.0000      -0.560002       -15.2384
 176   2.0000      -0.556833       -15.1522
 177   2.0000      -0.541294       -14.7294
 178   2.0000      -0.540262       -14.7013
 179   2.0000      -0.539383       -14.6774
 180   2.0000      -0.537920       -14.6375
 181   2.0000      -0.536283       -14.5930
 182   2.0000      -0.535380       -14.5684
 183   2.0000      -0.531687       -14.4679
 184   2.0000      -0.528598       -14.3839
 185   2.0000      -0.523454       -14.2439
 186   2.0000      -0.523202       -14.2370
 187   2.0000      -0.521441       -14.1891
 188   2.0000      -0.515305       -14.0222
 189   2.0000      -0.514425       -13.9982
 190   2.0000      -0.512728       -13.9520
 191   2.0000      -0.501985       -13.6597
 192   2.0000      -0.497079       -13.5262
 193   2.0000      -0.492036       -13.3890
 194   2.0000      -0.491178       -13.3656
 195   2.0000      -0.489754       -13.3269
 196   2.0000      -0.489394       -13.3171
 197   2.0000      -0.487994       -13.2790
 198   2.0000      -0.486271       -13.2321
 199   2.0000      -0.485934       -13.2229
 200   2.0000      -0.485168       -13.2021
 201   2.0000      -0.474526       -12.9125
 202   2.0000      -0.472977       -12.8704
 203   2.0000      -0.472251       -12.8506
 204   2.0000      -0.471988       -12.8434
 205   2.0000      -0.471112       -12.8196
 206   2.0000      -0.469335       -12.7712
 207   2.0000      -0.467679       -12.7262
 208   2.0000      -0.465836       -12.6761
 209   2.0000      -0.462896       -12.5960
 210   2.0000      -0.462329       -12.5806
 211   2.0000      -0.461262       -12.5516
 212   2.0000      -0.457153       -12.4398
 213   2.0000      -0.456612       -12.4250
 214   2.0000      -0.453223       -12.3328
 215   2.0000      -0.449665       -12.2360
 216   2.0000      -0.443662       -12.0727
 217   2.0000      -0.437404       -11.9024
 218   2.0000      -0.435917       -11.8619
 219   2.0000      -0.430479       -11.7139
 220   2.0000      -0.428927       -11.6717
 221   2.0000      -0.425165       -11.5693
 222   2.0000      -0.410771       -11.1777
 223   2.0000      -0.409482       -11.1426
 224   2.0000      -0.408108       -11.1052
 225   2.0000      -0.406915       -11.0727
 226   2.0000      -0.406457       -11.0603
 227   2.0000      -0.404538       -11.0080
 228   2.0000      -0.400036       -10.8855
 229   2.0000      -0.399669       -10.8755
 230   2.0000      -0.397228       -10.8091
 231   2.0000      -0.395498       -10.7620
 232   2.0000      -0.389176       -10.5900
 233   2.0000      -0.387028       -10.5316
 234   2.0000      -0.375994       -10.2313
 235   2.0000      -0.324984        -8.8433
 236   2.0000      -0.324159        -8.8208
 237   2.0000      -0.323717        -8.8088
 238   2.0000      -0.321381        -8.7452
 239   2.0000      -0.319575        -8.6961
 240   2.0000      -0.317242        -8.6326
 241   0.0000       0.070705         1.9240
 242   0.0000       0.071673         1.9503
 243   0.0000       0.072518         1.9733
 244   0.0000       0.079455         2.1621
 245   0.0000       0.081482         2.2172

MULLIKEN ATOMIC CHARGES
-----------------------
   0 C :    0.185077
   1 C :   -0.115241
   2 C :   -0.211413
   3 C :    0.181909
   4 H :    0.154413
   5 C :   -0.219278
   6 C :    0.209068
   7 H :    0.156761
   8 C :   -0.225587
   9 C :   -0.093015
  10 H :    0.161267
  11 C :   -0.121819
  12 H :    0.088800
  13 H :    0.100575
  14 H :    0.102530
  15 C :    0.191369
  16 C :   -0.108665
  17 C :   -0.229693
  18 C :    0.177590
  19 H :    0.167307
  20 C :   -0.210832
  21 C :    0.203049
  22 H :    0.156076
  23 C :   -0.216520
  24 C :   -0.100906
  25 H :    0.155890
  26 C :   -0.114836
  27 H :    0.090630
  28 H :    0.101837
  29 H :    0.097914
  30 C :    0.205084
  31 C :   -0.104174
  32 C :   -0.226150
  33 C :    0.183225
  34 H :    0.160454
  35 C :   -0.228604
  36 C :    0.210071
  37 H :    0.156370
  38 C :   -0.212217
  39 C :   -0.105736
  40 H :    0.156572
  41 C :   -0.112373
  42 H :    0.088320
  43 H :    0.102988
  44 C :    0.068104
  45 C :    0.095007
  46 N :   -0.300391
  47 N :   -0.292267
  48 C :    0.049701
  49 C :    0.064602
  50 N :   -0.382567
  51 N :   -0.286624
  52 C :    0.093535
  53 C :    0.084595
  54 N :   -0.283205
  55 N :   -0.288003
  56 C :    0.088327
  57 C :    0.097296
  58 N :   -0.293365
  59 N :   -0.288317
  60 C :    0.104809
  61 C :    0.083710
  62 N :   -0.285085
  63 N :   -0.288594
  64 H :    0.148972
  65 H :    0.124576
  66 H :    0.099916
  67 C :   -0.286794
  68 C :   -0.203116
  69 C :   -0.203322
  70 C :   -0.203464
  71 C :   -0.202705
  72 H :    0.079421
  73 C :   -0.206127
  74 H :    0.108519
  75 H :    0.099120
  76 C :   -0.204681
  77 H :    0.113250
  78 H :    0.088639
  79 C :   -0.202101
  80 H :    0.088093
  81 H :    0.112526
  82 H :    0.094944
  83 H :    0.109910
  84 H :    0.079585
  85 H :    0.113016
  86 C :   -0.221049
  87 H :    0.102972
  88 H :    0.108501
  89 C :   -0.220004
  90 H :    0.120711
  91 H :    0.091546
  92 C :   -0.214808
  93 H :    0.099553
  94 H :    0.116665
  95 H :    0.112686
  96 H :    0.095410
  97 H :    0.083638
  98 H :    0.078621
  99 C :   -0.205260
 100 H :    0.075259
 101 C :   -0.205834
 102 H :    0.095470
 103 H :    0.109962
 104 C :   -0.205958
 105 H :    0.112521
 106 H :    0.089233
 107 H :    0.088698
 108 H :    0.113101
 109 H :    0.100742
 110 H :    0.107837
 111 H :    0.078239
 112 C :   -0.203695
 113 H :    0.078123
 114 C :   -0.205026
 115 H :    0.094984
 116 H :    0.109719
 117 C :   -0.206500
 118 H :    0.112136
 119 H :    0.088454
 120 H :    0.112858
 121 H :    0.088646
 122 H :    0.099278
 123 H :    0.107806
 124 H :    0.068201
 125 C :   -0.205813
 126 H :    0.106296
 127 C :   -0.200818
 128 H :    0.080196
 129 H :    0.125444
 130 C :   -0.208344
 131 H :    0.112696
 132 H :    0.092535
 133 H :    0.094387
 134 H :    0.116563
 135 H :    0.119399
 136 H :    0.136488
Sum of atomic charges:   -0.0000000

LOEWDIN ATOMIC CHARGES
----------------------
   0 C :   -0.073862
   1 C :   -0.067544
   2 C :    0.091709
   3 C :   -0.074493
   4 H :   -0.020294
   5 C :    0.093164
   6 C :   -0.074071
   7 H :   -0.019174
   8 C :    0.092287
   9 C :   -0.064575
  10 H :   -0.022626
  11 C :   -0.067394
  12 H :   -0.034185
  13 H :   -0.034896
  14 H :   -0.035209
  15 C :   -0.075693
  16 C :   -0.067818
  17 C :    0.086369
  18 C :   -0.074525
  19 H :   -0.022894
  20 C :    0.094583
  21 C :   -0.072427
  22 H :   -0.018349
  23 C :    0.091338
  24 C :   -0.065259
  25 H :   -0.021679
  26 C :   -0.070854
  27 H :   -0.033932
  28 H :   -0.032746
  29 H :   -0.034939
  30 C :   -0.072279
  31 C :   -0.062098
  32 C :    0.090752
  33 C :   -0.074861
  34 H :   -0.023287
  35 C :    0.091165
  36 C :   -0.071830
  37 H :   -0.018614
  38 C :    0.090555
  39 C :   -0.066605
  40 H :   -0.021163
  41 C :   -0.068190
  42 H :   -0.035066
  43 H :   -0.035367
  44 C :   -0.108112
  45 C :   -0.110949
  46 N :    0.232037
  47 N :    0.218039
  48 C :   -0.089053
  49 C :   -0.116100
  50 N :    0.335966
  51 N :    0.226635
  52 C :   -0.111915
  53 C :   -0.108716
  54 N :    0.224646
  55 N :    0.233185
  56 C :   -0.108250
  57 C :   -0.111828
  58 N :    0.232811
  59 N :    0.221615
  60 C :   -0.113573
  61 C :   -0.108917
  62 N :    0.226403
  63 N :    0.233736
  64 H :   -0.113006
  65 H :   -0.110775
  66 H :   -0.032159
  67 C :    0.051679
  68 C :    0.063032
  69 C :    0.062667
  70 C :    0.061944
  71 C :    0.062033
  72 H :   -0.032187
  73 C :    0.058531
  74 H :   -0.025675
  75 H :   -0.023792
  76 C :    0.058154
  77 H :   -0.025625
  78 H :   -0.026167
  79 C :    0.059705
  80 H :   -0.026217
  81 H :   -0.025670
  82 H :   -0.024218
  83 H :   -0.024806
  84 H :   -0.030729
  85 H :   -0.029618
  86 C :    0.057569
  87 H :   -0.023508
  88 H :   -0.025538
  89 C :    0.058838
  90 H :   -0.025078
  91 H :   -0.032142
  92 C :    0.059707
  93 H :   -0.025174
  94 H :   -0.026514
  95 H :   -0.024387
  96 H :   -0.025228
  97 H :   -0.030161
  98 H :   -0.032191
  99 C :    0.061156
 100 H :   -0.030104
 101 C :    0.059100
 102 H :   -0.024506
 103 H :   -0.024692
 104 C :    0.059191
 105 H :   -0.025774
 106 H :   -0.025881
 107 H :   -0.026244
 108 H :   -0.025621
 109 H :   -0.023697
 110 H :   -0.025965
 111 H :   -0.032370
 112 C :    0.059855
 113 H :   -0.030625
 114 C :    0.058594
 115 H :   -0.024416
 116 H :   -0.024755
 117 C :    0.058790
 118 H :   -0.025800
 119 H :   -0.026148
 120 H :   -0.025763
 121 H :   -0.026221
 122 H :   -0.024012
 123 H :   -0.025929
 124 H :   -0.030878
 125 C :    0.058109
 126 H :   -0.026279
 127 C :    0.058752
 128 H :   -0.028120
 129 H :   -0.020384
 130 C :    0.060263
 131 H :   -0.025176
 132 H :   -0.025098
 133 H :   -0.025831
 134 H :   -0.024181
 135 H :   -0.024896
 136 H :   -0.028525

  Mayer bond orders larger than 0.100000
B(  0-C ,  1-C ) :   1.0004 B(  0-C ,  2-C ) :   1.3072 B(  0-C ,  8-C ) :   1.3724
B(  1-C , 13-H ) :   0.9900 B(  1-C , 47-N ) :   1.9776 B(  2-C ,  3-C ) :   1.3851
B(  2-C ,  4-H ) :   0.9644 B(  3-C ,  5-C ) :   1.2930 B(  3-C , 11-C ) :   0.9995
B(  5-C ,  6-C ) :   1.3847 B(  5-C ,  7-H ) :   0.9654 B(  6-C ,  8-C ) :   1.2888
B(  6-C ,  9-C ) :   0.9871 B(  8-C , 10-H ) :   0.9634 B(  9-C , 12-H ) :   0.9866
B(  9-C , 58-N ) :   1.9771 B( 11-C , 14-H ) :   0.9908 B( 11-C , 54-N ) :   1.9725
B( 15-C , 16-C ) :   1.0133 B( 15-C , 17-C ) :   1.2965 B( 15-C , 23-C ) :   1.4004
B( 16-C , 28-H ) :   0.9928 B( 16-C , 51-N ) :   1.9403 B( 17-C , 18-C ) :   1.3960
B( 17-C , 19-H ) :   0.9610 B( 18-C , 20-C ) :   1.2896 B( 18-C , 26-C ) :   0.9968
B( 20-C , 21-C ) :   1.3857 B( 20-C , 22-H ) :   0.9664 B( 21-C , 23-C ) :   1.2938
B( 21-C , 24-C ) :   0.9878 B( 23-C , 25-H ) :   0.9643 B( 24-C , 27-H ) :   0.9880
B( 24-C , 55-N ) :   1.9707 B( 26-C , 29-H ) :   0.9925 B( 26-C , 62-N ) :   1.9789
B( 30-C , 31-C ) :   0.9862 B( 30-C , 32-C ) :   1.2946 B( 30-C , 38-C ) :   1.3859
B( 31-C , 46-N ) :   1.9655 B( 31-C , 66-H ) :   0.9862 B( 32-C , 33-C ) :   1.3737
B( 32-C , 34-H ) :   0.9620 B( 33-C , 35-C ) :   1.2981 B( 33-C , 41-C ) :   1.0012
B( 35-C , 36-C ) :   1.3749 B( 35-C , 37-H ) :   0.9670 B( 36-C , 38-C ) :   1.3108
B( 36-C , 39-C ) :   0.9768 B( 38-C , 40-H ) :   0.9634 B( 39-C , 42-H ) :   0.9834
B( 39-C , 63-N ) :   1.9844 B( 41-C , 43-H ) :   0.9896 B( 41-C , 59-N ) :   1.9674
B( 44-C , 45-C ) :   0.9381 B( 44-C , 46-N ) :   0.9355 B( 44-C , 68-C ) :   0.9523
B( 44-C , 85-H ) :   0.9663 B( 45-C , 47-N ) :   0.9240 B( 45-C , 92-C ) :   0.9561
B( 45-C , 97-H ) :   0.9760 B( 48-C , 49-C ) :   0.9773 B( 48-C , 50-N ) :   1.0140
B( 48-C ,125-C ) :   0.9607 B( 48-C ,126-H ) :   0.9743 B( 49-C , 51-N ) :   0.9733
B( 49-C , 67-C ) :   0.9443 B( 49-C ,124-H ) :   0.9501 B( 50-N , 64-H ) :   0.9953
B( 50-N , 65-H ) :   1.0029 B( 52-C , 53-C ) :   0.9339 B( 52-C , 54-N ) :   0.9344
B( 52-C , 79-C ) :   0.9562 B( 52-C , 84-H ) :   0.9731 B( 53-C , 55-N ) :   0.9408
B( 53-C , 71-C ) :   0.9511 B( 53-C , 72-H ) :   0.9710 B( 56-C , 57-C ) :   0.9328
B( 56-C , 58-N ) :   0.9378 B( 56-C , 70-C ) :   0.9498 B( 56-C ,111-H ) :   0.9719
B( 57-C , 59-N ) :   0.9361 B( 57-C ,112-C ) :   0.9554 B( 57-C ,113-H ) :   0.9741
B( 60-C , 61-C ) :   0.9372 B( 60-C , 62-N ) :   0.9292 B( 60-C , 99-C ) :   0.9540
B( 60-C ,100-H ) :   0.9745 B( 61-C , 63-N ) :   0.9397 B( 61-C , 69-C ) :   0.9501
B( 61-C , 98-H ) :   0.9734 B( 67-C ,130-C ) :   0.9570 B( 67-C ,135-H ) :   0.9767
B( 67-C ,136-H ) :   0.9837 B( 68-C , 86-C ) :   0.9411 B( 68-C , 87-H ) :   0.9834
B( 68-C , 88-H ) :   0.9908 B( 69-C ,104-C ) :   0.9412 B( 69-C ,109-H ) :   0.9824
B( 69-C ,110-H ) :   0.9913 B( 70-C ,117-C ) :   0.9417 B( 70-C ,122-H ) :   0.9831
B( 70-C ,123-H ) :   0.9913 B( 71-C , 73-C ) :   0.9417 B( 71-C , 74-H ) :   0.9910
B( 71-C , 75-H ) :   0.9830 B( 73-C , 76-C ) :   0.9438 B( 73-C , 77-H ) :   0.9950
B( 73-C , 78-H ) :   0.9849 B( 76-C , 79-C ) :   0.9440 B( 76-C , 80-H ) :   0.9848
B( 76-C , 81-H ) :   0.9956 B( 79-C , 82-H ) :   0.9843 B( 79-C , 83-H ) :   0.9915
B( 86-C , 89-C ) :   0.9419 B( 86-C , 90-H ) :   0.9947 B( 86-C , 91-H ) :   0.9830
B( 89-C , 92-C ) :   0.9450 B( 89-C , 93-H ) :   0.9867 B( 89-C , 94-H ) :   0.9944
B( 92-C , 95-H ) :   0.9914 B( 92-C , 96-H ) :   0.9876 B( 99-C ,101-C ) :   0.9445
B( 99-C ,102-H ) :   0.9845 B( 99-C ,103-H ) :   0.9915 B(101-C ,104-C ) :   0.9444
B(101-C ,105-H ) :   0.9954 B(101-C ,106-H ) :   0.9848 B(104-C ,107-H ) :   0.9849
B(104-C ,108-H ) :   0.9946 B(112-C ,114-C ) :   0.9446 B(112-C ,115-H ) :   0.9844
B(112-C ,116-H ) :   0.9915 B(114-C ,117-C ) :   0.9442 B(114-C ,118-H ) :   0.9956
B(114-C ,119-H ) :   0.9848 B(117-C ,120-H ) :   0.9949 B(117-C ,121-H ) :   0.9849
B(125-C ,127-C ) :   0.9483 B(125-C ,128-H ) :   0.9787 B(125-C ,129-H ) :   0.9875
B(127-C ,130-C ) :   0.9452 B(127-C ,131-H ) :   0.9951 B(127-C ,132-H ) :   0.9865
B(130-C ,133-H ) :   0.9849 B(130-C ,134-H ) :   0.9947

MP2 TOTAL ENERGY:    -2755.927530701 Eh
FINAL SINGLE POINT ENERGY     -2755.927530700513

DIPOLE MOMENT
-------------
                                X             Y             Z
Electronic contribution:     -8.70817       8.77579     -13.88311
Nuclear contribution   :      8.15536      -9.01214      13.44420
                        -----------------------------------------
Total Dipole Moment    :     -0.55282      -0.23635      -0.43891
                        -----------------------------------------
Magnitude (a.u.)       :      0.74438
Magnitude (Debye)      :      1.89207

Rotational constants in cm-1:     0.000982     0.000785     0.000764
Rotational constants in MHz :    29.429965    23.539454    22.909836

                             ****ORCA TERMINATED NORMALLY****
TOTAL RUN TIME: 0 days 5 hours 11 minutes 4 seconds 356 msec
