                         Program Version 4.2.1 -  RELEASE  -
|  1> ! RI-MP2 cc-pVTZ cc-pVTZ/C TIGHTSCF printbasis Grid6 NOFINALGRID SlowConv
|  2>
|  3> %base "_o_4_alde1_6_ami4_1_opt_MP2"
|  4> %maxcore 3000
|  5> %pal
|  6>    nprocs 32
|  7> end
|  8>
|  9> * xyzfile 0 1 _o_4_alde1_6_ami4_1_opt_B97-3c.xyz
| 10>
| 11>                          ****END OF INPUT****

CARTESIAN COORDINATES (ANGSTROEM)
---------------------------------
  C     -1.007701   -0.959950    4.190187
  C     -2.052470   -1.980855    4.235815
  C     -1.320832    0.403375    4.186311
  C     -0.317697    1.360939    4.190107
  H     -2.362831    0.694472    4.198204
  C      1.019549    0.950482    4.182185
  C      1.347168   -0.397063    4.186140
  H      1.792731    1.707303    4.190826
  C      0.323085   -1.349919    4.182432
  C      2.753681   -0.791918    4.227724
  H      0.592035   -2.397887    4.191244
  C     -0.679189    2.776264    4.235716
  H      3.476534    0.029446    4.122875
  H     -1.702340   -3.017528    4.131628
  H     -1.752250    2.991520    4.133997
  C     -3.978432   -1.911610   -0.109918
  C     -4.602387   -1.851813    1.210293
  C     -3.190273   -3.001281   -0.494792
  C     -2.643338   -3.065809   -1.767549
  H     -3.031310   -3.801118    0.216299
  C     -2.874524   -2.018156   -2.665180
  C     -3.653502   -0.930620   -2.299569
  H     -2.446836   -2.083249   -3.656903
  C     -4.197852   -0.881377   -1.011963
  C     -3.915485    0.123316   -3.277558
  H     -4.808411   -0.030235   -0.741021
  C     -1.865600   -4.241379   -2.153555
  H     -3.357674    0.039223   -4.220914
  H     -5.113960   -0.908137    1.446689
  H     -1.657849   -4.954838   -1.343657
  C      3.643594   -2.492673   -0.121661
  C      3.907238   -3.064770    1.197097
  C      4.191645   -1.264241   -0.505472
  C      3.970815   -0.755938   -1.776698
  H      4.806185   -0.727706    0.205258
  C      3.177477   -1.478692   -2.673884
  C      2.626720   -2.698143   -2.309400
  H      3.017442   -1.073974   -3.664468
  C      2.859366   -3.196516   -1.023217
  C      1.843415   -3.450598   -3.287242
  H      2.428599   -4.151563   -0.753104
  C      4.598636    0.506397   -2.161692
  H      1.635150   -2.923795   -4.229173
  H      3.346482   -3.979998    1.433846
  H      5.114187    1.041747   -1.351914
  C      0.334116    4.402841   -0.113380
  C      0.701144    4.915414    1.205125
  C     -1.004624    4.264405   -0.494580
  C     -1.337183    3.820735   -1.765719
  H     -1.774964    4.527889    0.218025
  C     -0.316585    3.495734   -2.665398
  C      1.015654    3.627310   -2.303485
  H     -0.589274    3.156121   -3.655821
  C      1.333761    4.076275   -1.017419
  C      2.056732    3.325958   -3.283901
  H      2.376846    4.179965   -0.749299
  C     -2.745066    3.733882   -2.148112
  H      1.702409    2.883676   -4.225695
  H      1.774768    4.886948    1.438922
  H     -3.465061    3.910775   -1.336670
  C     -4.222567   -2.794630    4.435497
  C     -5.232817   -2.650356    3.302122
  N     -3.279555   -1.705423    4.408116
  N     -4.584034   -2.823259    2.027140
  H     -5.745176   -1.683777    3.395529
  H     -5.976523   -3.441914    3.418074
  H     -3.742655   -3.779893    4.368670
  H     -4.772729   -2.747683    5.377955
  C      4.543043   -2.265922    4.421160
  C      4.919376   -3.212912    3.286435
  N      3.128443   -1.992742    4.397607
  N      4.741451   -2.563923    2.012287
  H      4.338062   -4.139517    3.381233
  H      5.976912   -3.461899    3.399314
  H      5.156881   -1.358151    4.352968
  H      4.779559   -2.766375    5.362817
  C     -0.297874    5.062623    4.432386
  C      0.329729    5.863762    3.296476
  N      0.173473    3.701192    4.405339
  N     -0.147348    5.386494    2.023309
  H      1.423179    5.824130    3.387478
  H      0.016412    6.903787    3.411691
  H     -1.391219    5.139858    4.368001
  H      0.020239    5.516616    5.373553
  C     -0.710727   -5.643364   -3.606679
  C      0.678935   -5.283405   -4.121748
  N     -1.472267   -4.448944   -3.342455
  N      1.446017   -4.639221   -3.085878
  H      0.581122   -4.670766   -5.027632
  H      1.183183   -6.213552   -4.393170
  H     -0.613004   -6.293459   -2.727308
  H     -1.219488   -6.207337   -4.391650
  C     -4.922113    2.047853   -4.110862
  C     -4.539687    3.431999   -3.597219
  N     -4.745165    1.062321   -3.074674
  N     -3.124066    3.495929   -3.335981
  H     -5.150084    3.672108   -2.716720
  H     -4.776117    4.154008   -4.382020
  H     -4.343766    1.826226   -5.017440
  H     -5.980210    2.074941   -4.380681
  C      5.231974    2.210209   -3.613218
  C      4.224091    3.234681   -4.123709
  N      4.579158    0.952905   -3.349776
  N      3.285352    3.575334   -3.084890
  H      3.739974    2.845315   -5.028990
  H      4.776885    4.136844   -4.395042
  H      5.748505    2.618162   -2.734426
  H      5.972708    2.053180   -4.400453

 Total Charge           Charge          ....    0
 Multiplicity           Mult            ....    1
 Number of Electrons    NEL             ....  420
 Basis Dimension        Dim             .... 2472

ORBITAL ENERGIES
----------------

  NO   OCC          E(Eh)            E(eV)
   0   2.0000     -15.554094      -423.2484
   1   2.0000     -15.554087      -423.2482
   2   2.0000     -15.554085      -423.2482
   3   2.0000     -15.554084      -423.2481
   4   2.0000     -15.554083      -423.2481
   5   2.0000     -15.554080      -423.2480
   6   2.0000     -15.554079      -423.2480
   7   2.0000     -15.554079      -423.2480
   8   2.0000     -15.554078      -423.2480
   9   2.0000     -15.554076      -423.2479
  10   2.0000     -15.554074      -423.2479
  11   2.0000     -15.554073      -423.2478
  12   2.0000     -11.279858      -306.9405
  13   2.0000     -11.279855      -306.9405
  14   2.0000     -11.279851      -306.9404
  15   2.0000     -11.279847      -306.9402
  16   2.0000     -11.279846      -306.9402
  17   2.0000     -11.279845      -306.9402
  18   2.0000     -11.279844      -306.9402
  19   2.0000     -11.279844      -306.9402
  20   2.0000     -11.279842      -306.9401
  21   2.0000     -11.279841      -306.9401
  22   2.0000     -11.279839      -306.9400
  23   2.0000     -11.279838      -306.9400
  24   2.0000     -11.250811      -306.1501
  25   2.0000     -11.250807      -306.1500
  26   2.0000     -11.250806      -306.1500
  27   2.0000     -11.250802      -306.1499
  28   2.0000     -11.250801      -306.1499
  29   2.0000     -11.250800      -306.1498
  30   2.0000     -11.250186      -306.1331
  31   2.0000     -11.250182      -306.1330
  32   2.0000     -11.250181      -306.1330
  33   2.0000     -11.250177      -306.1329
  34   2.0000     -11.250177      -306.1329
  35   2.0000     -11.250175      -306.1328
  36   2.0000     -11.246937      -306.0447
  37   2.0000     -11.246928      -306.0445
  38   2.0000     -11.246927      -306.0444
  39   2.0000     -11.246917      -306.0442
  40   2.0000     -11.246500      -306.0328
  41   2.0000     -11.246493      -306.0326
  42   2.0000     -11.246492      -306.0326
  43   2.0000     -11.246492      -306.0326
  44   2.0000     -11.246484      -306.0324
  45   2.0000     -11.246482      -306.0323
  46   2.0000     -11.246482      -306.0323
  47   2.0000     -11.246471      -306.0320
  48   2.0000     -11.244527      -305.9791
  49   2.0000     -11.244525      -305.9791
  50   2.0000     -11.244521      -305.9790
  51   2.0000     -11.244520      -305.9789
  52   2.0000     -11.244518      -305.9789
  53   2.0000     -11.244515      -305.9788
  54   2.0000     -11.244511      -305.9787
  55   2.0000     -11.244505      -305.9785
  56   2.0000     -11.244053      -305.9662
  57   2.0000     -11.244046      -305.9660
  58   2.0000     -11.244045      -305.9660
  59   2.0000     -11.244035      -305.9657
  60   2.0000      -1.251866       -34.0650
  61   2.0000      -1.249881       -34.0110
  62   2.0000      -1.249875       -34.0108
  63   2.0000      -1.249867       -34.0106
  64   2.0000      -1.248589       -33.9758
  65   2.0000      -1.248581       -33.9756
  66   2.0000      -1.228917       -33.4405
  67   2.0000      -1.228915       -33.4405
  68   2.0000      -1.228909       -33.4403
  69   2.0000      -1.224278       -33.3143
  70   2.0000      -1.224275       -33.3142
  71   2.0000      -1.224270       -33.3141
  72   2.0000      -1.170154       -31.8415
  73   2.0000      -1.164271       -31.6814
  74   2.0000      -1.164264       -31.6812
  75   2.0000      -1.164255       -31.6810
  76   2.0000      -1.070957       -29.1422
  77   2.0000      -1.070950       -29.1420
  78   2.0000      -1.065173       -28.9848
  79   2.0000      -1.065167       -28.9847
  80   2.0000      -1.065162       -28.9845
  81   2.0000      -1.049778       -28.5659
  82   2.0000      -1.049775       -28.5658
  83   2.0000      -1.049767       -28.5656
  84   2.0000      -1.016893       -27.6711
  85   2.0000      -1.000282       -27.2191
  86   2.0000      -1.000273       -27.2188
  87   2.0000      -1.000269       -27.2187
  88   2.0000      -0.993813       -27.0430
  89   2.0000      -0.993807       -27.0429
  90   2.0000      -0.908954       -24.7339
  91   2.0000      -0.908945       -24.7337
  92   2.0000      -0.908939       -24.7335
  93   2.0000      -0.906737       -24.6736
  94   2.0000      -0.906727       -24.6733
  95   2.0000      -0.906723       -24.6732
  96   2.0000      -0.872505       -23.7421
  97   2.0000      -0.872494       -23.7418
  98   2.0000      -0.862954       -23.4822
  99   2.0000      -0.862949       -23.4820
 100   2.0000      -0.862947       -23.4820
 101   2.0000      -0.833389       -22.6777
 102   2.0000      -0.824403       -22.4331
 103   2.0000      -0.824399       -22.4330
 104   2.0000      -0.824397       -22.4330
 105   2.0000      -0.800313       -21.7776
 106   2.0000      -0.800305       -21.7774
 107   2.0000      -0.800296       -21.7772
 108   2.0000      -0.752011       -20.4633
 109   2.0000      -0.752007       -20.4632
 110   2.0000      -0.752003       -20.4630
 111   2.0000      -0.745739       -20.2926
 112   2.0000      -0.745729       -20.2923
 113   2.0000      -0.745106       -20.2754
 114   2.0000      -0.745104       -20.2753
 115   2.0000      -0.745099       -20.2752
 116   2.0000      -0.707412       -19.2497
 117   2.0000      -0.703834       -19.1523
 118   2.0000      -0.703827       -19.1521
 119   2.0000      -0.703824       -19.1520
 120   2.0000      -0.687315       -18.7028
 121   2.0000      -0.684979       -18.6392
 122   2.0000      -0.684974       -18.6391
 123   2.0000      -0.684971       -18.6390
 124   2.0000      -0.667819       -18.1723
 125   2.0000      -0.667809       -18.1720
 126   2.0000      -0.667803       -18.1718
 127   2.0000      -0.658553       -17.9201
 128   2.0000      -0.658542       -17.9198
 129   2.0000      -0.657636       -17.8952
 130   2.0000      -0.657632       -17.8951
 131   2.0000      -0.657627       -17.8950
 132   2.0000      -0.643084       -17.4992
 133   2.0000      -0.643064       -17.4987
 134   2.0000      -0.643061       -17.4986
 135   2.0000      -0.641842       -17.4654
 136   2.0000      -0.618141       -16.8205
 137   2.0000      -0.618139       -16.8204
 138   2.0000      -0.618135       -16.8203
 139   2.0000      -0.615831       -16.7576
 140   2.0000      -0.613516       -16.6946
 141   2.0000      -0.613495       -16.6940
 142   2.0000      -0.610692       -16.6178
 143   2.0000      -0.610686       -16.6176
 144   2.0000      -0.610680       -16.6174
 145   2.0000      -0.601192       -16.3593
 146   2.0000      -0.601189       -16.3592
 147   2.0000      -0.601182       -16.3590
 148   2.0000      -0.589894       -16.0518
 149   2.0000      -0.589879       -16.0514
 150   2.0000      -0.581440       -15.8218
 151   2.0000      -0.581432       -15.8216
 152   2.0000      -0.581419       -15.8212
 153   2.0000      -0.578355       -15.7378
 154   2.0000      -0.546564       -14.8728
 155   2.0000      -0.546548       -14.8723
 156   2.0000      -0.546539       -14.8721
 157   2.0000      -0.544438       -14.8149
 158   2.0000      -0.544418       -14.8144
 159   2.0000      -0.544405       -14.8140
 160   2.0000      -0.537446       -14.6246
 161   2.0000      -0.535026       -14.5588
 162   2.0000      -0.535022       -14.5587
 163   2.0000      -0.533265       -14.5109
 164   2.0000      -0.533260       -14.5108
 165   2.0000      -0.533257       -14.5106
 166   2.0000      -0.527409       -14.3515
 167   2.0000      -0.527401       -14.3513
 168   2.0000      -0.527392       -14.3511
 169   2.0000      -0.517922       -14.0934
 170   2.0000      -0.502433       -13.6719
 171   2.0000      -0.502422       -13.6716
 172   2.0000      -0.502413       -13.6714
 173   2.0000      -0.496686       -13.5155
 174   2.0000      -0.496684       -13.5155
 175   2.0000      -0.496674       -13.5152
 176   2.0000      -0.496618       -13.5137
 177   2.0000      -0.496610       -13.5135
 178   2.0000      -0.461684       -12.5631
 179   2.0000      -0.461679       -12.5629
 180   2.0000      -0.461673       -12.5628
 181   2.0000      -0.452807       -12.3215
 182   2.0000      -0.452805       -12.3214
 183   2.0000      -0.452794       -12.3212
 184   2.0000      -0.446593       -12.1524
 185   2.0000      -0.446585       -12.1522
 186   2.0000      -0.412114       -11.2142
 187   2.0000      -0.412105       -11.2140
 188   2.0000      -0.412102       -11.2139
 189   2.0000      -0.411900       -11.2084
 190   2.0000      -0.408572       -11.1178
 191   2.0000      -0.408563       -11.1176
 192   2.0000      -0.408559       -11.1175
 193   2.0000      -0.407869       -11.0987
 194   2.0000      -0.407866       -11.0986
 195   2.0000      -0.406998       -11.0750
 196   2.0000      -0.406996       -11.0749
 197   2.0000      -0.406993       -11.0748
 198   2.0000      -0.401325       -10.9206
 199   2.0000      -0.401321       -10.9205
 200   2.0000      -0.401308       -10.9202
 201   2.0000      -0.392646       -10.6844
 202   2.0000      -0.325008        -8.8439
 203   2.0000      -0.325003        -8.8438
 204   2.0000      -0.324998        -8.8436
 205   2.0000      -0.322483        -8.7752
 206   2.0000      -0.322480        -8.7751
 207   2.0000      -0.322475        -8.7750
 208   2.0000      -0.321014        -8.7352
 209   2.0000      -0.321012        -8.7352
 210   0.0000       0.073660         2.0044
 211   0.0000       0.073671         2.0047
 212   0.0000       0.073674         2.0048
 213   0.0000       0.077824         2.1177
 214   0.0000       0.077831         2.1179

MULLIKEN ATOMIC CHARGES
-----------------------
   0 C :    0.156332
   1 C :   -0.079603
   2 C :   -0.197160
   3 C :    0.156418
   4 H :    0.155010
   5 C :   -0.197171
   6 C :    0.156326
   7 H :    0.155011
   8 C :   -0.197162
   9 C :   -0.079593
  10 H :    0.155004
  11 C :   -0.079688
  12 H :    0.090315
  13 H :    0.090305
  14 H :    0.090313
  15 C :    0.156337
  16 C :   -0.079591
  17 C :   -0.197181
  18 C :    0.156370
  19 H :    0.155003
  20 C :   -0.197195
  21 C :    0.156374
  22 H :    0.155008
  23 C :   -0.197176
  24 C :   -0.079598
  25 H :    0.155008
  26 C :   -0.079632
  27 H :    0.090285
  28 H :    0.090284
  29 H :    0.090286
  30 C :    0.156364
  31 C :   -0.079608
  32 C :   -0.197157
  33 C :    0.156360
  34 H :    0.155000
  35 C :   -0.197177
  36 C :    0.156366
  37 H :    0.154998
  38 C :   -0.197195
  39 C :   -0.079650
  40 H :    0.155014
  41 C :   -0.079625
  42 H :    0.090301
  43 H :    0.090306
  44 H :    0.090292
  45 C :    0.156370
  46 C :   -0.079620
  47 C :   -0.197216
  48 C :    0.156447
  49 H :    0.155014
  50 C :   -0.197187
  51 C :    0.156348
  52 H :    0.154999
  53 C :   -0.197185
  54 C :   -0.079613
  55 H :    0.154998
  56 C :   -0.079674
  57 H :    0.090293
  58 H :    0.090283
  59 H :    0.090317
  60 C :   -0.033875
  61 C :   -0.033861
  62 N :   -0.255431
  63 N :   -0.255413
  64 H :    0.061204
  65 H :    0.103208
  66 H :    0.061217
  67 H :    0.103202
  68 C :   -0.033893
  69 C :   -0.033892
  70 N :   -0.255423
  71 N :   -0.255408
  72 H :    0.061214
  73 H :    0.103195
  74 H :    0.061223
  75 H :    0.103195
  76 C :   -0.033895
  77 C :   -0.033873
  78 N :   -0.255406
  79 N :   -0.255402
  80 H :    0.061209
  81 H :    0.103214
  82 H :    0.061220
  83 H :    0.103209
  84 C :   -0.033877
  85 C :   -0.033884
  86 N :   -0.255408
  87 N :   -0.255409
  88 H :    0.061219
  89 H :    0.103210
  90 H :    0.061217
  91 H :    0.103216
  92 C :   -0.033884
  93 C :   -0.033892
  94 N :   -0.255395
  95 N :   -0.255389
  96 H :    0.061223
  97 H :    0.103207
  98 H :    0.061220
  99 H :    0.103197
 100 C :   -0.033863
 101 C :   -0.033864
 102 N :   -0.255410
 103 N :   -0.255421
 104 H :    0.061206
 105 H :    0.103210
 106 H :    0.061210
 107 H :    0.103216
Sum of atomic charges:   -0.0000000

LOEWDIN ATOMIC CHARGES
----------------------
   0 C :   -0.075777
   1 C :   -0.070658
   2 C :    0.093115
   3 C :   -0.075762
   4 H :   -0.019584
   5 C :    0.093114
   6 C :   -0.075770
   7 H :   -0.019584
   8 C :    0.093109
   9 C :   -0.070629
  10 H :   -0.019585
  11 C :   -0.070651
  12 H :   -0.034007
  13 H :   -0.033995
  14 H :   -0.034000
  15 C :   -0.075756
  16 C :   -0.070676
  17 C :    0.093121
  18 C :   -0.075757
  19 H :   -0.019568
  20 C :    0.093120
  21 C :   -0.075770
  22 H :   -0.019573
  23 C :    0.093121
  24 C :   -0.070663
  25 H :   -0.019580
  26 C :   -0.070677
  27 H :   -0.034001
  28 H :   -0.033997
  29 H :   -0.033997
  30 C :   -0.075764
  31 C :   -0.070635
  32 C :    0.093115
  33 C :   -0.075771
  34 H :   -0.019579
  35 C :    0.093113
  36 C :   -0.075751
  37 H :   -0.019571
  38 C :    0.093113
  39 C :   -0.070663
  40 H :   -0.019585
  41 C :   -0.070667
  42 H :   -0.034003
  43 H :   -0.034008
  44 H :   -0.033995
  45 C :   -0.075762
  46 C :   -0.070667
  47 C :    0.093115
  48 C :   -0.075755
  49 H :   -0.019574
  50 C :    0.093109
  51 C :   -0.075764
  52 H :   -0.019581
  53 C :    0.093117
  54 C :   -0.070666
  55 H :   -0.019571
  56 C :   -0.070641
  57 H :   -0.033996
  58 H :   -0.033999
  59 H :   -0.034008
  60 C :   -0.041673
  61 C :   -0.041676
  62 N :    0.213230
  63 N :    0.213227
  64 H :   -0.037683
  65 H :   -0.027002
  66 H :   -0.037682
  67 H :   -0.027000
  68 C :   -0.041683
  69 C :   -0.041676
  70 N :    0.213285
  71 N :    0.213279
  72 H :   -0.037690
  73 H :   -0.027003
  74 H :   -0.037693
  75 H :   -0.027000
  76 C :   -0.041663
  77 C :   -0.041675
  78 N :    0.213240
  79 N :    0.213239
  80 H :   -0.037691
  81 H :   -0.027007
  82 H :   -0.037686
  83 H :   -0.027007
  84 C :   -0.041656
  85 C :   -0.041658
  86 N :    0.213233
  87 N :    0.213224
  88 H :   -0.037686
  89 H :   -0.027005
  90 H :   -0.037693
  91 H :   -0.027011
  92 C :   -0.041677
  93 C :   -0.041678
  94 N :    0.213291
  95 N :    0.213273
  96 H :   -0.037683
  97 H :   -0.027006
  98 H :   -0.037690
  99 H :   -0.027005
 100 C :   -0.041672
 101 C :   -0.041669
 102 N :    0.213219
 103 N :    0.213219
 104 H :   -0.037683
 105 H :   -0.027001
 106 H :   -0.037685
 107 H :   -0.027001

  Mayer bond orders larger than 0.100000
B(  0-C ,  1-C ) :   0.9943 B(  0-C ,  2-C ) :   1.2978 B(  0-C ,  8-C ) :   1.3925
B(  1-C , 13-H ) :   0.9904 B(  1-C , 62-N ) :   1.9856 B(  2-C ,  3-C ) :   1.3925
B(  2-C ,  4-H ) :   0.9642 B(  3-C ,  5-C ) :   1.2978 B(  3-C , 11-C ) :   0.9942
B(  5-C ,  6-C ) :   1.3925 B(  5-C ,  7-H ) :   0.9642 B(  6-C ,  8-C ) :   1.2978
B(  6-C ,  9-C ) :   0.9943 B(  8-C , 10-H ) :   0.9642 B(  9-C , 12-H ) :   0.9904
B(  9-C , 70-N ) :   1.9855 B( 11-C , 14-H ) :   0.9904 B( 11-C , 78-N ) :   1.9856
B( 15-C , 16-C ) :   0.9943 B( 15-C , 17-C ) :   1.2978 B( 15-C , 23-C ) :   1.3925
B( 16-C , 28-H ) :   0.9904 B( 16-C , 63-N ) :   1.9856 B( 17-C , 18-C ) :   1.3925
B( 17-C , 19-H ) :   0.9643 B( 18-C , 20-C ) :   1.2978 B( 18-C , 26-C ) :   0.9943
B( 20-C , 21-C ) :   1.3925 B( 20-C , 22-H ) :   0.9643 B( 21-C , 23-C ) :   1.2978
B( 21-C , 24-C ) :   0.9943 B( 23-C , 25-H ) :   0.9643 B( 24-C , 27-H ) :   0.9904
B( 24-C , 94-N ) :   1.9856 B( 26-C , 29-H ) :   0.9904 B( 26-C , 86-N ) :   1.9856
B( 30-C , 31-C ) :   0.9943 B( 30-C , 32-C ) :   1.2978 B( 30-C , 38-C ) :   1.3925
B( 31-C , 43-H ) :   0.9904 B( 31-C , 71-N ) :   1.9856 B( 32-C , 33-C ) :   1.3925
B( 32-C , 34-H ) :   0.9642 B( 33-C , 35-C ) :   1.2978 B( 33-C , 41-C ) :   0.9943
B( 35-C , 36-C ) :   1.3925 B( 35-C , 37-H ) :   0.9643 B( 36-C , 38-C ) :   1.2978
B( 36-C , 39-C ) :   0.9943 B( 38-C , 40-H ) :   0.9643 B( 39-C , 42-H ) :   0.9904
B( 39-C , 87-N ) :   1.9856 B( 41-C , 44-H ) :   0.9904 B( 41-C ,102-N ) :   1.9856
B( 45-C , 46-C ) :   0.9943 B( 45-C , 47-C ) :   1.2978 B( 45-C , 53-C ) :   1.3925
B( 46-C , 58-H ) :   0.9904 B( 46-C , 79-N ) :   1.9856 B( 47-C , 48-C ) :   1.3925
B( 47-C , 49-H ) :   0.9643 B( 48-C , 50-C ) :   1.2978 B( 48-C , 56-C ) :   0.9942
B( 50-C , 51-C ) :   1.3924 B( 50-C , 52-H ) :   0.9643 B( 51-C , 53-C ) :   1.2978
B( 51-C , 54-C ) :   0.9943 B( 53-C , 55-H ) :   0.9643 B( 54-C , 57-H ) :   0.9904
B( 54-C ,103-N ) :   1.9856 B( 56-C , 59-H ) :   0.9904 B( 56-C , 95-N ) :   1.9856
B( 60-C , 61-C ) :   0.9403 B( 60-C , 62-N ) :   0.9709 B( 60-C , 66-H ) :   0.9743
B( 60-C , 67-H ) :   0.9810 B( 61-C , 63-N ) :   0.9709 B( 61-C , 64-H ) :   0.9743
B( 61-C , 65-H ) :   0.9810 B( 68-C , 69-C ) :   0.9403 B( 68-C , 70-N ) :   0.9710
B( 68-C , 74-H ) :   0.9743 B( 68-C , 75-H ) :   0.9810 B( 69-C , 71-N ) :   0.9710
B( 69-C , 72-H ) :   0.9743 B( 69-C , 73-H ) :   0.9810 B( 76-C , 77-C ) :   0.9402
B( 76-C , 78-N ) :   0.9709 B( 76-C , 82-H ) :   0.9743 B( 76-C , 83-H ) :   0.9810
B( 77-C , 79-N ) :   0.9709 B( 77-C , 80-H ) :   0.9743 B( 77-C , 81-H ) :   0.9810
B( 84-C , 85-C ) :   0.9403 B( 84-C , 86-N ) :   0.9709 B( 84-C , 90-H ) :   0.9743
B( 84-C , 91-H ) :   0.9810 B( 85-C , 87-N ) :   0.9709 B( 85-C , 88-H ) :   0.9743
B( 85-C , 89-H ) :   0.9810 B( 92-C , 93-C ) :   0.9403 B( 92-C , 94-N ) :   0.9709
B( 92-C , 98-H ) :   0.9743 B( 92-C , 99-H ) :   0.9809 B( 93-C , 95-N ) :   0.9709
B( 93-C , 96-H ) :   0.9743 B( 93-C , 97-H ) :   0.9810 B(100-C ,101-C ) :   0.9403
B(100-C ,102-N ) :   0.9709 B(100-C ,106-H ) :   0.9743 B(100-C ,107-H ) :   0.9810
B(101-C ,103-N ) :   0.9709 B(101-C ,104-H ) :   0.9743 B(101-C ,105-H ) :   0.9810

MP2 TOTAL ENERGY:    -2509.723568636 Eh
FINAL SINGLE POINT ENERGY     -2509.723568636289

DIPOLE MOMENT
-------------
                                X             Y             Z
Electronic contribution:     -0.00070       0.00043      -0.00168
Nuclear contribution   :      0.00006      -0.00097       0.00178
                        -----------------------------------------
Total Dipole Moment    :     -0.00064      -0.00054       0.00010
                        -----------------------------------------
Magnitude (a.u.)       :      0.00084
Magnitude (Debye)      :      0.00213

Rotational constants in cm-1:     0.001081     0.001080     0.001080
Rotational constants in MHz :    32.410213    32.392277    32.386215

                             ****ORCA TERMINATED NORMALLY****
TOTAL RUN TIME: 0 days 2 hours 20 minutes 28 seconds 501 msec
