                         Program Version 4.2.1 -  RELEASE  -
|  1> ! DFT COPT B97-3c TightSCF printbasis  Grid6 NOFINALGRID SlowConv
|  2>
|  3> %base "_o_4_alde1_6_ami4_1_opt_B97-3c"
|  4> %maxcore 3000
|  5> %scf
|  6>    MaxIter 2000
|  7> end
|  8> %pal
|  9>    nprocs 32
| 10> end
| 11>
| 12> * xyzfile 0 1 o_4_alde1_6_ami4_1_opt.xyz
| 13> # * xyzfile 0 1 _o_4_alde1_6_ami4_1_opt_B97-3c.xyz
| 14>
| 15>                          ****END OF INPUT****
 Total Charge           Charge          ....    0
 Multiplicity           Mult            ....    1
 Number of Electrons    NEL             ....  420
Dispersion correction           -0.324069770
FINAL SINGLE POINT ENERGY     -2513.687317737148
Dispersion correction            ... done
Dispersion correction           -0.323996748
FINAL SINGLE POINT ENERGY     -2513.689089273169
Dispersion correction            ... done
Dispersion correction           -0.323981817
FINAL SINGLE POINT ENERGY     -2513.689669558838
Dispersion correction            ... done
FINAL SINGLE POINT ENERGY     -2513.690070035731
FINAL SINGLE POINT ENERGY     -2513.690401845033
FINAL SINGLE POINT ENERGY     -2513.690658393511
FINAL SINGLE POINT ENERGY     -2513.690835677118
FINAL SINGLE POINT ENERGY     -2513.691003319401
FINAL SINGLE POINT ENERGY     -2513.691226332674
FINAL SINGLE POINT ENERGY     -2513.691513148345
FINAL SINGLE POINT ENERGY     -2513.694997632009
FINAL SINGLE POINT ENERGY     -2513.695014327981
FINAL SINGLE POINT ENERGY     -2513.695025294909
FINAL SINGLE POINT ENERGY     -2513.695036060746
FINAL SINGLE POINT ENERGY     -2513.695050535757
FINAL SINGLE POINT ENERGY     -2513.695066983521
FINAL SINGLE POINT ENERGY     -2513.695080511000
Dispersion correction            ... done
Dispersion correction           -0.322155092
FINAL SINGLE POINT ENERGY     -2513.695088936076
Dispersion correction            ... done
Dispersion correction           -0.322150526
FINAL SINGLE POINT ENERGY     -2513.695095082382
Dispersion correction            ... done
                    ***********************HURRAY********************

CARTESIAN COORDINATES (ANGSTROEM)
---------------------------------
  C     -1.007701   -0.959950    4.190187
  C     -2.052470   -1.980855    4.235815
  C     -1.320832    0.403375    4.186311
  C     -0.317697    1.360939    4.190107
  H     -2.362831    0.694472    4.198204
  C      1.019549    0.950482    4.182185
  C      1.347168   -0.397063    4.186140
  H      1.792731    1.707303    4.190826
  C      0.323085   -1.349919    4.182432
  C      2.753681   -0.791918    4.227724
  H      0.592035   -2.397887    4.191244
  C     -0.679189    2.776264    4.235716
  H      3.476534    0.029446    4.122875
  H     -1.702340   -3.017528    4.131628
  H     -1.752250    2.991520    4.133997
  C     -3.978432   -1.911610   -0.109918
  C     -4.602387   -1.851813    1.210293
  C     -3.190273   -3.001281   -0.494792
  C     -2.643338   -3.065809   -1.767549
  H     -3.031310   -3.801118    0.216299
  C     -2.874524   -2.018156   -2.665180
  C     -3.653502   -0.930620   -2.299569
  H     -2.446836   -2.083249   -3.656903
  C     -4.197852   -0.881377   -1.011963
  C     -3.915485    0.123316   -3.277558
  H     -4.808411   -0.030235   -0.741021
  C     -1.865600   -4.241379   -2.153555
  H     -3.357674    0.039223   -4.220914
  H     -5.113960   -0.908137    1.446689
  H     -1.657849   -4.954838   -1.343657
  C      3.643594   -2.492673   -0.121661
  C      3.907238   -3.064770    1.197097
  C      4.191645   -1.264241   -0.505472
  C      3.970815   -0.755938   -1.776698
  H      4.806185   -0.727706    0.205258
  C      3.177477   -1.478692   -2.673884
  C      2.626720   -2.698143   -2.309400
  H      3.017442   -1.073974   -3.664468
  C      2.859366   -3.196516   -1.023217
  C      1.843415   -3.450598   -3.287242
  H      2.428599   -4.151563   -0.753104
  C      4.598636    0.506397   -2.161692
  H      1.635150   -2.923795   -4.229173
  H      3.346482   -3.979998    1.433846
  H      5.114187    1.041747   -1.351914
  C      0.334116    4.402841   -0.113380
  C      0.701144    4.915414    1.205125
  C     -1.004624    4.264405   -0.494580
  C     -1.337183    3.820735   -1.765719
  H     -1.774964    4.527889    0.218025
  C     -0.316585    3.495734   -2.665398
  C      1.015654    3.627310   -2.303485
  H     -0.589274    3.156121   -3.655821
  C      1.333761    4.076275   -1.017419
  C      2.056732    3.325958   -3.283901
  H      2.376846    4.179965   -0.749299
  C     -2.745066    3.733882   -2.148112
  H      1.702409    2.883676   -4.225695
  H      1.774768    4.886948    1.438922
  H     -3.465061    3.910775   -1.336670
  C     -4.222567   -2.794630    4.435497
  C     -5.232817   -2.650356    3.302122
  N     -3.279555   -1.705423    4.408116
  N     -4.584034   -2.823259    2.027140
  H     -5.745176   -1.683777    3.395529
  H     -5.976523   -3.441914    3.418074
  H     -3.742655   -3.779893    4.368670
  H     -4.772729   -2.747683    5.377955
  C      4.543043   -2.265922    4.421160
  C      4.919376   -3.212912    3.286435
  N      3.128443   -1.992742    4.397607
  N      4.741451   -2.563923    2.012287
  H      4.338062   -4.139517    3.381233
  H      5.976912   -3.461899    3.399314
  H      5.156881   -1.358151    4.352968
  H      4.779559   -2.766375    5.362817
  C     -0.297874    5.062623    4.432386
  C      0.329729    5.863762    3.296476
  N      0.173473    3.701192    4.405339
  N     -0.147348    5.386494    2.023309
  H      1.423179    5.824130    3.387478
  H      0.016412    6.903787    3.411691
  H     -1.391219    5.139858    4.368001
  H      0.020239    5.516616    5.373553
  C     -0.710727   -5.643364   -3.606679
  C      0.678935   -5.283405   -4.121748
  N     -1.472267   -4.448944   -3.342455
  N      1.446017   -4.639221   -3.085878
  H      0.581122   -4.670766   -5.027632
  H      1.183183   -6.213552   -4.393170
  H     -0.613004   -6.293459   -2.727308
  H     -1.219488   -6.207337   -4.391650
  C     -4.922113    2.047853   -4.110862
  C     -4.539687    3.431999   -3.597219
  N     -4.745165    1.062321   -3.074674
  N     -3.124066    3.495929   -3.335981
  H     -5.150084    3.672108   -2.716720
  H     -4.776117    4.154008   -4.382020
  H     -4.343766    1.826226   -5.017440
  H     -5.980210    2.074941   -4.380681
  C      5.231974    2.210209   -3.613218
  C      4.224091    3.234681   -4.123709
  N      4.579158    0.952905   -3.349776
  N      3.285352    3.575334   -3.084890
  H      3.739974    2.845315   -5.028990
  H      4.776885    4.136844   -4.395042
  H      5.748505    2.618162   -2.734426
  H      5.972708    2.053180   -4.400453

 Multiplicity           Mult            ....    1
 Number of Electrons    NEL             ....  420
 Basis Dimension        Dim             .... 1284

ORBITAL ENERGIES
----------------

  NO   OCC          E(Eh)            E(eV)
   0   2.0000     -13.981604      -380.4588
   1   2.0000     -13.981604      -380.4588
   2   2.0000     -13.981603      -380.4588
   3   2.0000     -13.981599      -380.4587
   4   2.0000     -13.981594      -380.4585
   5   2.0000     -13.981592      -380.4585
   6   2.0000     -13.981591      -380.4584
   7   2.0000     -13.981589      -380.4584
   8   2.0000     -13.981589      -380.4584
   9   2.0000     -13.981588      -380.4584
  10   2.0000     -13.981588      -380.4583
  11   2.0000     -13.981586      -380.4583
  12   2.0000      -9.934215      -270.3237
  13   2.0000      -9.934205      -270.3235
  14   2.0000      -9.934203      -270.3234
  15   2.0000      -9.934201      -270.3234
  16   2.0000      -9.934197      -270.3232
  17   2.0000      -9.934196      -270.3232
  18   2.0000      -9.934195      -270.3232
  19   2.0000      -9.934194      -270.3232
  20   2.0000      -9.934194      -270.3232
  21   2.0000      -9.934191      -270.3231
  22   2.0000      -9.934191      -270.3231
  23   2.0000      -9.934186      -270.3229
  24   2.0000      -9.918828      -269.9050
  25   2.0000      -9.918824      -269.9049
  26   2.0000      -9.918823      -269.9049
  27   2.0000      -9.918823      -269.9049
  28   2.0000      -9.918819      -269.9048
  29   2.0000      -9.918817      -269.9047
  30   2.0000      -9.918717      -269.9020
  31   2.0000      -9.918713      -269.9019
  32   2.0000      -9.918712      -269.9019
  33   2.0000      -9.918711      -269.9019
  34   2.0000      -9.918708      -269.9018
  35   2.0000      -9.918706      -269.9017
  36   2.0000      -9.910188      -269.6699
  37   2.0000      -9.910182      -269.6698
  38   2.0000      -9.910182      -269.6698
  39   2.0000      -9.910175      -269.6696
  40   2.0000      -9.910172      -269.6695
  41   2.0000      -9.910170      -269.6694
  42   2.0000      -9.910169      -269.6694
  43   2.0000      -9.910167      -269.6694
  44   2.0000      -9.910165      -269.6693
  45   2.0000      -9.910160      -269.6692
  46   2.0000      -9.910157      -269.6691
  47   2.0000      -9.910153      -269.6690
  48   2.0000      -9.905756      -269.5493
  49   2.0000      -9.905750      -269.5492
  50   2.0000      -9.905749      -269.5491
  51   2.0000      -9.905749      -269.5491
  52   2.0000      -9.905741      -269.5489
  53   2.0000      -9.905738      -269.5488
  54   2.0000      -9.905735      -269.5487
  55   2.0000      -9.905727      -269.5485
  56   2.0000      -9.905712      -269.5481
  57   2.0000      -9.905704      -269.5479
  58   2.0000      -9.905700      -269.5478
  59   2.0000      -9.905689      -269.5475
  60   2.0000      -0.866074       -23.5671
  61   2.0000      -0.864814       -23.5328
  62   2.0000      -0.864811       -23.5327
  63   2.0000      -0.864802       -23.5325
  64   2.0000      -0.864039       -23.5117
  65   2.0000      -0.864032       -23.5115
  66   2.0000      -0.847617       -23.0648
  67   2.0000      -0.847615       -23.0648
  68   2.0000      -0.847610       -23.0646
  69   2.0000      -0.844527       -22.9808
  70   2.0000      -0.844525       -22.9807
  71   2.0000      -0.844520       -22.9806
  72   2.0000      -0.802666       -21.8416
  73   2.0000      -0.798382       -21.7251
  74   2.0000      -0.798376       -21.7249
  75   2.0000      -0.798367       -21.7247
  76   2.0000      -0.730123       -19.8677
  77   2.0000      -0.730116       -19.8675
  78   2.0000      -0.725531       -19.7427
  79   2.0000      -0.725525       -19.7425
  80   2.0000      -0.725519       -19.7424
  81   2.0000      -0.712213       -19.3803
  82   2.0000      -0.712210       -19.3802
  83   2.0000      -0.712203       -19.3800
  84   2.0000      -0.693555       -18.8726
  85   2.0000      -0.678726       -18.4691
  86   2.0000      -0.678722       -18.4690
  87   2.0000      -0.678716       -18.4688
  88   2.0000      -0.673194       -18.3185
  89   2.0000      -0.673190       -18.3184
  90   2.0000      -0.613477       -16.6936
  91   2.0000      -0.613467       -16.6933
  92   2.0000      -0.613465       -16.6932
  93   2.0000      -0.613404       -16.6916
  94   2.0000      -0.613396       -16.6914
  95   2.0000      -0.613391       -16.6912
  96   2.0000      -0.586309       -15.9543
  97   2.0000      -0.586301       -15.9541
  98   2.0000      -0.580423       -15.7941
  99   2.0000      -0.580419       -15.7940
 100   2.0000      -0.580418       -15.7940
 101   2.0000      -0.561037       -15.2666
 102   2.0000      -0.551850       -15.0166
 103   2.0000      -0.551846       -15.0165
 104   2.0000      -0.551844       -15.0164
 105   2.0000      -0.535058       -14.5597
 106   2.0000      -0.535051       -14.5595
 107   2.0000      -0.535044       -14.5593
 108   2.0000      -0.496367       -13.5068
 109   2.0000      -0.496363       -13.5067
 110   2.0000      -0.496359       -13.5066
 111   2.0000      -0.492173       -13.3927
 112   2.0000      -0.492164       -13.3925
 113   2.0000      -0.490629       -13.3507
 114   2.0000      -0.490626       -13.3506
 115   2.0000      -0.490623       -13.3505
 116   2.0000      -0.473052       -12.8724
 117   2.0000      -0.466940       -12.7061
 118   2.0000      -0.466934       -12.7059
 119   2.0000      -0.466930       -12.7058
 120   2.0000      -0.458243       -12.4694
 121   2.0000      -0.458240       -12.4693
 122   2.0000      -0.458236       -12.4692
 123   2.0000      -0.456003       -12.4085
 124   2.0000      -0.440715       -11.9925
 125   2.0000      -0.440707       -11.9923
 126   2.0000      -0.440700       -11.9921
 127   2.0000      -0.440094       -11.9756
 128   2.0000      -0.440083       -11.9753
 129   2.0000      -0.434928       -11.8350
 130   2.0000      -0.434920       -11.8348
 131   2.0000      -0.434918       -11.8347
 132   2.0000      -0.426168       -11.5966
 133   2.0000      -0.426154       -11.5962
 134   2.0000      -0.426145       -11.5960
 135   2.0000      -0.420665       -11.4469
 136   2.0000      -0.404536       -11.0080
 137   2.0000      -0.403879       -10.9901
 138   2.0000      -0.403868       -10.9898
 139   2.0000      -0.402639       -10.9564
 140   2.0000      -0.402629       -10.9561
 141   2.0000      -0.402628       -10.9561
 142   2.0000      -0.401085       -10.9141
 143   2.0000      -0.401080       -10.9139
 144   2.0000      -0.401079       -10.9139
 145   2.0000      -0.392683       -10.6855
 146   2.0000      -0.392682       -10.6854
 147   2.0000      -0.392671       -10.6851
 148   2.0000      -0.385983       -10.5031
 149   2.0000      -0.385973       -10.5029
 150   2.0000      -0.378767       -10.3068
 151   2.0000      -0.378004       -10.2860
 152   2.0000      -0.377997       -10.2858
 153   2.0000      -0.377990       -10.2856
 154   2.0000      -0.362478        -9.8635
 155   2.0000      -0.362469        -9.8633
 156   2.0000      -0.362466        -9.8632
 157   2.0000      -0.357632        -9.7317
 158   2.0000      -0.350061        -9.5256
 159   2.0000      -0.350054        -9.5255
 160   2.0000      -0.350046        -9.5252
 161   2.0000      -0.344140        -9.3645
 162   2.0000      -0.344131        -9.3643
 163   2.0000      -0.344125        -9.3641
 164   2.0000      -0.339898        -9.2491
 165   2.0000      -0.339894        -9.2490
 166   2.0000      -0.336745        -9.1633
 167   2.0000      -0.336741        -9.1632
 168   2.0000      -0.336739        -9.1631
 169   2.0000      -0.330833        -9.0024
 170   2.0000      -0.317957        -8.6521
 171   2.0000      -0.317950        -8.6519
 172   2.0000      -0.317943        -8.6517
 173   2.0000      -0.313188        -8.5223
 174   2.0000      -0.313182        -8.5221
 175   2.0000      -0.312549        -8.5049
 176   2.0000      -0.312545        -8.5048
 177   2.0000      -0.312543        -8.5047
 178   2.0000      -0.304815        -8.2944
 179   2.0000      -0.304810        -8.2943
 180   2.0000      -0.304807        -8.2942
 181   2.0000      -0.302103        -8.2206
 182   2.0000      -0.302100        -8.2205
 183   2.0000      -0.302088        -8.2202
 184   2.0000      -0.297392        -8.0924
 185   2.0000      -0.297383        -8.0922
 186   2.0000      -0.263484        -7.1698
 187   2.0000      -0.263481        -7.1697
 188   2.0000      -0.263473        -7.1695
 189   2.0000      -0.254775        -6.9328
 190   2.0000      -0.224512        -6.1093
 191   2.0000      -0.224506        -6.1091
 192   2.0000      -0.224503        -6.1090
 193   2.0000      -0.222239        -6.0474
 194   2.0000      -0.221627        -6.0308
 195   2.0000      -0.221619        -6.0306
 196   2.0000      -0.221614        -6.0304
 197   2.0000      -0.220863        -6.0100
 198   2.0000      -0.220854        -6.0097
 199   2.0000      -0.220470        -5.9993
 200   2.0000      -0.220468        -5.9992
 201   2.0000      -0.220459        -5.9990
 202   2.0000      -0.218372        -5.9422
 203   2.0000      -0.218369        -5.9421
 204   2.0000      -0.218362        -5.9419
 205   2.0000      -0.217257        -5.9119
 206   2.0000      -0.217250        -5.9117
 207   2.0000      -0.217003        -5.9049
 208   2.0000      -0.217002        -5.9049
 209   2.0000      -0.217001        -5.9049
 210   0.0000      -0.087547        -2.3823
 211   0.0000      -0.087541        -2.3821
 212   0.0000      -0.087538        -2.3820
 213   0.0000      -0.084329        -2.2947
 214   0.0000      -0.084326        -2.2946

MULLIKEN ATOMIC CHARGES
-----------------------
   0 C :    0.276226
   1 C :   -0.377946
   2 C :   -0.200994
   3 C :    0.275985
   4 H :    0.210117
   5 C :   -0.200912
   6 C :    0.275982
   7 H :    0.210128
   8 C :   -0.201118
   9 C :   -0.377677
  10 H :    0.210151
  11 C :   -0.377837
  12 H :    0.112038
  13 H :    0.112106
  14 H :    0.112084
  15 C :    0.276285
  16 C :   -0.377946
  17 C :   -0.201039
  18 C :    0.276170
  19 H :    0.210083
  20 C :   -0.201194
  21 C :    0.276393
  22 H :    0.210090
  23 C :   -0.201359
  24 C :   -0.377858
  25 H :    0.210161
  26 C :   -0.377980
  27 H :    0.112072
  28 H :    0.112084
  29 H :    0.112098
  30 C :    0.276003
  31 C :   -0.377788
  32 C :   -0.201067
  33 C :    0.276328
  34 H :    0.210113
  35 C :   -0.201046
  36 C :    0.276141
  37 H :    0.210106
  38 C :   -0.200933
  39 C :   -0.378025
  40 H :    0.210097
  41 C :   -0.378036
  42 H :    0.112085
  43 H :    0.112081
  44 H :    0.112067
  45 C :    0.276258
  46 C :   -0.377940
  47 C :   -0.201072
  48 C :    0.276166
  49 H :    0.210128
  50 C :   -0.201086
  51 C :    0.276359
  52 H :    0.210155
  53 C :   -0.201175
  54 C :   -0.378048
  55 H :    0.210108
  56 C :   -0.377917
  57 H :    0.112083
  58 H :    0.112092
  59 H :    0.112071
  60 C :   -0.257916
  61 C :   -0.257775
  62 N :   -0.072266
  63 N :   -0.072257
  64 H :    0.133612
  65 H :    0.177118
  66 H :    0.133641
  67 H :    0.177123
  68 C :   -0.257892
  69 C :   -0.257770
  70 N :   -0.072391
  71 N :   -0.072403
  72 H :    0.133592
  73 H :    0.177117
  74 H :    0.133621
  75 H :    0.177120
  76 C :   -0.257809
  77 C :   -0.257856
  78 N :   -0.072348
  79 N :   -0.072280
  80 H :    0.133626
  81 H :    0.177123
  82 H :    0.133632
  83 H :    0.177124
  84 C :   -0.257854
  85 C :   -0.257802
  86 N :   -0.072237
  87 N :   -0.072273
  88 H :    0.133638
  89 H :    0.177123
  90 H :    0.133637
  91 H :    0.177122
  92 C :   -0.257785
  93 C :   -0.257757
  94 N :   -0.072349
  95 N :   -0.072371
  96 H :    0.133595
  97 H :    0.177117
  98 H :    0.133595
  99 H :    0.177111
 100 C :   -0.257739
 101 C :   -0.257897
 102 N :   -0.072246
 103 N :   -0.072286
 104 H :    0.133623
 105 H :    0.177123
 106 H :    0.133605
 107 H :    0.177125
Sum of atomic charges:   -0.0000000

LOEWDIN ATOMIC CHARGES
----------------------
   0 C :   -0.079459
   1 C :   -0.034170
   2 C :   -0.105002
   3 C :   -0.079447
   4 H :    0.182857
   5 C :   -0.105012
   6 C :   -0.079452
   7 H :    0.182858
   8 C :   -0.105009
   9 C :   -0.034155
  10 H :    0.182865
  11 C :   -0.034171
  12 H :    0.141731
  13 H :    0.141741
  14 H :    0.141743
  15 C :   -0.079442
  16 C :   -0.034183
  17 C :   -0.105000
  18 C :   -0.079447
  19 H :    0.182855
  20 C :   -0.104997
  21 C :   -0.079444
  22 H :    0.182854
  23 C :   -0.105004
  24 C :   -0.034169
  25 H :    0.182858
  26 C :   -0.034193
  27 H :    0.141731
  28 H :    0.141740
  29 H :    0.141741
  30 C :   -0.079448
  31 C :   -0.034159
  32 C :   -0.105006
  33 C :   -0.079452
  34 H :    0.182859
  35 C :   -0.104999
  36 C :   -0.079441
  37 H :    0.182852
  38 C :   -0.105004
  39 C :   -0.034178
  40 H :    0.182854
  41 C :   -0.034181
  42 H :    0.141739
  43 H :    0.141733
  44 H :    0.141740
  45 C :   -0.079450
  46 C :   -0.034190
  47 C :   -0.104997
  48 C :   -0.079437
  49 H :    0.182857
  50 C :   -0.105002
  51 C :   -0.079453
  52 H :    0.182858
  53 C :   -0.105010
  54 C :   -0.034174
  55 H :    0.182854
  56 C :   -0.034166
  57 H :    0.141740
  58 H :    0.141737
  59 H :    0.141741
  60 C :   -0.208700
  61 C :   -0.208703
  62 N :   -0.196639
  63 N :   -0.196624
  64 H :    0.141169
  65 H :    0.158181
  66 H :    0.141171
  67 H :    0.158180
  68 C :   -0.208692
  69 C :   -0.208688
  70 N :   -0.196617
  71 N :   -0.196620
  72 H :    0.141166
  73 H :    0.158185
  74 H :    0.141166
  75 H :    0.158186
  76 C :   -0.208696
  77 C :   -0.208697
  78 N :   -0.196632
  79 N :   -0.196613
  80 H :    0.141167
  81 H :    0.158183
  82 H :    0.141170
  83 H :    0.158174
  84 C :   -0.208699
  85 C :   -0.208696
  86 N :   -0.196615
  87 N :   -0.196639
  88 H :    0.141170
  89 H :    0.158178
  90 H :    0.141174
  91 H :    0.158180
  92 C :   -0.208683
  93 C :   -0.208698
  94 N :   -0.196610
  95 N :   -0.196626
  96 H :    0.141172
  97 H :    0.158174
  98 H :    0.141173
  99 H :    0.158193
 100 C :   -0.208703
 101 C :   -0.208699
 102 N :   -0.196628
 103 N :   -0.196639
 104 H :    0.141171
 105 H :    0.158185
 106 H :    0.141170
 107 H :    0.158179

  Mayer bond orders larger than 0.100000
B(  0-C ,  1-C ) :   0.9724 B(  0-C ,  2-C ) :   1.3767 B(  0-C ,  3-C ) :   0.1216
B(  0-C ,  6-C ) :   0.1215 B(  0-C ,  8-C ) :   1.1692 B(  0-C , 62-N ) :  -0.2602
B(  1-C , 13-H ) :   0.8906 B(  1-C , 62-N ) :   2.0451 B(  2-C ,  3-C ) :   1.1693
B(  2-C ,  4-H ) :   0.8885 B(  3-C ,  5-C ) :   1.3769 B(  3-C ,  6-C ) :   0.1216
B(  3-C , 11-C ) :   0.9725 B(  3-C , 78-N ) :  -0.2602 B(  5-C ,  6-C ) :   1.1695
B(  5-C ,  7-H ) :   0.8884 B(  6-C ,  8-C ) :   1.3768 B(  6-C ,  9-C ) :   0.9725
B(  6-C , 70-N ) :  -0.2603 B(  8-C , 10-H ) :   0.8884 B(  9-C , 12-H ) :   0.8906
B(  9-C , 70-N ) :   2.0451 B( 11-C , 14-H ) :   0.8905 B( 11-C , 78-N ) :   2.0451
B( 15-C , 16-C ) :   0.9725 B( 15-C , 17-C ) :   1.3769 B( 15-C , 18-C ) :   0.1215
B( 15-C , 21-C ) :   0.1215 B( 15-C , 23-C ) :   1.1692 B( 15-C , 63-N ) :  -0.2603
B( 16-C , 28-H ) :   0.8905 B( 16-C , 63-N ) :   2.0452 B( 17-C , 18-C ) :   1.1694
B( 17-C , 19-H ) :   0.8885 B( 18-C , 20-C ) :   1.3768 B( 18-C , 21-C ) :   0.1215
B( 18-C , 26-C ) :   0.9726 B( 18-C , 86-N ) :  -0.2603 B( 20-C , 21-C ) :   1.1693
B( 20-C , 22-H ) :   0.8885 B( 21-C , 23-C ) :   1.3767 B( 21-C , 24-C ) :   0.9726
B( 21-C , 94-N ) :  -0.2602 B( 23-C , 25-H ) :   0.8885 B( 24-C , 27-H ) :   0.8905
B( 24-C , 94-N ) :   2.0452 B( 26-C , 29-H ) :   0.8905 B( 26-C , 86-N ) :   2.0452
B( 30-C , 31-C ) :   0.9725 B( 30-C , 32-C ) :   1.3769 B( 30-C , 33-C ) :   0.1215
B( 30-C , 36-C ) :   0.1216 B( 30-C , 38-C ) :   1.1693 B( 30-C , 71-N ) :  -0.2602
B( 31-C , 43-H ) :   0.8906 B( 31-C , 71-N ) :   2.0451 B( 32-C , 33-C ) :   1.1692
B( 32-C , 34-H ) :   0.8884 B( 33-C , 35-C ) :   1.3767 B( 33-C , 36-C ) :   0.1216
B( 33-C , 41-C ) :   0.9723 B( 33-C ,102-N ) :  -0.2603 B( 35-C , 36-C ) :   1.1694
B( 35-C , 37-H ) :   0.8884 B( 36-C , 38-C ) :   1.3766 B( 36-C , 39-C ) :   0.9724
B( 36-C , 87-N ) :  -0.2602 B( 38-C , 40-H ) :   0.8885 B( 39-C , 42-H ) :   0.8906
B( 39-C , 87-N ) :   2.0452 B( 41-C , 44-H ) :   0.8906 B( 41-C ,102-N ) :   2.0452
B( 45-C , 46-C ) :   0.9725 B( 45-C , 47-C ) :   1.3767 B( 45-C , 48-C ) :   0.1215
B( 45-C , 51-C ) :   0.1215 B( 45-C , 53-C ) :   1.1693 B( 45-C , 79-N ) :  -0.2603
B( 46-C , 58-H ) :   0.8905 B( 46-C , 79-N ) :   2.0451 B( 47-C , 48-C ) :   1.1693
B( 47-C , 49-H ) :   0.8885 B( 48-C , 50-C ) :   1.3767 B( 48-C , 51-C ) :   0.1215
B( 48-C , 56-C ) :   0.9724 B( 48-C , 95-N ) :  -0.2603 B( 50-C , 51-C ) :   1.1693
B( 50-C , 52-H ) :   0.8884 B( 51-C , 53-C ) :   1.3767 B( 51-C , 54-C ) :   0.9724
B( 51-C ,103-N ) :  -0.2603 B( 53-C , 55-H ) :   0.8885 B( 54-C , 57-H ) :   0.8905
B( 54-C ,103-N ) :   2.0452 B( 56-C , 59-H ) :   0.8906 B( 56-C , 95-N ) :   2.0452
B( 60-C , 61-C ) :   0.9149 B( 60-C , 62-N ) :   0.9339 B( 60-C , 66-H ) :   0.9251
B( 60-C , 67-H ) :   0.9391 B( 61-C , 63-N ) :   0.9340 B( 61-C , 64-H ) :   0.9251
B( 61-C , 65-H ) :   0.9391 B( 68-C , 69-C ) :   0.9148 B( 68-C , 70-N ) :   0.9341
B( 68-C , 74-H ) :   0.9251 B( 68-C , 75-H ) :   0.9391 B( 69-C , 71-N ) :   0.9340
B( 69-C , 72-H ) :   0.9251 B( 69-C , 73-H ) :   0.9391 B( 76-C , 77-C ) :   0.9149
B( 76-C , 78-N ) :   0.9339 B( 76-C , 82-H ) :   0.9251 B( 76-C , 83-H ) :   0.9391
B( 77-C , 79-N ) :   0.9340 B( 77-C , 80-H ) :   0.9251 B( 77-C , 81-H ) :   0.9391
B( 84-C , 85-C ) :   0.9149 B( 84-C , 86-N ) :   0.9339 B( 84-C , 90-H ) :   0.9251
B( 84-C , 91-H ) :   0.9391 B( 85-C , 87-N ) :   0.9339 B( 85-C , 88-H ) :   0.9251
B( 85-C , 89-H ) :   0.9391 B( 92-C , 93-C ) :   0.9148 B( 92-C , 94-N ) :   0.9340
B( 92-C , 98-H ) :   0.9251 B( 92-C , 99-H ) :   0.9391 B( 93-C , 95-N ) :   0.9340
B( 93-C , 96-H ) :   0.9251 B( 93-C , 97-H ) :   0.9391 B(100-C ,101-C ) :   0.9150
B(100-C ,102-N ) :   0.9339 B(100-C ,106-H ) :   0.9251 B(100-C ,107-H ) :   0.9391
B(101-C ,103-N ) :   0.9340 B(101-C ,104-H ) :   0.9251 B(101-C ,105-H ) :   0.9391

Dispersion correction           -0.322147926
FINAL SINGLE POINT ENERGY     -2513.695100947987

DIPOLE MOMENT
-------------
                                X             Y             Z
Electronic contribution:     -0.00082       0.00052      -0.00173
Nuclear contribution   :      0.00006      -0.00097       0.00178
                        -----------------------------------------
Total Dipole Moment    :     -0.00076      -0.00045       0.00004
                        -----------------------------------------
Magnitude (a.u.)       :      0.00088
Magnitude (Debye)      :      0.00224

Rotational constants in cm-1:     0.001081     0.001080     0.001080
Rotational constants in MHz :    32.410213    32.392277    32.386215

                             ****ORCA TERMINATED NORMALLY****
TOTAL RUN TIME: 0 days 1 hours 17 minutes 57 seconds 853 msec
