                         Program Version 4.2.1 -  RELEASE  -
|  1> ! RI-MP2 cc-pVTZ cc-pVTZ/C TIGHTSCF printbasis Grid6 NOFINALGRID SlowConv
|  2>
|  3> %base "_o_4_alde1_6_ami2_1_opt_MP2"
|  4> %maxcore 3000
|  5> %pal
|  6>    nprocs 32
|  7> end
|  8>
|  9> * xyzfile 0 1 _o_4_alde1_6_ami2_1_opt_B97-3c.xyz
| 10>
| 11>                          ****END OF INPUT****

CARTESIAN COORDINATES (ANGSTROEM)
---------------------------------
  C     -0.975350   -0.999865    4.178740
  C     -2.019051   -2.025415    4.226204
  C     -1.288162    0.363183    4.203958
  C     -0.286018    1.321489    4.205848
  H     -2.329848    0.653852    4.239883
  C      1.050858    0.911628    4.169219
  C      1.379462   -0.435389    4.143789
  H      1.824218    1.668487    4.178752
  C      0.355325   -1.388276    4.142528
  C      2.789998   -0.827245    4.157505
  H      0.624404   -2.436363    4.130941
  C     -0.651856    2.736671    4.283021
  H      3.494229    0.007953    4.090340
  H     -1.652563   -3.051934    4.126656
  H     -1.727662    2.931322    4.232707
  C     -4.054949   -1.750772   -0.117039
  C     -4.640757   -1.671540    1.219826
  C     -3.319900   -2.871848   -0.515820
  C     -2.800648   -2.961778   -1.797588
  H     -3.178208   -3.675539    0.194531
  C     -3.012233   -1.909444   -2.693774
  C     -3.740987   -0.791113   -2.317215
  H     -2.607538   -1.992929   -3.693645
  C     -4.254156   -0.714647   -1.017807
  C     -3.983816    0.263404   -3.303136
  H     -4.825310    0.160666   -0.736844
  C     -2.070406   -4.168877   -2.185264
  H     -3.461502    0.123583   -4.254365
  H     -5.103357   -0.708266    1.478990
  H     -1.910769   -4.882450   -1.371342
  C      3.512809   -2.538949   -0.258035
  C      3.760772   -3.141445    1.049945
  C      4.112103   -1.330091   -0.625162
  C      3.895655   -0.780457   -1.879340
  H      4.759693   -0.837582    0.087764
  C      3.057194   -1.445350   -2.780177
  C      2.459667   -2.649277   -2.435200
  H      2.898397   -1.009889   -3.757901
  C      2.686817   -3.187078   -1.163790
  C      1.630298   -3.348993   -3.414991
  H      2.217834   -4.128276   -0.908536
  C      4.576631    0.466023   -2.231790
  H      1.408991   -2.787670   -4.334034
  H      3.152412   -4.026302    1.285823
  H      5.140420    0.919668   -1.411436
  C      0.413880    4.381214   -0.080875
  C      0.825593    4.848568    1.241147
  C     -0.937375    4.286532   -0.429057
  C     -1.315636    3.875466   -1.698332
  H     -1.681352    4.555031    0.309056
  C     -0.328426    3.539728   -2.630435
  C      1.016085    3.628616   -2.302226
  H     -0.636017    3.222988   -3.618103
  C      1.380031    4.045079   -1.017431
  C      2.023443    3.307302   -3.310897
  H      2.432108    4.113006   -0.774459
  C     -2.734780    3.822045   -2.042027
  H      1.637701    2.857675   -4.236889
  H      1.899342    4.760593    1.459762
  H     -3.429357    3.970312   -1.203044
  C     -4.268251   -2.772711    4.465076
  C     -5.252018   -2.466030    3.317688
  N     -3.242876   -1.737558    4.393435
  C     -3.784420   -4.214890    4.377115
  C     -5.001421   -2.552463    5.787525
  N     -4.642920   -2.650354    2.028034
  H     -5.644735   -1.451372    3.458537
  H     -6.084966   -3.167821    3.402727
  H     -4.330969   -2.742403    6.623695
  H     -5.853625   -3.225318    5.873964
  H     -5.352952   -1.526156    5.864448
  H     -3.298313   -4.420478    3.427534
  H     -4.632955   -4.890982    4.462133
  H     -3.096776   -4.450395    5.188637
  C      4.566147   -2.407357    4.310271
  C      4.785396   -3.367042    3.122999
  N      3.155628   -2.037009    4.264927
  C      5.570889   -1.263114    4.257202
  C      4.752977   -3.202359    5.601958
  N      4.629890   -2.696001    1.860395
  H      4.103381   -4.218925    3.235384
  H      5.810028   -3.740515    3.186377
  H      4.588181   -2.559238    6.464576
  H      5.762574   -3.606344    5.665501
  H      4.040780   -4.022736    5.653023
  H      6.582014   -1.661764    4.313599
  H      5.440293   -0.583060    5.098251
  H      5.493465   -0.702119    3.330020
  C     -0.171163    5.056736    4.525135
  C      0.534167    5.769525    3.353498
  N      0.213710    3.653260    4.421665
  C     -1.665102    5.355504    4.501630
  C      0.439382    5.568097    5.829399
  N      0.013907    5.343829    2.081527
  H      1.614496    5.601859    3.445251
  H      0.345774    6.840500    3.457420
  H      0.286139    6.641455    5.934344
  H      1.506288    5.359118    5.861138
  H     -0.026029    5.072648    6.679691
  H     -2.178933    4.868551    5.329703
  H     -2.122914    5.045637    3.566375
  H     -1.824700    6.427280    4.603173
  C     -0.964574   -5.591855   -3.739516
  C      0.405165   -5.127698   -4.275640
  N     -1.676998   -4.372555   -3.373394
  C     -0.776724   -6.626238   -2.636573
  C     -1.744278   -6.209939   -4.899173
  N      1.208916   -4.533502   -3.240703
  H      0.235815   -4.450313   -5.122031
  H      0.929174   -6.011469   -4.647155
  H     -1.888918   -5.483564   -5.695711
  H     -2.725335   -6.536301   -4.558359
  H     -1.217958   -7.075086   -5.300745
  H     -0.181755   -6.237462   -1.815022
  H     -0.254170   -7.493513   -3.035316
  H     -1.735523   -6.971273   -2.251291
  C     -5.011352    2.264896   -4.083701
  C     -4.573562    3.597304   -3.442407
  N     -4.758685    1.240963   -3.075051
  C     -4.323590    2.078583   -5.430546
  C     -6.526810    2.304157   -4.276374
  N     -3.151847    3.638003   -3.226251
  H     -5.145977    3.741657   -2.517666
  H     -4.836858    4.399891   -4.135040
  H     -6.811855    3.118895   -4.940958
  H     -7.031382    2.434459   -3.321664
  H     -6.872100    1.369658   -4.715368
  H     -4.601711    2.892482   -6.097389
  H     -4.629008    1.147662   -5.906761
  H     -3.241528    2.091988   -5.335014
  C      5.241790    2.193976   -3.726443
  C      4.159448    3.178770   -4.213697
  N      4.532878    0.961128   -3.398236
  C      6.061819    2.826635   -2.608702
  C      6.150126    1.861467   -4.909443
  N      3.259974    3.544106   -3.151829
  H      3.642206    2.729801   -5.070874
  H      4.667164    4.082850   -4.557540
  H      6.923365    1.159451   -4.601832
  H      6.636647    2.760163   -5.286941
  H      5.580137    1.403937   -5.715014
  H      6.549750    3.725740   -2.979953
  H      6.842806    2.152824   -2.258502
  H      5.439225    3.118763   -1.767817

 Total Charge           Charge          ....    0
 Multiplicity           Mult            ....    1
 Number of Electrons    NEL             ....  516
 Basis Dimension        Dim             .... 3168

ORBITAL ENERGIES
----------------

  NO   OCC          E(Eh)            E(eV)
   0   2.0000     -15.552249      -423.1982
   1   2.0000     -15.552120      -423.1947
   2   2.0000     -15.552082      -423.1937
   3   2.0000     -15.551822      -423.1866
   4   2.0000     -15.551557      -423.1794
   5   2.0000     -15.550980      -423.1637
   6   2.0000     -15.549615      -423.1265
   7   2.0000     -15.548881      -423.1066
   8   2.0000     -15.548719      -423.1022
   9   2.0000     -15.548255      -423.0895
  10   2.0000     -15.548248      -423.0893
  11   2.0000     -15.548027      -423.0833
  12   2.0000     -11.278912      -306.9148
  13   2.0000     -11.278725      -306.9097
  14   2.0000     -11.278686      -306.9086
  15   2.0000     -11.278571      -306.9055
  16   2.0000     -11.278287      -306.8978
  17   2.0000     -11.277831      -306.8854
  18   2.0000     -11.275261      -306.8154
  19   2.0000     -11.274744      -306.8014
  20   2.0000     -11.274497      -306.7946
  21   2.0000     -11.274281      -306.7888
  22   2.0000     -11.274240      -306.7877
  23   2.0000     -11.274044      -306.7823
  24   2.0000     -11.261958      -306.4534
  25   2.0000     -11.261576      -306.4431
  26   2.0000     -11.261371      -306.4375
  27   2.0000     -11.261262      -306.4345
  28   2.0000     -11.261203      -306.4329
  29   2.0000     -11.260904      -306.4248
  30   2.0000     -11.246479      -306.0323
  31   2.0000     -11.246234      -306.0256
  32   2.0000     -11.246185      -306.0243
  33   2.0000     -11.246184      -306.0242
  34   2.0000     -11.246098      -306.0219
  35   2.0000     -11.245845      -306.0150
  36   2.0000     -11.245771      -306.0130
  37   2.0000     -11.245684      -306.0106
  38   2.0000     -11.245586      -306.0079
  39   2.0000     -11.245078      -305.9941
  40   2.0000     -11.244644      -305.9823
  41   2.0000     -11.244192      -305.9700
  42   2.0000     -11.243808      -305.9596
  43   2.0000     -11.243758      -305.9582
  44   2.0000     -11.243556      -305.9527
  45   2.0000     -11.243298      -305.9457
  46   2.0000     -11.242966      -305.9366
  47   2.0000     -11.242801      -305.9322
  48   2.0000     -11.242691      -305.9292
  49   2.0000     -11.242583      -305.9262
  50   2.0000     -11.241993      -305.9102
  51   2.0000     -11.241855      -305.9064
  52   2.0000     -11.241459      -305.8957
  53   2.0000     -11.241339      -305.8924
  54   2.0000     -11.241293      -305.8911
  55   2.0000     -11.241100      -305.8859
  56   2.0000     -11.240475      -305.8689
  57   2.0000     -11.239868      -305.8524
  58   2.0000     -11.239832      -305.8514
  59   2.0000     -11.239278      -305.8363
  60   2.0000     -11.209607      -305.0289
  61   2.0000     -11.209255      -305.0193
  62   2.0000     -11.209130      -305.0159
  63   2.0000     -11.209024      -305.0130
  64   2.0000     -11.208955      -305.0112
  65   2.0000     -11.208786      -305.0066
  66   2.0000     -11.208702      -305.0043
  67   2.0000     -11.208495      -304.9987
  68   2.0000     -11.208332      -304.9942
  69   2.0000     -11.208256      -304.9922
  70   2.0000     -11.208255      -304.9921
  71   2.0000     -11.208025      -304.9859
  72   2.0000      -1.251997       -34.0686
  73   2.0000      -1.250255       -34.0212
  74   2.0000      -1.250122       -34.0175
  75   2.0000      -1.249946       -34.0128
  76   2.0000      -1.248899       -33.9843
  77   2.0000      -1.248656       -33.9777
  78   2.0000      -1.227102       -33.3912
  79   2.0000      -1.226595       -33.3773
  80   2.0000      -1.226081       -33.3634
  81   2.0000      -1.222298       -33.2604
  82   2.0000      -1.221953       -33.2510
  83   2.0000      -1.221602       -33.2415
  84   2.0000      -1.169460       -31.8226
  85   2.0000      -1.163145       -31.6508
  86   2.0000      -1.162694       -31.6385
  87   2.0000      -1.162132       -31.6232
  88   2.0000      -1.088370       -29.6160
  89   2.0000      -1.088225       -29.6121
  90   2.0000      -1.084952       -29.5231
  91   2.0000      -1.082221       -29.4487
  92   2.0000      -1.078311       -29.3423
  93   2.0000      -1.062509       -28.9123
  94   2.0000      -1.050204       -28.5775
  95   2.0000      -1.049726       -28.5645
  96   2.0000      -1.048602       -28.5339
  97   2.0000      -1.034539       -28.1512
  98   2.0000      -1.030100       -28.0305
  99   2.0000      -1.024301       -27.8727
 100   2.0000      -1.022548       -27.8250
 101   2.0000      -1.022198       -27.8154
 102   2.0000      -0.946520       -25.7561
 103   2.0000      -0.944185       -25.6926
 104   2.0000      -0.942461       -25.6457
 105   2.0000      -0.941724       -25.6256
 106   2.0000      -0.940927       -25.6039
 107   2.0000      -0.940727       -25.5985
 108   2.0000      -0.939186       -25.5565
 109   2.0000      -0.938725       -25.5440
 110   2.0000      -0.938165       -25.5288
 111   2.0000      -0.937832       -25.5197
 112   2.0000      -0.937441       -25.5091
 113   2.0000      -0.937162       -25.5015
 114   2.0000      -0.889352       -24.2005
 115   2.0000      -0.888735       -24.1837
 116   2.0000      -0.888413       -24.1749
 117   2.0000      -0.886671       -24.1276
 118   2.0000      -0.882267       -24.0077
 119   2.0000      -0.875421       -23.8214
 120   2.0000      -0.863270       -23.4908
 121   2.0000      -0.862755       -23.4767
 122   2.0000      -0.858386       -23.3579
 123   2.0000      -0.847274       -23.0555
 124   2.0000      -0.839629       -22.8475
 125   2.0000      -0.824698       -22.4412
 126   2.0000      -0.794418       -21.6172
 127   2.0000      -0.793169       -21.5832
 128   2.0000      -0.792795       -21.5730
 129   2.0000      -0.779790       -21.2192
 130   2.0000      -0.770605       -20.9692
 131   2.0000      -0.758911       -20.6510
 132   2.0000      -0.746427       -20.3113
 133   2.0000      -0.745289       -20.2803
 134   2.0000      -0.744074       -20.2473
 135   2.0000      -0.732262       -19.9259
 136   2.0000      -0.725338       -19.7374
 137   2.0000      -0.717422       -19.5221
 138   2.0000      -0.715471       -19.4690
 139   2.0000      -0.713828       -19.4243
 140   2.0000      -0.708183       -19.2706
 141   2.0000      -0.702217       -19.1083
 142   2.0000      -0.700178       -19.0528
 143   2.0000      -0.697889       -18.9905
 144   2.0000      -0.685563       -18.6551
 145   2.0000      -0.680420       -18.5152
 146   2.0000      -0.678474       -18.4622
 147   2.0000      -0.677084       -18.4244
 148   2.0000      -0.666395       -18.1335
 149   2.0000      -0.665917       -18.1205
 150   2.0000      -0.663500       -18.0547
 151   2.0000      -0.657426       -17.8895
 152   2.0000      -0.653503       -17.7827
 153   2.0000      -0.651310       -17.7230
 154   2.0000      -0.649724       -17.6799
 155   2.0000      -0.647920       -17.6308
 156   2.0000      -0.643298       -17.5050
 157   2.0000      -0.641369       -17.4525
 158   2.0000      -0.640475       -17.4282
 159   2.0000      -0.637035       -17.3346
 160   2.0000      -0.624602       -16.9963
 161   2.0000      -0.624379       -16.9902
 162   2.0000      -0.624316       -16.9885
 163   2.0000      -0.623303       -16.9609
 164   2.0000      -0.622768       -16.9464
 165   2.0000      -0.614799       -16.7295
 166   2.0000      -0.614018       -16.7083
 167   2.0000      -0.613538       -16.6952
 168   2.0000      -0.612991       -16.6803
 169   2.0000      -0.607956       -16.5433
 170   2.0000      -0.604464       -16.4483
 171   2.0000      -0.603423       -16.4200
 172   2.0000      -0.602231       -16.3875
 173   2.0000      -0.598446       -16.2846
 174   2.0000      -0.598098       -16.2751
 175   2.0000      -0.597941       -16.2708
 176   2.0000      -0.594984       -16.1903
 177   2.0000      -0.592872       -16.1329
 178   2.0000      -0.560350       -15.2479
 179   2.0000      -0.559942       -15.2368
 180   2.0000      -0.558872       -15.2077
 181   2.0000      -0.558588       -15.2000
 182   2.0000      -0.558571       -15.1995
 183   2.0000      -0.558062       -15.1856
 184   2.0000      -0.548168       -14.9164
 185   2.0000      -0.547892       -14.9089
 186   2.0000      -0.547042       -14.8858
 187   2.0000      -0.546409       -14.8685
 188   2.0000      -0.545805       -14.8521
 189   2.0000      -0.543919       -14.8008
 190   2.0000      -0.541337       -14.7305
 191   2.0000      -0.540618       -14.7110
 192   2.0000      -0.539680       -14.6854
 193   2.0000      -0.536135       -14.5890
 194   2.0000      -0.535738       -14.5782
 195   2.0000      -0.535353       -14.5677
 196   2.0000      -0.534279       -14.5385
 197   2.0000      -0.532544       -14.4913
 198   2.0000      -0.532319       -14.4851
 199   2.0000      -0.531580       -14.4650
 200   2.0000      -0.530505       -14.4358
 201   2.0000      -0.530069       -14.4239
 202   2.0000      -0.529145       -14.3988
 203   2.0000      -0.528504       -14.3813
 204   2.0000      -0.526058       -14.3148
 205   2.0000      -0.523981       -14.2583
 206   2.0000      -0.518692       -14.1143
 207   2.0000      -0.518300       -14.1037
 208   2.0000      -0.516519       -14.0552
 209   2.0000      -0.512039       -13.9333
 210   2.0000      -0.510852       -13.9010
 211   2.0000      -0.507497       -13.8097
 212   2.0000      -0.505721       -13.7614
 213   2.0000      -0.505305       -13.7501
 214   2.0000      -0.494698       -13.4614
 215   2.0000      -0.491953       -13.3867
 216   2.0000      -0.489166       -13.3109
 217   2.0000      -0.488821       -13.3015
 218   2.0000      -0.487484       -13.2651
 219   2.0000      -0.486837       -13.2475
 220   2.0000      -0.483156       -13.1473
 221   2.0000      -0.480825       -13.0839
 222   2.0000      -0.480451       -13.0737
 223   2.0000      -0.479203       -13.0398
 224   2.0000      -0.476973       -12.9791
 225   2.0000      -0.476496       -12.9661
 226   2.0000      -0.455964       -12.4074
 227   2.0000      -0.455596       -12.3974
 228   2.0000      -0.455350       -12.3907
 229   2.0000      -0.445333       -12.1181
 230   2.0000      -0.444608       -12.0984
 231   2.0000      -0.444108       -12.0848
 232   2.0000      -0.437268       -11.8987
 233   2.0000      -0.437238       -11.8978
 234   2.0000      -0.409140       -11.1333
 235   2.0000      -0.407730       -11.0949
 236   2.0000      -0.406164       -11.0523
 237   2.0000      -0.405008       -11.0208
 238   2.0000      -0.404770       -11.0144
 239   2.0000      -0.404078       -10.9955
 240   2.0000      -0.400240       -10.8911
 241   2.0000      -0.398808       -10.8521
 242   2.0000      -0.398369       -10.8402
 243   2.0000      -0.397793       -10.8245
 244   2.0000      -0.396624       -10.7927
 245   2.0000      -0.395868       -10.7721
 246   2.0000      -0.395733       -10.7684
 247   2.0000      -0.395146       -10.7525
 248   2.0000      -0.394924       -10.7464
 249   2.0000      -0.387927       -10.5560
 250   2.0000      -0.322642        -8.7795
 251   2.0000      -0.322321        -8.7708
 252   2.0000      -0.321620        -8.7517
 253   2.0000      -0.320364        -8.7175
 254   2.0000      -0.319775        -8.7015
 255   2.0000      -0.319064        -8.6822
 256   2.0000      -0.317903        -8.6506
 257   2.0000      -0.317667        -8.6442
 258   0.0000       0.075259         2.0479
 259   0.0000       0.075906         2.0655
 260   0.0000       0.076819         2.0904
 261   0.0000       0.079530         2.1641
 262   0.0000       0.080763         2.1977

MULLIKEN ATOMIC CHARGES
-----------------------
   0 C :    0.164828
   1 C :   -0.096982
   2 C :   -0.199471
   3 C :    0.165644
   4 H :    0.151070
   5 C :   -0.199991
   6 C :    0.164586
   7 H :    0.150948
   8 C :   -0.199683
   9 C :   -0.096964
  10 H :    0.151066
  11 C :   -0.098022
  12 H :    0.100083
  13 H :    0.100119
  14 H :    0.100298
  15 C :    0.156219
  16 C :   -0.084404
  17 C :   -0.201332
  18 C :    0.163507
  19 H :    0.162581
  20 C :   -0.197357
  21 C :    0.166166
  22 H :    0.151326
  23 C :   -0.197967
  24 C :   -0.099931
  25 H :    0.154073
  26 C :   -0.100438
  27 H :    0.099919
  28 H :    0.086644
  29 H :    0.098769
  30 C :    0.154862
  31 C :   -0.087496
  32 C :   -0.198802
  33 C :    0.163200
  34 H :    0.162769
  35 C :   -0.195265
  36 C :    0.156422
  37 H :    0.154473
  38 C :   -0.198958
  39 C :   -0.086721
  40 H :    0.165464
  41 C :   -0.101942
  42 H :    0.086638
  43 H :    0.085638
  44 H :    0.098457
  45 C :    0.154820
  46 C :   -0.089497
  47 C :   -0.196450
  48 C :    0.155828
  49 H :    0.165812
  50 C :   -0.196852
  51 C :    0.155900
  52 H :    0.165734
  53 C :   -0.196952
  54 C :   -0.090638
  55 H :    0.165672
  56 C :   -0.090353
  57 H :    0.085841
  58 H :    0.085519
  59 H :    0.085742
  60 C :    0.175130
  61 C :   -0.024130
  62 N :   -0.284687
  63 C :   -0.354471
  64 C :   -0.297929
  65 N :   -0.266459
  66 H :    0.072013
  67 H :    0.104552
  68 H :    0.103185
  69 H :    0.090564
  70 H :    0.104833
  71 H :    0.118322
  72 H :    0.112752
  73 H :    0.104646
  74 C :    0.174331
  75 C :   -0.024741
  76 N :   -0.284725
  77 C :   -0.354123
  78 C :   -0.297863
  79 N :   -0.265908
  80 H :    0.072337
  81 H :    0.104948
  82 H :    0.103264
  83 H :    0.090767
  84 H :    0.104970
  85 H :    0.112825
  86 H :    0.104645
  87 H :    0.118199
  88 C :    0.173942
  89 C :   -0.024431
  90 N :   -0.284576
  91 C :   -0.354186
  92 C :   -0.297693
  93 N :   -0.264814
  94 H :    0.072521
  95 H :    0.105142
  96 H :    0.090724
  97 H :    0.105000
  98 H :    0.103225
  99 H :    0.104682
 100 H :    0.118279
 101 H :    0.112926
 102 C :    0.174327
 103 C :   -0.023711
 104 N :   -0.283961
 105 C :   -0.354612
 106 C :   -0.297630
 107 N :   -0.265306
 108 H :    0.072464
 109 H :    0.104781
 110 H :    0.104992
 111 H :    0.103153
 112 H :    0.090581
 113 H :    0.118314
 114 H :    0.113178
 115 H :    0.104877
 116 C :    0.173744
 117 C :   -0.024600
 118 N :   -0.283285
 119 C :   -0.354213
 120 C :   -0.297461
 121 N :   -0.264769
 122 H :    0.072633
 123 H :    0.105265
 124 H :    0.090826
 125 H :    0.105244
 126 H :    0.103222
 127 H :    0.113069
 128 H :    0.104635
 129 H :    0.118455
 130 C :    0.173647
 131 C :   -0.024569
 132 N :   -0.282899
 133 C :   -0.354428
 134 C :   -0.297530
 135 N :   -0.264824
 136 H :    0.072737
 137 H :    0.105295
 138 H :    0.103222
 139 H :    0.090867
 140 H :    0.105375
 141 H :    0.113429
 142 H :    0.104872
 143 H :    0.118436
Sum of atomic charges:   -0.0000000

LOEWDIN ATOMIC CHARGES
----------------------
   0 C :   -0.074705
   1 C :   -0.069355
   2 C :    0.089470
   3 C :   -0.074955
   4 H :   -0.021462
   5 C :    0.089266
   6 C :   -0.074803
   7 H :   -0.021526
   8 C :    0.089410
   9 C :   -0.069465
  10 H :   -0.021481
  11 C :   -0.069496
  12 H :   -0.033296
  13 H :   -0.033290
  14 H :   -0.033247
  15 C :   -0.075801
  16 C :   -0.069031
  17 C :    0.089826
  18 C :   -0.074682
  19 H :   -0.020299
  20 C :    0.090466
  21 C :   -0.074179
  22 H :   -0.021121
  23 C :    0.091192
  24 C :   -0.070025
  25 H :   -0.020781
  26 C :   -0.069815
  27 H :   -0.033370
  28 H :   -0.034204
  29 H :   -0.033176
  30 C :   -0.075537
  31 C :   -0.069425
  32 C :    0.090867
  33 C :   -0.073988
  34 H :   -0.019969
  35 C :    0.092209
  36 C :   -0.075080
  37 H :   -0.020459
  38 C :    0.091578
  39 C :   -0.069511
  40 H :   -0.019602
  41 C :   -0.070375
  42 H :   -0.034194
  43 H :   -0.034023
  44 H :   -0.033283
  45 C :   -0.074904
  46 C :   -0.069758
  47 C :    0.092627
  48 C :   -0.074993
  49 H :   -0.019311
  50 C :    0.092483
  51 C :   -0.074993
  52 H :   -0.019339
  53 C :    0.092458
  54 C :   -0.069783
  55 H :   -0.019375
  56 C :   -0.069834
  57 H :   -0.034011
  58 H :   -0.034061
  59 H :   -0.033999
  60 C :   -0.207441
  61 C :   -0.035467
  62 N :    0.235051
  63 C :    0.111313
  64 C :    0.118386
  65 N :    0.221386
  66 H :   -0.034405
  67 H :   -0.025642
  68 H :   -0.027496
  69 H :   -0.028846
  70 H :   -0.027469
  71 H :   -0.032056
  72 H :   -0.022605
  73 H :   -0.030511
  74 C :   -0.207304
  75 C :   -0.035190
  76 N :    0.234789
  77 C :    0.111233
  78 C :    0.118415
  79 N :    0.221515
  80 H :   -0.034354
  81 H :   -0.025674
  82 H :   -0.027463
  83 H :   -0.028839
  84 H :   -0.027421
  85 H :   -0.022518
  86 H :   -0.030591
  87 H :   -0.032039
  88 C :   -0.207450
  89 C :   -0.034788
  90 N :    0.234679
  91 C :    0.111259
  92 C :    0.118406
  93 N :    0.221883
  94 H :   -0.034283
  95 H :   -0.025638
  96 H :   -0.028850
  97 H :   -0.027440
  98 H :   -0.027352
  99 H :   -0.030563
 100 H :   -0.032103
 101 H :   -0.022480
 102 C :   -0.207390
 103 C :   -0.034767
 104 N :    0.234899
 105 C :    0.111248
 106 C :    0.118403
 107 N :    0.221318
 108 H :   -0.034321
 109 H :   -0.025543
 110 H :   -0.027488
 111 H :   -0.027317
 112 H :   -0.028711
 113 H :   -0.032196
 114 H :   -0.022467
 115 H :   -0.030449
 116 C :   -0.207137
 117 C :   -0.034809
 118 N :    0.234928
 119 C :    0.111262
 120 C :    0.118466
 121 N :    0.221719
 122 H :   -0.034243
 123 H :   -0.025660
 124 H :   -0.028753
 125 H :   -0.027343
 126 H :   -0.027311
 127 H :   -0.022350
 128 H :   -0.030705
 129 H :   -0.032097
 130 C :   -0.206903
 131 C :   -0.034778
 132 N :    0.234811
 133 C :    0.111234
 134 C :    0.118528
 135 N :    0.221435
 136 H :   -0.034213
 137 H :   -0.025581
 138 H :   -0.027292
 139 H :   -0.028570
 140 H :   -0.027347
 141 H :   -0.022224
 142 H :   -0.030683
 143 H :   -0.032124

  Mayer bond orders larger than 0.100000
B(  0-C ,  1-C ) :   1.0107 B(  0-C ,  2-C ) :   1.2952 B(  0-C ,  8-C ) :   1.4015
B(  1-C , 13-H ) :   0.9858 B(  1-C , 62-N ) :   1.9657 B(  2-C ,  3-C ) :   1.4012
B(  2-C ,  4-H ) :   0.9650 B(  3-C ,  5-C ) :   1.2950 B(  3-C , 11-C ) :   1.0106
B(  5-C ,  6-C ) :   1.4016 B(  5-C ,  7-H ) :   0.9651 B(  6-C ,  8-C ) :   1.2952
B(  6-C ,  9-C ) :   1.0109 B(  8-C , 10-H ) :   0.9651 B(  9-C , 12-H ) :   0.9860
B(  9-C , 76-N ) :   1.9653 B( 11-C , 14-H ) :   0.9859 B( 11-C , 90-N ) :   1.9652
B( 15-C , 16-C ) :   0.9983 B( 15-C , 17-C ) :   1.3005 B( 15-C , 23-C ) :   1.3949
B( 16-C , 28-H ) :   0.9926 B( 16-C , 65-N ) :   1.9908 B( 17-C , 18-C ) :   1.4025
B( 17-C , 19-H ) :   0.9627 B( 18-C , 20-C ) :   1.2958 B( 18-C , 26-C ) :   1.0103
B( 20-C , 21-C ) :   1.4008 B( 20-C , 22-H ) :   0.9649 B( 21-C , 23-C ) :   1.2972
B( 21-C , 24-C ) :   1.0094 B( 23-C , 25-H ) :   0.9651 B( 24-C , 27-H ) :   0.9866
B( 24-C ,118-N ) :   1.9693 B( 26-C , 29-H ) :   0.9872 B( 26-C ,104-N ) :   1.9656
B( 30-C , 31-C ) :   0.9977 B( 30-C , 32-C ) :   1.3010 B( 30-C , 38-C ) :   1.3955
B( 31-C , 43-H ) :   0.9938 B( 31-C , 79-N ) :   1.9898 B( 32-C , 33-C ) :   1.4018
B( 32-C , 34-H ) :   0.9626 B( 33-C , 35-C ) :   1.2981 B( 33-C , 41-C ) :   1.0095
B( 35-C , 36-C ) :   1.3944 B( 35-C , 37-H ) :   0.9649 B( 36-C , 38-C ) :   1.3032
B( 36-C , 39-C ) :   0.9969 B( 38-C , 40-H ) :   0.9628 B( 39-C , 42-H ) :   0.9930
B( 39-C ,107-N ) :   1.9936 B( 41-C , 44-H ) :   0.9879 B( 41-C ,132-N ) :   1.9695
B( 45-C , 46-C ) :   0.9964 B( 45-C , 47-C ) :   1.3039 B( 45-C , 53-C ) :   1.3949
B( 46-C , 58-H ) :   0.9941 B( 46-C , 93-N ) :   1.9929 B( 47-C , 48-C ) :   1.3948
B( 47-C , 49-H ) :   0.9626 B( 48-C , 50-C ) :   1.3037 B( 48-C , 56-C ) :   0.9961
B( 50-C , 51-C ) :   1.3947 B( 50-C , 52-H ) :   0.9628 B( 51-C , 53-C ) :   1.3037
B( 51-C , 54-C ) :   0.9961 B( 53-C , 55-H ) :   0.9627 B( 54-C , 57-H ) :   0.9941
B( 54-C ,135-N ) :   1.9923 B( 56-C , 59-H ) :   0.9942 B( 56-C ,121-N ) :   1.9926
B( 60-C , 61-C ) :   0.9373 B( 60-C , 62-N ) :   0.9404 B( 60-C , 63-C ) :   0.9521
B( 60-C , 64-C ) :   0.9523 B( 61-C , 65-N ) :   0.9750 B( 61-C , 66-H ) :   0.9828
B( 61-C , 67-H ) :   0.9815 B( 63-C , 71-H ) :   0.9758 B( 63-C , 72-H ) :   0.9805
B( 63-C , 73-H ) :   0.9854 B( 64-C , 68-H ) :   0.9821 B( 64-C , 69-H ) :   0.9799
B( 64-C , 70-H ) :   0.9845 B( 74-C , 75-C ) :   0.9371 B( 74-C , 76-N ) :   0.9405
B( 74-C , 77-C ) :   0.9521 B( 74-C , 78-C ) :   0.9523 B( 75-C , 79-N ) :   0.9741
B( 75-C , 80-H ) :   0.9830 B( 75-C , 81-H ) :   0.9819 B( 77-C , 85-H ) :   0.9805
B( 77-C , 86-H ) :   0.9854 B( 77-C , 87-H ) :   0.9758 B( 78-C , 82-H ) :   0.9820
B( 78-C , 83-H ) :   0.9798 B( 78-C , 84-H ) :   0.9844 B( 88-C , 89-C ) :   0.9373
B( 88-C , 90-N ) :   0.9403 B( 88-C , 91-C ) :   0.9522 B( 88-C , 92-C ) :   0.9525
B( 89-C , 93-N ) :   0.9734 B( 89-C , 94-H ) :   0.9830 B( 89-C , 95-H ) :   0.9817
B( 91-C , 99-H ) :   0.9854 B( 91-C ,100-H ) :   0.9757 B( 91-C ,101-H ) :   0.9805
B( 92-C , 96-H ) :   0.9798 B( 92-C , 97-H ) :   0.9843 B( 92-C , 98-H ) :   0.9821
B(102-C ,103-C ) :   0.9374 B(102-C ,104-N ) :   0.9397 B(102-C ,105-C ) :   0.9523
B(102-C ,106-C ) :   0.9526 B(103-C ,107-N ) :   0.9741 B(103-C ,108-H ) :   0.9827
B(103-C ,109-H ) :   0.9815 B(105-C ,113-H ) :   0.9756 B(105-C ,114-H ) :   0.9805
B(105-C ,115-H ) :   0.9854 B(106-C ,110-H ) :   0.9843 B(106-C ,111-H ) :   0.9822
B(106-C ,112-H ) :   0.9800 B(116-C ,117-C ) :   0.9372 B(116-C ,118-N ) :   0.9396
B(116-C ,119-C ) :   0.9522 B(116-C ,120-C ) :   0.9526 B(117-C ,121-N ) :   0.9732
B(117-C ,122-H ) :   0.9831 B(117-C ,123-H ) :   0.9820 B(119-C ,127-H ) :   0.9805
B(119-C ,128-H ) :   0.9853 B(119-C ,129-H ) :   0.9756 B(120-C ,124-H ) :   0.9797
B(120-C ,125-H ) :   0.9842 B(120-C ,126-H ) :   0.9821 B(130-C ,131-C ) :   0.9371
B(130-C ,132-N ) :   0.9392 B(130-C ,133-C ) :   0.9523 B(130-C ,134-C ) :   0.9526
B(131-C ,135-N ) :   0.9733 B(131-C ,136-H ) :   0.9830 B(131-C ,137-H ) :   0.9820
B(133-C ,141-H ) :   0.9804 B(133-C ,142-H ) :   0.9853 B(133-C ,143-H ) :   0.9756
B(134-C ,138-H ) :   0.9821 B(134-C ,139-H ) :   0.9798 B(134-C ,140-H ) :   0.9841

MP2 TOTAL ENERGY:    -2980.446329058 Eh
FINAL SINGLE POINT ENERGY     -2980.446329057640

DIPOLE MOMENT
-------------
                                X             Y             Z
Electronic contribution:      0.31511       5.38174      -7.29427
Nuclear contribution   :     -0.28538      -5.39579       7.28710
                        -----------------------------------------
Total Dipole Moment    :      0.02973      -0.01405      -0.00717
                        -----------------------------------------
Magnitude (a.u.)       :      0.03366
Magnitude (Debye)      :      0.08556

Rotational constants in cm-1:     0.000781     0.000757     0.000734
Rotational constants in MHz :    23.428576    22.692023    22.003738

                             ****ORCA TERMINATED NORMALLY****
TOTAL RUN TIME: 0 days 5 hours 51 minutes 50 seconds 109 msec
