                         Program Version 4.2.1 -  RELEASE  -
|  1> ! RI-MP2 cc-pVTZ cc-pVTZ/C TIGHTSCF printbasis Grid6 NOFINALGRID SlowConv
|  2>
|  3> %base "_o_4_alde1_6_ami3_1_opt_MP2"
|  4> %maxcore 3000
|  5> %pal
|  6>    nprocs 32
|  7> end
|  8>
|  9> * xyzfile 0 1 _o_4_alde1_6_ami3_1_opt_B97-3c.xyz
| 10>
| 11>                          ****END OF INPUT****

CARTESIAN COORDINATES (ANGSTROEM)
---------------------------------
  C     -1.350400   -0.383948    4.215596
  C     -2.756809   -0.779722    4.252604
  C     -1.022797    0.963569    4.206883
  C      0.314324    1.374816    4.215559
  H     -1.796873    1.719460    4.207687
  C      1.317489    0.417271    4.220806
  C      1.005000   -0.946354    4.229439
  H      2.359101    0.709616    4.232707
  C     -0.325768   -1.336424    4.220795
  C      2.050837   -1.966028    4.280208
  H     -0.593517   -2.384636    4.232431
  C      0.674102    2.790892    4.252122
  H      1.697549   -3.004666    4.219597
  H     -3.478901    0.045463    4.182814
  H      1.750412    3.003752    4.193191
  C     -3.650809   -2.506417   -0.118385
  C     -3.915083   -3.072520    1.202811
  C     -2.865503   -3.213784   -1.016231
  C     -2.629352   -2.720218   -2.303719
  H     -2.434031   -4.166719   -0.740018
  C     -3.181079   -1.503062   -2.674289
  C     -3.975757   -0.776247   -1.781342
  H     -3.017602   -1.102324   -3.665887
  C     -4.199421   -1.280129   -0.508791
  C     -4.600965    0.485300   -2.173378
  H     -4.814326   -0.739411    0.198394
  C     -1.841326   -3.476022   -3.275243
  H     -5.150742    1.004631   -1.376365
  H     -3.385047   -4.008560    1.426804
  H     -1.664855   -2.968466   -4.233623
  C      4.002702   -1.924186   -0.088177
  C      4.621534   -1.855156    1.234011
  C      4.225225   -0.900466   -0.996851
  C      3.683320   -0.957064   -2.285283
  H      4.834046   -0.047318   -0.728443
  C      2.906069   -2.047474   -2.645954
  C      2.671340   -3.089068   -1.741974
  H      2.480033   -2.117281   -3.638023
  C      3.216019   -3.016676   -0.468622
  C      1.892051   -4.265386   -2.122860
  H      3.053266   -3.811584    0.247074
  C      3.946263    0.092681   -3.267579
  H      1.715553   -4.992592   -1.318346
  H      5.166331   -0.925537    1.449141
  H      3.420920   -0.018721   -4.226147
  C     -0.327958    4.412724   -0.136931
  C     -0.700117    4.928869    1.178751
  C     -1.323635    4.082925   -1.044153
  C     -1.000649    3.627356   -2.326783
  H     -2.367507    4.186312   -0.779214
  C      0.333119    3.495673   -2.682962
  C      1.350355    3.823759   -1.780363
  H      0.608894    3.150304   -3.670508
  C      1.012364    4.273836   -0.512866
  C      2.759640    3.733035   -2.156849
  H      1.780592    4.538789    0.201427
  C     -2.038825    3.319311   -3.308226
  H      3.475586    3.952858   -1.352887
  H     -1.778105    4.938830    1.391125
  H     -1.677362    2.909978   -4.261654
  C     -4.548501   -2.259596    4.439882
  C     -4.927818   -3.210158    3.297691
  N     -3.132955   -1.985288    4.378302
  N     -4.714376   -2.544230    2.035133
  C     -6.392958   -3.623556    3.405409
  H     -4.295073   -4.104801    3.394909
  C     -6.712875   -4.240850    4.756776
  H     -6.618063   -4.318716    2.596000
  H     -7.014407   -2.741433    3.238136
  C     -6.339249   -3.296409    5.888215
  H     -6.159520   -5.177156    4.871677
  H     -7.772005   -4.499431    4.805211
  C     -4.879672   -2.884082    5.792534
  H     -6.530622   -3.761511    6.856733
  H     -6.974757   -2.407662    5.840102
  H     -4.233380   -3.751729    5.940218
  H     -4.623771   -2.170587    6.576452
  H     -5.143910   -1.343400    4.312566
  C      4.227817   -2.775844    4.480882
  C      5.242639   -2.640140    3.339073
  N      3.282606   -1.687692    4.406572
  N      4.561796   -2.802199    2.076768
  C      6.334153   -3.699978    3.459407
  H      5.699801   -1.643396    3.426549
  C      7.026095   -3.654448    4.811654
  H      7.050107   -3.554671    2.649858
  H      5.882234   -4.681302    3.300999
  C      6.019291   -3.792954    5.942483
  H      7.559468   -2.705644    4.918301
  H      7.780098   -4.441293    4.869269
  C      4.931663   -2.736997    5.834533
  H      6.515812   -3.716377    6.911287
  H      5.568368   -4.788533    5.903068
  H      5.358647   -1.741680    5.973633
  H      4.184425   -2.865340    6.618280
  H      3.732157   -3.750740    4.362282
  C      0.285731    5.083034    4.426672
  C     -0.335612    5.881974    3.274407
  N     -0.183475    3.719576    4.365391
  N      0.148061    5.359374    2.018966
  C      0.037260    7.358120    3.379882
  H     -1.427718    5.781331    3.360012
  C     -0.351661    7.949447    4.724710
  H     -0.443921    7.897034    2.563103
  H      1.113557    7.455103    3.223346
  C      0.267297    7.158402    5.866110
  H     -1.440362    7.939025    4.828114
  H     -0.046448    8.996146    4.772000
  C     -0.104109    5.687706    5.772645
  H     -0.050277    7.560660    6.829599
  H      1.355165    7.264400    5.829298
  H     -1.180108    5.562058    5.909639
  H      0.377641    5.112936    6.564244
  H      1.378204    5.140233    4.310928
  C     -0.665809   -5.314999   -4.094869
  C      0.732034   -5.672845   -3.575038
  N     -1.403211   -4.645695   -3.050283
  N      1.461275   -4.457861   -3.301035
  C      1.497011   -6.494687   -4.608718
  H      0.596660   -6.276946   -2.665713
  C      0.733831   -7.741595   -5.023831
  H      2.471598   -6.753950   -4.193952
  H      1.688732   -5.863652   -5.478995
  C     -0.650244   -7.384795   -5.542176
  H      0.635156   -8.412949   -4.166158
  H      1.299214   -8.287790   -5.780778
  C     -1.422145   -6.571893   -4.516097
  H     -1.209455   -8.286302   -5.798124
  H     -0.551156   -6.808606   -6.466423
  H     -1.614230   -7.174582   -3.626033
  H     -2.396795   -6.276426   -4.905783
  H     -0.530549   -4.666838   -4.973335
  C     -5.224805    2.188050   -3.638615
  C     -4.210198    3.217844   -4.150658
  N     -4.540330    0.950010   -3.352809
  N     -3.273194    3.524992   -3.096842
  C     -4.915680    4.500055   -4.583408
  H     -3.707095    2.773739   -5.022320
  C     -5.994269    4.235166   -5.620703
  H     -4.168105    5.195118   -4.966946
  H     -5.351223    4.970383   -3.699426
  C     -7.000986    3.216248   -5.110753
  H     -5.534632    3.858810   -6.538941
  H     -6.492492    5.169542   -5.884691
  C     -6.307415    1.933205   -4.683664
  H     -7.747753    2.997242   -5.875832
  H     -7.543244    3.639901   -4.260719
  H     -5.847156    1.448957   -5.547386
  H     -7.024003    1.220194   -4.274763
  H     -5.690247    2.610398   -2.735787
  C      4.952553    2.021578   -4.105469
  C      4.562181    3.416346   -3.601062
  N      4.739400    1.059494   -3.051010
  N      3.144674    3.443078   -3.330894
  C      4.893926    4.479333   -4.644694
  H      5.150706    3.610570   -2.692165
  C      6.356272    4.437419   -5.056080
  H      4.630565    5.457131   -4.240155
  H      4.253558    4.321578   -5.514962
  C      6.740294    3.055162   -5.559578
  H      6.985087    4.696252   -4.199534
  H      6.548492    5.192437   -5.820245
  C      6.420087    1.990709   -4.523301
  H      7.801161    3.018946   -5.812945
  H      6.193663    2.843414   -6.482848
  H      7.036290    2.134485   -3.633385
  H      6.652226    0.995026   -4.902548
  H      4.325442    1.805128   -4.982979

 Total Charge           Charge          ....    0
 Multiplicity           Mult            ....    1
 Number of Electrons    NEL             ....  600
 Basis Dimension        Dim             .... 3696

ORBITAL ENERGIES
----------------

  NO   OCC          E(Eh)            E(eV)
   0   2.0000     -15.548643      -423.1001
   1   2.0000     -15.548638      -423.1000
   2   2.0000     -15.548638      -423.0999
   3   2.0000     -15.548635      -423.0999
   4   2.0000     -15.548633      -423.0998
   5   2.0000     -15.548630      -423.0997
   6   2.0000     -15.548629      -423.0997
   7   2.0000     -15.548622      -423.0995
   8   2.0000     -15.548618      -423.0994
   9   2.0000     -15.548583      -423.0984
  10   2.0000     -15.548572      -423.0982
  11   2.0000     -15.548564      -423.0979
  12   2.0000     -11.275625      -306.8253
  13   2.0000     -11.275624      -306.8253
  14   2.0000     -11.275624      -306.8253
  15   2.0000     -11.275622      -306.8253
  16   2.0000     -11.275622      -306.8253
  17   2.0000     -11.275614      -306.8251
  18   2.0000     -11.275591      -306.8244
  19   2.0000     -11.275583      -306.8242
  20   2.0000     -11.275582      -306.8242
  21   2.0000     -11.275576      -306.8240
  22   2.0000     -11.275566      -306.8238
  23   2.0000     -11.275557      -306.8235
  24   2.0000     -11.247568      -306.0619
  25   2.0000     -11.247565      -306.0618
  26   2.0000     -11.247558      -306.0616
  27   2.0000     -11.247538      -306.0611
  28   2.0000     -11.247525      -306.0607
  29   2.0000     -11.247519      -306.0605
  30   2.0000     -11.246953      -306.0452
  31   2.0000     -11.246951      -306.0451
  32   2.0000     -11.246944      -306.0449
  33   2.0000     -11.246924      -306.0444
  34   2.0000     -11.246911      -306.0440
  35   2.0000     -11.246904      -306.0438
  36   2.0000     -11.243081      -305.9398
  37   2.0000     -11.243077      -305.9397
  38   2.0000     -11.243067      -305.9394
  39   2.0000     -11.243011      -305.9379
  40   2.0000     -11.242627      -305.9274
  41   2.0000     -11.242625      -305.9274
  42   2.0000     -11.242614      -305.9271
  43   2.0000     -11.242603      -305.9268
  44   2.0000     -11.242594      -305.9265
  45   2.0000     -11.242587      -305.9263
  46   2.0000     -11.242549      -305.9253
  47   2.0000     -11.242542      -305.9251
  48   2.0000     -11.240803      -305.8778
  49   2.0000     -11.240802      -305.8778
  50   2.0000     -11.240795      -305.8776
  51   2.0000     -11.240788      -305.8774
  52   2.0000     -11.240788      -305.8774
  53   2.0000     -11.240781      -305.8772
  54   2.0000     -11.240734      -305.8759
  55   2.0000     -11.240728      -305.8757
  56   2.0000     -11.240300      -305.8641
  57   2.0000     -11.240296      -305.8640
  58   2.0000     -11.240286      -305.8637
  59   2.0000     -11.240232      -305.8623
  60   2.0000     -11.214384      -305.1589
  61   2.0000     -11.214378      -305.1587
  62   2.0000     -11.214376      -305.1587
  63   2.0000     -11.214362      -305.1583
  64   2.0000     -11.214353      -305.1581
  65   2.0000     -11.214349      -305.1580
  66   2.0000     -11.213769      -305.1422
  67   2.0000     -11.213763      -305.1420
  68   2.0000     -11.213761      -305.1420
  69   2.0000     -11.213747      -305.1416
  70   2.0000     -11.213738      -305.1413
  71   2.0000     -11.213735      -305.1412
  72   2.0000     -11.212044      -305.0952
  73   2.0000     -11.212041      -305.0951
  74   2.0000     -11.212040      -305.0951
  75   2.0000     -11.212026      -305.0947
  76   2.0000     -11.212026      -305.0947
  77   2.0000     -11.212024      -305.0947
  78   2.0000     -11.212021      -305.0946
  79   2.0000     -11.212012      -305.0943
  80   2.0000     -11.212012      -305.0943
  81   2.0000     -11.212003      -305.0941
  82   2.0000     -11.211991      -305.0938
  83   2.0000     -11.211990      -305.0938
  84   2.0000      -1.252082       -34.0709
  85   2.0000      -1.250398       -34.0250
  86   2.0000      -1.250393       -34.0249
  87   2.0000      -1.250388       -34.0248
  88   2.0000      -1.249365       -33.9970
  89   2.0000      -1.249361       -33.9968
  90   2.0000      -1.226175       -33.3659
  91   2.0000      -1.226168       -33.3657
  92   2.0000      -1.226147       -33.3651
  93   2.0000      -1.221689       -33.2438
  94   2.0000      -1.221667       -33.2433
  95   2.0000      -1.221660       -33.2431
  96   2.0000      -1.169466       -31.8228
  97   2.0000      -1.162343       -31.6290
  98   2.0000      -1.162331       -31.6286
  99   2.0000      -1.162292       -31.6276
 100   2.0000      -1.113483       -30.2994
 101   2.0000      -1.113480       -30.2993
 102   2.0000      -1.109940       -30.2030
 103   2.0000      -1.109937       -30.2029
 104   2.0000      -1.109933       -30.2028
 105   2.0000      -1.103857       -30.0375
 106   2.0000      -1.052917       -28.6513
 107   2.0000      -1.052915       -28.6513
 108   2.0000      -1.052251       -28.6332
 109   2.0000      -1.052234       -28.6327
 110   2.0000      -1.052233       -28.6327
 111   2.0000      -1.050577       -28.5877
 112   2.0000      -1.050559       -28.5872
 113   2.0000      -1.050549       -28.5869
 114   2.0000      -1.004115       -27.3234
 115   2.0000      -1.004109       -27.3232
 116   2.0000      -1.004089       -27.3227
 117   2.0000      -1.000999       -27.2386
 118   2.0000      -0.998074       -27.1590
 119   2.0000      -0.998048       -27.1583
 120   2.0000      -0.998039       -27.1580
 121   2.0000      -0.989248       -26.9188
 122   2.0000      -0.989244       -26.9187
 123   2.0000      -0.989237       -26.9185
 124   2.0000      -0.986007       -26.8306
 125   2.0000      -0.986001       -26.8304
 126   2.0000      -0.894426       -24.3386
 127   2.0000      -0.894388       -24.3375
 128   2.0000      -0.894377       -24.3372
 129   2.0000      -0.889657       -24.2088
 130   2.0000      -0.889650       -24.2086
 131   2.0000      -0.889635       -24.2082
 132   2.0000      -0.877836       -23.8871
 133   2.0000      -0.877832       -23.8870
 134   2.0000      -0.868560       -23.6347
 135   2.0000      -0.868556       -23.6346
 136   2.0000      -0.868537       -23.6341
 137   2.0000      -0.858614       -23.3641
 138   2.0000      -0.829762       -22.5790
 139   2.0000      -0.829761       -22.5789
 140   2.0000      -0.828141       -22.5349
 141   2.0000      -0.828137       -22.5348
 142   2.0000      -0.828136       -22.5347
 143   2.0000      -0.819925       -22.3113
 144   2.0000      -0.819893       -22.3104
 145   2.0000      -0.819886       -22.3102
 146   2.0000      -0.809774       -22.0351
 147   2.0000      -0.799776       -21.7630
 148   2.0000      -0.799767       -21.7628
 149   2.0000      -0.799727       -21.7617
 150   2.0000      -0.764248       -20.7963
 151   2.0000      -0.764242       -20.7961
 152   2.0000      -0.764231       -20.7958
 153   2.0000      -0.762839       -20.7579
 154   2.0000      -0.762834       -20.7578
 155   2.0000      -0.762824       -20.7575
 156   2.0000      -0.746781       -20.3210
 157   2.0000      -0.746749       -20.3201
 158   2.0000      -0.746742       -20.3199
 159   2.0000      -0.741834       -20.1863
 160   2.0000      -0.741826       -20.1861
 161   2.0000      -0.740634       -20.1537
 162   2.0000      -0.740630       -20.1536
 163   2.0000      -0.740623       -20.1534
 164   2.0000      -0.703886       -19.1537
 165   2.0000      -0.695528       -18.9263
 166   2.0000      -0.695522       -18.9261
 167   2.0000      -0.695506       -18.9257
 168   2.0000      -0.687657       -18.7121
 169   2.0000      -0.687646       -18.7118
 170   2.0000      -0.687613       -18.7109
 171   2.0000      -0.686289       -18.6749
 172   2.0000      -0.665514       -18.1095
 173   2.0000      -0.665509       -18.1094
 174   2.0000      -0.662967       -18.0402
 175   2.0000      -0.662961       -18.0401
 176   2.0000      -0.662927       -18.0392
 177   2.0000      -0.653222       -17.7751
 178   2.0000      -0.653188       -17.7742
 179   2.0000      -0.653184       -17.7740
 180   2.0000      -0.648684       -17.6516
 181   2.0000      -0.648678       -17.6514
 182   2.0000      -0.648672       -17.6513
 183   2.0000      -0.646970       -17.6049
 184   2.0000      -0.625326       -17.0160
 185   2.0000      -0.625321       -17.0158
 186   2.0000      -0.625317       -17.0157
 187   2.0000      -0.623453       -16.9650
 188   2.0000      -0.623447       -16.9649
 189   2.0000      -0.623360       -16.9625
 190   2.0000      -0.620615       -16.8878
 191   2.0000      -0.620601       -16.8874
 192   2.0000      -0.620600       -16.8874
 193   2.0000      -0.610200       -16.6044
 194   2.0000      -0.610194       -16.6042
 195   2.0000      -0.610179       -16.6038
 196   2.0000      -0.596690       -16.2368
 197   2.0000      -0.596685       -16.2366
 198   2.0000      -0.595026       -16.1915
 199   2.0000      -0.592809       -16.1312
 200   2.0000      -0.592805       -16.1310
 201   2.0000      -0.592785       -16.1305
 202   2.0000      -0.588635       -16.0176
 203   2.0000      -0.588628       -16.0174
 204   2.0000      -0.588621       -16.0172
 205   2.0000      -0.585661       -15.9367
 206   2.0000      -0.585633       -15.9359
 207   2.0000      -0.585621       -15.9355
 208   2.0000      -0.573203       -15.5977
 209   2.0000      -0.573197       -15.5975
 210   2.0000      -0.571899       -15.5622
 211   2.0000      -0.571866       -15.5613
 212   2.0000      -0.571852       -15.5609
 213   2.0000      -0.571830       -15.5603
 214   2.0000      -0.558870       -15.2076
 215   2.0000      -0.558868       -15.2076
 216   2.0000      -0.558860       -15.2074
 217   2.0000      -0.558794       -15.2056
 218   2.0000      -0.558787       -15.2054
 219   2.0000      -0.556625       -15.1465
 220   2.0000      -0.535828       -14.5806
 221   2.0000      -0.535819       -14.5804
 222   2.0000      -0.535801       -14.5799
 223   2.0000      -0.535579       -14.5738
 224   2.0000      -0.535575       -14.5737
 225   2.0000      -0.535567       -14.5735
 226   2.0000      -0.532808       -14.4984
 227   2.0000      -0.532802       -14.4983
 228   2.0000      -0.532791       -14.4980
 229   2.0000      -0.526919       -14.3382
 230   2.0000      -0.520373       -14.1601
 231   2.0000      -0.520367       -14.1599
 232   2.0000      -0.517909       -14.0930
 233   2.0000      -0.517879       -14.0922
 234   2.0000      -0.517876       -14.0921
 235   2.0000      -0.511126       -13.9084
 236   2.0000      -0.511115       -13.9081
 237   2.0000      -0.511113       -13.9081
 238   2.0000      -0.495234       -13.4760
 239   2.0000      -0.490130       -13.3371
 240   2.0000      -0.490122       -13.3369
 241   2.0000      -0.490116       -13.3367
 242   2.0000      -0.488520       -13.2933
 243   2.0000      -0.488494       -13.2926
 244   2.0000      -0.488484       -13.2923
 245   2.0000      -0.485353       -13.2071
 246   2.0000      -0.485341       -13.2068
 247   2.0000      -0.485326       -13.2064
 248   2.0000      -0.482725       -13.1356
 249   2.0000      -0.482717       -13.1354
 250   2.0000      -0.477897       -13.0043
 251   2.0000      -0.477889       -13.0040
 252   2.0000      -0.477878       -13.0037
 253   2.0000      -0.471181       -12.8215
 254   2.0000      -0.471160       -12.8209
 255   2.0000      -0.471158       -12.8209
 256   2.0000      -0.466777       -12.7017
 257   2.0000      -0.466772       -12.7015
 258   2.0000      -0.462779       -12.5929
 259   2.0000      -0.462503       -12.5854
 260   2.0000      -0.462497       -12.5852
 261   2.0000      -0.462487       -12.5849
 262   2.0000      -0.456793       -12.4300
 263   2.0000      -0.456792       -12.4299
 264   2.0000      -0.451854       -12.2956
 265   2.0000      -0.451843       -12.2953
 266   2.0000      -0.451819       -12.2946
 267   2.0000      -0.447646       -12.1811
 268   2.0000      -0.435568       -11.8524
 269   2.0000      -0.435555       -11.8520
 270   2.0000      -0.435541       -11.8517
 271   2.0000      -0.428646       -11.6641
 272   2.0000      -0.428623       -11.6634
 273   2.0000      -0.428612       -11.6631
 274   2.0000      -0.423766       -11.5313
 275   2.0000      -0.423764       -11.5312
 276   2.0000      -0.407253       -11.0819
 277   2.0000      -0.406638       -11.0652
 278   2.0000      -0.406629       -11.0649
 279   2.0000      -0.406597       -11.0641
 280   2.0000      -0.403657       -10.9841
 281   2.0000      -0.403653       -10.9840
 282   2.0000      -0.402837       -10.9617
 283   2.0000      -0.402814       -10.9611
 284   2.0000      -0.402811       -10.9610
 285   2.0000      -0.400318       -10.8932
 286   2.0000      -0.400314       -10.8931
 287   2.0000      -0.400305       -10.8928
 288   2.0000      -0.390118       -10.6157
 289   2.0000      -0.390114       -10.6155
 290   2.0000      -0.390083       -10.6147
 291   2.0000      -0.383764       -10.4428
 292   2.0000      -0.319022        -8.6810
 293   2.0000      -0.319005        -8.6806
 294   2.0000      -0.318994        -8.6803
 295   2.0000      -0.318109        -8.6562
 296   2.0000      -0.318090        -8.6557
 297   2.0000      -0.318087        -8.6556
 298   2.0000      -0.317365        -8.6359
 299   2.0000      -0.317360        -8.6358
 300   0.0000       0.078170         2.1271
 301   0.0000       0.078188         2.1276
 302   0.0000       0.078189         2.1276
 303   0.0000       0.082029         2.2321
 304   0.0000       0.082035         2.2323

MULLIKEN ATOMIC CHARGES
-----------------------
   0 C :    0.166228
   1 C :   -0.087587
   2 C :   -0.199267
   3 C :    0.166251
   4 H :    0.153756
   5 C :   -0.199302
   6 C :    0.166288
   7 H :    0.153758
   8 C :   -0.199321
   9 C :   -0.087671
  10 H :    0.153754
  11 C :   -0.087577
  12 H :    0.088576
  13 H :    0.088554
  14 H :    0.088569
  15 C :    0.166304
  16 C :   -0.087486
  17 C :   -0.199331
  18 C :    0.166380
  19 H :    0.153736
  20 C :   -0.199286
  21 C :    0.166337
  22 H :    0.153735
  23 C :   -0.199300
  24 C :   -0.087684
  25 H :    0.153731
  26 C :   -0.087675
  27 H :    0.088588
  28 H :    0.088374
  29 H :    0.088559
  30 C :    0.166304
  31 C :   -0.087490
  32 C :   -0.199309
  33 C :    0.166440
  34 H :    0.153738
  35 C :   -0.199320
  36 C :    0.166311
  37 H :    0.153751
  38 C :   -0.199317
  39 C :   -0.087665
  40 H :    0.153732
  41 C :   -0.087704
  42 H :    0.088576
  43 H :    0.088370
  44 H :    0.088551
  45 C :    0.166252
  46 C :   -0.087426
  47 C :   -0.199311
  48 C :    0.166464
  49 H :    0.153737
  50 C :   -0.199316
  51 C :    0.166335
  52 H :    0.153747
  53 C :   -0.199323
  54 C :   -0.087646
  55 H :    0.153732
  56 C :   -0.087729
  57 H :    0.088547
  58 H :    0.088352
  59 H :    0.088552
  60 C :    0.084511
  61 C :    0.084650
  62 N :   -0.285090
  63 N :   -0.285120
  64 C :   -0.200478
  65 H :    0.078000
  66 C :   -0.204474
  67 H :    0.108146
  68 H :    0.097342
  69 C :   -0.204411
  70 H :    0.087877
  71 H :    0.112386
  72 C :   -0.200521
  73 H :    0.112375
  74 H :    0.087890
  75 H :    0.097331
  76 H :    0.108152
  77 H :    0.078070
  78 C :    0.084409
  79 C :    0.084533
  80 N :   -0.285035
  81 N :   -0.285078
  82 C :   -0.200411
  83 H :    0.078054
  84 C :   -0.204473
  85 H :    0.108147
  86 H :    0.097350
  87 C :   -0.204396
  88 H :    0.087890
  89 H :    0.112374
  90 C :   -0.200515
  91 H :    0.112378
  92 H :    0.087885
  93 H :    0.097345
  94 H :    0.108136
  95 H :    0.078109
  96 C :    0.084505
  97 C :    0.084615
  98 N :   -0.285109
  99 N :   -0.285111
 100 C :   -0.200458
 101 H :    0.078020
 102 C :   -0.204467
 103 H :    0.108131
 104 H :    0.097370
 105 C :   -0.204417
 106 H :    0.087889
 107 H :    0.112379
 108 C :   -0.200543
 109 H :    0.112372
 110 H :    0.087898
 111 H :    0.097346
 112 H :    0.108144
 113 H :    0.078055
 114 C :    0.084372
 115 C :    0.084470
 116 N :   -0.285013
 117 N :   -0.285042
 118 C :   -0.200494
 119 H :    0.078096
 120 C :   -0.204440
 121 H :    0.108147
 122 H :    0.097347
 123 C :   -0.204443
 124 H :    0.087890
 125 H :    0.112395
 126 C :   -0.200475
 127 H :    0.112393
 128 H :    0.087893
 129 H :    0.097366
 130 H :    0.108141
 131 H :    0.078100
 132 C :    0.084523
 133 C :    0.084437
 134 N :   -0.285057
 135 N :   -0.285016
 136 C :   -0.200484
 137 H :    0.078090
 138 C :   -0.204456
 139 H :    0.108130
 140 H :    0.097378
 141 C :   -0.204454
 142 H :    0.087896
 143 H :    0.112383
 144 C :   -0.200519
 145 H :    0.112375
 146 H :    0.087910
 147 H :    0.097334
 148 H :    0.108157
 149 H :    0.078083
 150 C :    0.084333
 151 C :    0.084409
 152 N :   -0.285001
 153 N :   -0.285010
 154 C :   -0.200467
 155 H :    0.078094
 156 C :   -0.204436
 157 H :    0.108124
 158 H :    0.097384
 159 C :   -0.204428
 160 H :    0.087879
 161 H :    0.112397
 162 C :   -0.200484
 163 H :    0.112395
 164 H :    0.087886
 165 H :    0.097397
 166 H :    0.108121
 167 H :    0.078113
Sum of atomic charges:   -0.0000000

LOEWDIN ATOMIC CHARGES
----------------------
   0 C :   -0.075567
   1 C :   -0.067349
   2 C :    0.092447
   3 C :   -0.075568
   4 H :   -0.020140
   5 C :    0.092453
   6 C :   -0.075557
   7 H :   -0.020147
   8 C :    0.092444
   9 C :   -0.067352
  10 H :   -0.020135
  11 C :   -0.067320
  12 H :   -0.034250
  13 H :   -0.034258
  14 H :   -0.034259
  15 C :   -0.075542
  16 C :   -0.067440
  17 C :    0.092445
  18 C :   -0.075565
  19 H :   -0.020139
  20 C :    0.092442
  21 C :   -0.075531
  22 H :   -0.020138
  23 C :    0.092470
  24 C :   -0.067332
  25 H :   -0.020105
  26 C :   -0.067340
  27 H :   -0.034269
  28 H :   -0.034237
  29 H :   -0.034261
  30 C :   -0.075535
  31 C :   -0.067466
  32 C :    0.092442
  33 C :   -0.075581
  34 H :   -0.020130
  35 C :    0.092455
  36 C :   -0.075521
  37 H :   -0.020137
  38 C :    0.092463
  39 C :   -0.067355
  40 H :   -0.020103
  41 C :   -0.067343
  42 H :   -0.034263
  43 H :   -0.034238
  44 H :   -0.034259
  45 C :   -0.075545
  46 C :   -0.067455
  47 C :    0.092459
  48 C :   -0.075575
  49 H :   -0.020136
  50 C :    0.092441
  51 C :   -0.075522
  52 H :   -0.020127
  53 C :    0.092466
  54 C :   -0.067370
  55 H :   -0.020100
  56 C :   -0.067361
  57 H :   -0.034253
  58 H :   -0.034248
  59 H :   -0.034255
  60 C :   -0.111759
  61 C :   -0.111786
  62 N :    0.231487
  63 N :    0.231395
  64 C :    0.061222
  65 H :   -0.031867
  66 C :    0.057698
  67 H :   -0.025844
  68 H :   -0.023977
  69 C :    0.057681
  70 H :   -0.026312
  71 H :   -0.025760
  72 C :    0.061211
  73 H :   -0.025750
  74 H :   -0.026320
  75 H :   -0.023974
  76 H :   -0.025833
  77 H :   -0.031893
  78 C :   -0.111710
  79 C :   -0.111750
  80 N :    0.231450
  81 N :    0.231389
  82 C :    0.061191
  83 H :   -0.031876
  84 C :    0.057663
  85 H :   -0.025835
  86 H :   -0.023964
  87 C :    0.057681
  88 H :   -0.026311
  89 H :   -0.025750
  90 C :    0.061208
  91 H :   -0.025746
  92 H :   -0.026313
  93 H :   -0.023972
  94 H :   -0.025829
  95 H :   -0.031889
  96 C :   -0.111742
  97 C :   -0.111748
  98 N :    0.231461
  99 N :    0.231396
 100 C :    0.061197
 101 H :   -0.031878
 102 C :    0.057673
 103 H :   -0.025831
 104 H :   -0.023973
 105 C :    0.057687
 106 H :   -0.026310
 107 H :   -0.025749
 108 C :    0.061218
 109 H :   -0.025743
 110 H :   -0.026318
 111 H :   -0.023974
 112 H :   -0.025832
 113 H :   -0.031884
 114 C :   -0.111746
 115 C :   -0.111722
 116 N :    0.231504
 117 N :    0.231462
 118 C :    0.061194
 119 H :   -0.031889
 120 C :    0.057693
 121 H :   -0.025832
 122 H :   -0.023966
 123 C :    0.057678
 124 H :   -0.026309
 125 H :   -0.025746
 126 C :    0.061199
 127 H :   -0.025747
 128 H :   -0.026315
 129 H :   -0.023966
 130 H :   -0.025827
 131 H :   -0.031894
 132 C :   -0.111756
 133 C :   -0.111795
 134 N :    0.231477
 135 N :    0.231547
 136 C :    0.061179
 137 H :   -0.031877
 138 C :    0.057680
 139 H :   -0.025826
 140 H :   -0.023960
 141 C :    0.057693
 142 H :   -0.026310
 143 H :   -0.025741
 144 C :    0.061213
 145 H :   -0.025740
 146 H :   -0.026315
 147 H :   -0.023963
 148 H :   -0.025826
 149 H :   -0.031890
 150 C :   -0.111750
 151 C :   -0.111738
 152 N :    0.231512
 153 N :    0.231463
 154 C :    0.061189
 155 H :   -0.031872
 156 C :    0.057672
 157 H :   -0.025819
 158 H :   -0.023973
 159 C :    0.057677
 160 H :   -0.026301
 161 H :   -0.025746
 162 C :    0.061192
 163 H :   -0.025745
 164 H :   -0.026304
 165 H :   -0.023969
 166 H :   -0.025823
 167 H :   -0.031884

  Mayer bond orders larger than 0.100000
B(  0-C ,  1-C ) :   1.0037 B(  0-C ,  2-C ) :   1.3905 B(  0-C ,  8-C ) :   1.2919
B(  1-C , 13-H ) :   0.9895 B(  1-C , 62-N ) :   1.9706 B(  2-C ,  3-C ) :   1.2919
B(  2-C ,  4-H ) :   0.9652 B(  3-C ,  5-C ) :   1.3905 B(  3-C , 11-C ) :   1.0036
B(  5-C ,  6-C ) :   1.2919 B(  5-C ,  7-H ) :   0.9652 B(  6-C ,  8-C ) :   1.3905
B(  6-C ,  9-C ) :   1.0036 B(  8-C , 10-H ) :   0.9652 B(  9-C , 12-H ) :   0.9895
B(  9-C , 80-N ) :   1.9707 B( 11-C , 14-H ) :   0.9894 B( 11-C , 98-N ) :   1.9707
B( 15-C , 16-C ) :   1.0037 B( 15-C , 17-C ) :   1.3904 B( 15-C , 23-C ) :   1.2919
B( 16-C , 28-H ) :   0.9895 B( 16-C , 63-N ) :   1.9707 B( 17-C , 18-C ) :   1.2919
B( 17-C , 19-H ) :   0.9652 B( 18-C , 20-C ) :   1.3904 B( 18-C , 26-C ) :   1.0035
B( 20-C , 21-C ) :   1.2919 B( 20-C , 22-H ) :   0.9652 B( 21-C , 23-C ) :   1.3905
B( 21-C , 24-C ) :   1.0035 B( 23-C , 25-H ) :   0.9652 B( 24-C , 27-H ) :   0.9894
B( 24-C ,134-N ) :   1.9706 B( 26-C , 29-H ) :   0.9894 B( 26-C ,116-N ) :   1.9706
B( 30-C , 31-C ) :   1.0037 B( 30-C , 32-C ) :   1.3904 B( 30-C , 38-C ) :   1.2919
B( 31-C , 43-H ) :   0.9895 B( 31-C , 81-N ) :   1.9707 B( 32-C , 33-C ) :   1.2919
B( 32-C , 34-H ) :   0.9652 B( 33-C , 35-C ) :   1.3904 B( 33-C , 41-C ) :   1.0035
B( 35-C , 36-C ) :   1.2920 B( 35-C , 37-H ) :   0.9652 B( 36-C , 38-C ) :   1.3905
B( 36-C , 39-C ) :   1.0036 B( 38-C , 40-H ) :   0.9652 B( 39-C , 42-H ) :   0.9894
B( 39-C ,117-N ) :   1.9706 B( 41-C , 44-H ) :   0.9894 B( 41-C ,152-N ) :   1.9706
B( 45-C , 46-C ) :   1.0037 B( 45-C , 47-C ) :   1.3904 B( 45-C , 53-C ) :   1.2919
B( 46-C , 58-H ) :   0.9895 B( 46-C , 99-N ) :   1.9707 B( 47-C , 48-C ) :   1.2919
B( 47-C , 49-H ) :   0.9652 B( 48-C , 50-C ) :   1.3904 B( 48-C , 56-C ) :   1.0035
B( 50-C , 51-C ) :   1.2919 B( 50-C , 52-H ) :   0.9652 B( 51-C , 53-C ) :   1.3904
B( 51-C , 54-C ) :   1.0036 B( 53-C , 55-H ) :   0.9652 B( 54-C , 57-H ) :   0.9894
B( 54-C ,153-N ) :   1.9707 B( 56-C , 59-H ) :   0.9895 B( 56-C ,135-N ) :   1.9705
B( 60-C , 61-C ) :   0.9437 B( 60-C , 62-N ) :   0.9417 B( 60-C , 72-C ) :   0.9538
B( 60-C , 77-H ) :   0.9720 B( 61-C , 63-N ) :   0.9416 B( 61-C , 64-C ) :   0.9538
B( 61-C , 65-H ) :   0.9720 B( 64-C , 66-C ) :   0.9421 B( 64-C , 67-H ) :   0.9910
B( 64-C , 68-H ) :   0.9829 B( 66-C , 69-C ) :   0.9439 B( 66-C , 70-H ) :   0.9850
B( 66-C , 71-H ) :   0.9954 B( 69-C , 72-C ) :   0.9421 B( 69-C , 73-H ) :   0.9954
B( 69-C , 74-H ) :   0.9850 B( 72-C , 75-H ) :   0.9829 B( 72-C , 76-H ) :   0.9910
B( 78-C , 79-C ) :   0.9439 B( 78-C , 80-N ) :   0.9416 B( 78-C , 90-C ) :   0.9539
B( 78-C , 95-H ) :   0.9720 B( 79-C , 81-N ) :   0.9416 B( 79-C , 82-C ) :   0.9538
B( 79-C , 83-H ) :   0.9720 B( 82-C , 84-C ) :   0.9421 B( 82-C , 85-H ) :   0.9910
B( 82-C , 86-H ) :   0.9829 B( 84-C , 87-C ) :   0.9439 B( 84-C , 88-H ) :   0.9850
B( 84-C , 89-H ) :   0.9954 B( 87-C , 90-C ) :   0.9421 B( 87-C , 91-H ) :   0.9954
B( 87-C , 92-H ) :   0.9850 B( 90-C , 93-H ) :   0.9829 B( 90-C , 94-H ) :   0.9910
B( 96-C , 97-C ) :   0.9438 B( 96-C , 98-N ) :   0.9417 B( 96-C ,108-C ) :   0.9539
B( 96-C ,113-H ) :   0.9720 B( 97-C , 99-N ) :   0.9416 B( 97-C ,100-C ) :   0.9538
B( 97-C ,101-H ) :   0.9720 B(100-C ,102-C ) :   0.9421 B(100-C ,103-H ) :   0.9910
B(100-C ,104-H ) :   0.9829 B(102-C ,105-C ) :   0.9439 B(102-C ,106-H ) :   0.9850
B(102-C ,107-H ) :   0.9954 B(105-C ,108-C ) :   0.9421 B(105-C ,109-H ) :   0.9954
B(105-C ,110-H ) :   0.9850 B(108-C ,111-H ) :   0.9829 B(108-C ,112-H ) :   0.9910
B(114-C ,115-C ) :   0.9438 B(114-C ,116-N ) :   0.9417 B(114-C ,126-C ) :   0.9538
B(114-C ,131-H ) :   0.9720 B(115-C ,117-N ) :   0.9417 B(115-C ,118-C ) :   0.9538
B(115-C ,119-H ) :   0.9720 B(118-C ,120-C ) :   0.9421 B(118-C ,121-H ) :   0.9910
B(118-C ,122-H ) :   0.9829 B(120-C ,123-C ) :   0.9439 B(120-C ,124-H ) :   0.9850
B(120-C ,125-H ) :   0.9954 B(123-C ,126-C ) :   0.9421 B(123-C ,127-H ) :   0.9954
B(123-C ,128-H ) :   0.9850 B(126-C ,129-H ) :   0.9829 B(126-C ,130-H ) :   0.9910
B(132-C ,133-C ) :   0.9437 B(132-C ,134-N ) :   0.9417 B(132-C ,144-C ) :   0.9539
B(132-C ,149-H ) :   0.9720 B(133-C ,135-N ) :   0.9417 B(133-C ,136-C ) :   0.9538
B(133-C ,137-H ) :   0.9720 B(136-C ,138-C ) :   0.9421 B(136-C ,139-H ) :   0.9910
B(136-C ,140-H ) :   0.9829 B(138-C ,141-C ) :   0.9439 B(138-C ,142-H ) :   0.9850
B(138-C ,143-H ) :   0.9954 B(141-C ,144-C ) :   0.9421 B(141-C ,145-H ) :   0.9954
B(141-C ,146-H ) :   0.9850 B(144-C ,147-H ) :   0.9829 B(144-C ,148-H ) :   0.9910
B(150-C ,151-C ) :   0.9439 B(150-C ,152-N ) :   0.9417 B(150-C ,162-C ) :   0.9538
B(150-C ,167-H ) :   0.9720 B(151-C ,153-N ) :   0.9416 B(151-C ,154-C ) :   0.9539
B(151-C ,155-H ) :   0.9720 B(154-C ,156-C ) :   0.9421 B(154-C ,157-H ) :   0.9910
B(154-C ,158-H ) :   0.9829 B(156-C ,159-C ) :   0.9439 B(156-C ,160-H ) :   0.9850
B(156-C ,161-H ) :   0.9954 B(159-C ,162-C ) :   0.9421 B(159-C ,163-H ) :   0.9954
B(159-C ,164-H ) :   0.9850 B(162-C ,165-H ) :   0.9829 B(162-C ,166-H ) :   0.9910

MP2 TOTAL ENERGY:    -3444.004499450 Eh
FINAL SINGLE POINT ENERGY     -3444.004499449661

DIPOLE MOMENT
-------------
                                X             Y             Z
Electronic contribution:     -0.00247      -0.01034       0.02991
Nuclear contribution   :      0.00303       0.01225      -0.03644
                        -----------------------------------------
Total Dipole Moment    :      0.00056       0.00190      -0.00653
                        -----------------------------------------
Magnitude (a.u.)       :      0.00683
Magnitude (Debye)      :      0.01735

Rotational constants in cm-1:     0.000521     0.000521     0.000521
Rotational constants in MHz :    15.625704    15.622165    15.621725

                             ****ORCA TERMINATED NORMALLY****
TOTAL RUN TIME: 0 days 9 hours 42 minutes 23 seconds 220 msec
