                         Program Version 4.2.1 -  RELEASE  -
|  1> ! DFT COPT B97-3c TightSCF printbasis  Grid6 NOFINALGRID SlowConv
|  2>
|  3> %base "_o_alde1_opt_B97-3c"
|  4> %maxcore 3000
|  5> %scf
|  6>    MaxIter 2000
|  7> end
|  8> %pal
|  9>    nprocs 32
| 10> end
| 11>
| 12> * xyzfile 0 1 o_alde1_opt.xyz
| 13> # * xyzfile 0 1 _o_alde1_opt_B97-3c.xyz
| 14>
| 15>                          ****END OF INPUT****
 Total Charge           Charge          ....    0
 Multiplicity           Mult            ....    1
 Number of Electrons    NEL             ....   84
Dispersion correction           -0.047195681
FINAL SINGLE POINT ENERGY      -571.961945820199
Dispersion correction            ... done
Dispersion correction           -0.047190912
FINAL SINGLE POINT ENERGY      -571.962374429675
Dispersion correction            ... done
Dispersion correction           -0.047192046
FINAL SINGLE POINT ENERGY      -571.962598668602
Dispersion correction            ... done
FINAL SINGLE POINT ENERGY      -571.962628216860
FINAL SINGLE POINT ENERGY      -571.962663676779
FINAL SINGLE POINT ENERGY      -571.962674052640
FINAL SINGLE POINT ENERGY      -571.962685815375
FINAL SINGLE POINT ENERGY      -571.962698551058
Dispersion correction            ... done
Dispersion correction           -0.047144780
FINAL SINGLE POINT ENERGY      -571.962711274067
Dispersion correction            ... done
Dispersion correction           -0.047137348
FINAL SINGLE POINT ENERGY      -571.962717791892
Dispersion correction            ... done
                    ***********************HURRAY********************

CARTESIAN COORDINATES (ANGSTROEM)
---------------------------------
  C     -1.967834    1.843922   -0.227410
  C     -1.591650    0.665931   -1.034042
  C     -1.118629    2.310575    0.780118
  O     -0.562693    0.041060   -0.890184
  C     -1.470122    3.416400    1.538508
  H     -0.184172    1.791060    0.954042
  C     -2.682876    4.065716    1.290220
  C     -3.531889    3.610673    0.293397
  H     -2.943028    4.928350    1.891499
  C     -3.168321    2.494710   -0.465858
  C     -4.810939    4.302442    0.037823
  H     -3.842629    2.151570   -1.241049
  O     -5.608270    3.969807   -0.812781
  C     -0.567288    3.902640    2.600722
  O     -0.798924    4.860148    3.307427
  H     -5.006303    5.175232    0.692900
  H     -2.331967    0.375991   -1.806649
  H      0.368420    3.319802    2.718246

 Multiplicity           Mult            ....    1
 Number of Electrons    NEL             ....   84
 Basis Dimension        Dim             ....  261

ORBITAL ENERGIES
----------------

  NO   OCC          E(Eh)            E(eV)
   0   2.0000     -18.763932      -510.5925
   1   2.0000     -18.763931      -510.5925
   2   2.0000     -18.763928      -510.5924
   3   2.0000     -10.000713      -272.1332
   4   2.0000     -10.000711      -272.1332
   5   2.0000     -10.000710      -272.1332
   6   2.0000      -9.950538      -270.7679
   7   2.0000      -9.950533      -270.7678
   8   2.0000      -9.950532      -270.7677
   9   2.0000      -9.945240      -270.6237
  10   2.0000      -9.945238      -270.6237
  11   2.0000      -9.945206      -270.6228
  12   2.0000      -0.988265       -26.8921
  13   2.0000      -0.987879       -26.8815
  14   2.0000      -0.987877       -26.8815
  15   2.0000      -0.842959       -22.9381
  16   2.0000      -0.750761       -20.4292
  17   2.0000      -0.750760       -20.4292
  18   2.0000      -0.634923       -17.2771
  19   2.0000      -0.634922       -17.2771
  20   2.0000      -0.614959       -16.7339
  21   2.0000      -0.530208       -14.4277
  22   2.0000      -0.530208       -14.4277
  23   2.0000      -0.506099       -13.7716
  24   2.0000      -0.482757       -13.1365
  25   2.0000      -0.440064       -11.9748
  26   2.0000      -0.438158       -11.9229
  27   2.0000      -0.438158       -11.9229
  28   2.0000      -0.411825       -11.2063
  29   2.0000      -0.411380       -11.1942
  30   2.0000      -0.411379       -11.1942
  31   2.0000      -0.394791       -10.7428
  32   2.0000      -0.384242       -10.4558
  33   2.0000      -0.384241       -10.4557
  34   2.0000      -0.363343        -9.8871
  35   2.0000      -0.363342        -9.8870
  36   2.0000      -0.346040        -9.4162
  37   2.0000      -0.277994        -7.5646
  38   2.0000      -0.277993        -7.5646
  39   2.0000      -0.246504        -6.7077
  40   2.0000      -0.236495        -6.4353
  41   2.0000      -0.236493        -6.4353
  42   0.0000      -0.131048        -3.5660
  43   0.0000      -0.131047        -3.5660
  44   0.0000      -0.099536        -2.7085
  45   0.0000      -0.010209        -0.2778
  46   0.0000      -0.010208        -0.2778

MULLIKEN ATOMIC CHARGES
-----------------------
   0 C :    0.180737
   1 C :   -0.122233
   2 C :   -0.121676
   3 O :   -0.302980
   4 C :    0.180704
   5 H :    0.243027
   6 C :   -0.121680
   7 C :    0.180720
   8 H :    0.243037
   9 C :   -0.121694
  10 C :   -0.122221
  11 H :    0.243024
  12 O :   -0.302975
  13 C :   -0.122191
  14 O :   -0.302993
  15 H :    0.123131
  16 H :    0.123131
  17 H :    0.123131
Sum of atomic charges:   -0.0000000

LOEWDIN ATOMIC CHARGES
----------------------
   0 C :   -0.064339
   1 C :    0.216701
   2 C :   -0.057843
   3 O :   -0.452525
   4 C :   -0.064337
   5 H :    0.199005
   6 C :   -0.057842
   7 C :   -0.064338
   8 H :    0.199006
   9 C :   -0.057844
  10 C :    0.216701
  11 H :    0.199005
  12 O :   -0.452521
  13 C :    0.216704
  14 O :   -0.452525
  15 H :    0.158998
  16 H :    0.158999
  17 H :    0.158997

  Mayer bond orders larger than 0.100000
B(  0-C ,  1-C ) :   0.9066 B(  0-C ,  2-C ) :   1.2864 B(  0-C ,  3-O ) :  -0.1562
B(  0-C ,  9-C ) :   1.2053 B(  1-C ,  3-O ) :   2.0784 B(  1-C , 16-H ) :   0.9536
B(  2-C ,  4-C ) :   1.2054 B(  2-C ,  5-H ) :   0.8811 B(  4-C ,  6-C ) :   1.2864
B(  4-C , 13-C ) :   0.9065 B(  4-C , 14-O ) :  -0.1562 B(  6-C ,  7-C ) :   1.2054
B(  6-C ,  8-H ) :   0.8811 B(  7-C ,  9-C ) :   1.2863 B(  7-C , 10-C ) :   0.9066
B(  7-C , 12-O ) :  -0.1562 B(  9-C , 11-H ) :   0.8811 B( 10-C , 12-O ) :   2.0784
B( 10-C , 15-H ) :   0.9536 B( 13-C , 14-O ) :   2.0784 B( 13-C , 17-H ) :   0.9536

Dispersion correction           -0.047136221
FINAL SINGLE POINT ENERGY      -571.962720316134

DIPOLE MOMENT
-------------
                                X             Y             Z
Electronic contribution:     -0.00003       0.00002       0.00002
Nuclear contribution   :      0.00004      -0.00001       0.00002
                        -----------------------------------------
Total Dipole Moment    :      0.00001       0.00001       0.00004
                        -----------------------------------------
Magnitude (a.u.)       :      0.00004
Magnitude (Debye)      :      0.00010

Rotational constants in cm-1:     0.029412     0.029412     0.014706
Rotational constants in MHz :   881.758263   881.746454   440.876179

                             ****ORCA TERMINATED NORMALLY****
TOTAL RUN TIME: 0 days 0 hours 4 minutes 6 seconds 945 msec
