                         Program Version 4.2.1 -  RELEASE  -
|  1> ! RI-MP2 cc-pVTZ cc-pVTZ/C TIGHTSCF printbasis Grid6 NOFINALGRID SlowConv
|  2>
|  3> %base "_o_alde1_opt_MP2"
|  4> %maxcore 3000
|  5> %pal
|  6>    nprocs 32
|  7> end
|  8>
|  9> * xyzfile 0 1 _o_alde1_opt_B97-3c.xyz
| 10>
| 11>                          ****END OF INPUT****

CARTESIAN COORDINATES (ANGSTROEM)
---------------------------------
  C     -1.967834    1.843922   -0.227410
  C     -1.591650    0.665931   -1.034042
  C     -1.118629    2.310575    0.780118
  O     -0.562693    0.041060   -0.890184
  C     -1.470122    3.416400    1.538508
  H     -0.184172    1.791060    0.954042
  C     -2.682876    4.065716    1.290220
  C     -3.531889    3.610673    0.293397
  H     -2.943028    4.928350    1.891499
  C     -3.168321    2.494710   -0.465858
  C     -4.810939    4.302442    0.037823
  H     -3.842629    2.151570   -1.241049
  O     -5.608270    3.969807   -0.812781
  C     -0.567288    3.902640    2.600722
  O     -0.798924    4.860148    3.307427
  H     -5.006303    5.175232    0.692900
  H     -2.331967    0.375991   -1.806649
  H      0.368420    3.319802    2.718246

 Total Charge           Charge          ....    0
 Multiplicity           Mult            ....    1
 Number of Electrons    NEL             ....   84
 Basis Dimension        Dim             ....  444

ORBITAL ENERGIES
----------------

  NO   OCC          E(Eh)            E(eV)
   0   2.0000     -20.575215      -559.8801
   1   2.0000     -20.575214      -559.8800
   2   2.0000     -20.575213      -559.8800
   3   2.0000     -11.355540      -309.0000
   4   2.0000     -11.355539      -308.9999
   5   2.0000     -11.355538      -308.9999
   6   2.0000     -11.296696      -307.3987
   7   2.0000     -11.296645      -307.3973
   8   2.0000     -11.296644      -307.3973
   9   2.0000     -11.280086      -306.9467
  10   2.0000     -11.280085      -306.9467
  11   2.0000     -11.280000      -306.9444
  12   2.0000      -1.411058       -38.3968
  13   2.0000      -1.410550       -38.3830
  14   2.0000      -1.410549       -38.3830
  15   2.0000      -1.215198       -33.0672
  16   2.0000      -1.094134       -29.7729
  17   2.0000      -1.094133       -29.7729
  18   2.0000      -0.932185       -25.3660
  19   2.0000      -0.932183       -25.3660
  20   2.0000      -0.905034       -24.6272
  21   2.0000      -0.798391       -21.7253
  22   2.0000      -0.798391       -21.7253
  23   2.0000      -0.752020       -20.4635
  24   2.0000      -0.725135       -19.7319
  25   2.0000      -0.681075       -18.5330
  26   2.0000      -0.676067       -18.3967
  27   2.0000      -0.676066       -18.3967
  28   2.0000      -0.652106       -17.7447
  29   2.0000      -0.652105       -17.7447
  30   2.0000      -0.625324       -17.0159
  31   2.0000      -0.597051       -16.2466
  32   2.0000      -0.566634       -15.4189
  33   2.0000      -0.566633       -15.4189
  34   2.0000      -0.560761       -15.2591
  35   2.0000      -0.560760       -15.2591
  36   2.0000      -0.509566       -13.8660
  37   2.0000      -0.464373       -12.6362
  38   2.0000      -0.445992       -12.1361
  39   2.0000      -0.445991       -12.1360
  40   2.0000      -0.385709       -10.4957
  41   2.0000      -0.385708       -10.4956
  42   0.0000       0.034654         0.9430
  43   0.0000       0.034655         0.9430
  44   0.0000       0.101479         2.7614
  45   0.0000       0.140715         3.8290
  46   0.0000       0.146277         3.9804

MULLIKEN ATOMIC CHARGES
-----------------------
   0 C :    0.051283
   1 C :    0.174429
   2 C :   -0.163224
   3 O :   -0.353656
   4 C :    0.051279
   5 H :    0.189124
   6 C :   -0.163222
   7 C :    0.051286
   8 H :    0.189124
   9 C :   -0.163220
  10 C :    0.174431
  11 H :    0.189123
  12 O :   -0.353654
  13 C :    0.174434
  14 O :   -0.353655
  15 H :    0.102040
  16 H :    0.102040
  17 H :    0.102038
Sum of atomic charges:   -0.0000000

LOEWDIN ATOMIC CHARGES
----------------------
   0 C :   -0.089698
   1 C :   -0.145475
   2 C :    0.121229
   3 O :    0.149945
   4 C :   -0.089697
   5 H :   -0.004614
   6 C :    0.121229
   7 C :   -0.089699
   8 H :   -0.004615
   9 C :    0.121229
  10 C :   -0.145474
  11 H :   -0.004613
  12 O :    0.149948
  13 C :   -0.145475
  14 O :    0.149947
  15 H :   -0.031389
  16 H :   -0.031390
  17 H :   -0.031389

  Mayer bond orders larger than 0.100000
B(  0-C ,  1-C ) :   0.9348 B(  0-C ,  2-C ) :   1.2748 B(  0-C ,  9-C ) :   1.3745
B(  1-C ,  3-O ) :   2.0906 B(  1-C , 16-H ) :   1.0155 B(  2-C ,  4-C ) :   1.3745
B(  2-C ,  5-H ) :   0.9559 B(  4-C ,  6-C ) :   1.2748 B(  4-C , 13-C ) :   0.9348
B(  6-C ,  7-C ) :   1.3745 B(  6-C ,  8-H ) :   0.9559 B(  7-C ,  9-C ) :   1.2748
B(  7-C , 10-C ) :   0.9348 B(  9-C , 11-H ) :   0.9559 B( 10-C , 12-O ) :   2.0906
B( 10-C , 15-H ) :   1.0155 B( 13-C , 14-O ) :   2.0906 B( 13-C , 17-H ) :   1.0155

MP2 TOTAL ENERGY:     -571.155029406 Eh
FINAL SINGLE POINT ENERGY      -571.155029406126

DIPOLE MOMENT
-------------
                                X             Y             Z
Electronic contribution:     -0.00003       0.00002       0.00001
Nuclear contribution   :      0.00004      -0.00001       0.00002
                        -----------------------------------------
Total Dipole Moment    :      0.00001       0.00001       0.00003
                        -----------------------------------------
Magnitude (a.u.)       :      0.00004
Magnitude (Debye)      :      0.00009

Rotational constants in cm-1:     0.029412     0.029412     0.014706
Rotational constants in MHz :   881.758263   881.746454   440.876179

                             ****ORCA TERMINATED NORMALLY****
TOTAL RUN TIME: 0 days 0 hours 13 minutes 8 seconds 745 msec
