                         Program Version 4.2.1 -  RELEASE  -
|  1> ! DFT COPT B97-3c TightSCF printbasis  Grid6 NOFINALGRID SlowConv
|  2>
|  3> %base "_o_ami1_opt_B97-3c"
|  4> %maxcore 3000
|  5> %scf
|  6>    MaxIter 2000
|  7> end
|  8> %pal
|  9>    nprocs 32
| 10> end
| 11>
| 12> * xyzfile 0 1 o_ami1_opt.xyz
| 13> # * xyzfile 0 1 _o_ami1_opt_B97-3c.xyz
| 14>
| 15>                          ****END OF INPUT****
 Total Charge           Charge          ....    0
 Multiplicity           Mult            ....    1
 Number of Electrons    NEL             ....   82
Dispersion correction           -0.065595737
FINAL SINGLE POINT ENERGY      -426.197358326595
Dispersion correction            ... done
Dispersion correction           -0.065605422
FINAL SINGLE POINT ENERGY      -426.197809624849
Dispersion correction            ... done
Dispersion correction           -0.065619414
FINAL SINGLE POINT ENERGY      -426.198046993398
Dispersion correction            ... done
FINAL SINGLE POINT ENERGY      -426.198210953319
FINAL SINGLE POINT ENERGY      -426.198360150841
FINAL SINGLE POINT ENERGY      -426.198441811168
FINAL SINGLE POINT ENERGY      -426.198516243692
FINAL SINGLE POINT ENERGY      -426.198595684419
FINAL SINGLE POINT ENERGY      -426.198673118767
FINAL SINGLE POINT ENERGY      -426.198728206771
FINAL SINGLE POINT ENERGY      -426.199498879822
FINAL SINGLE POINT ENERGY      -426.199501476243
FINAL SINGLE POINT ENERGY      -426.199504011709
FINAL SINGLE POINT ENERGY      -426.199506931977
FINAL SINGLE POINT ENERGY      -426.199509857846
FINAL SINGLE POINT ENERGY      -426.199512632775
FINAL SINGLE POINT ENERGY      -426.199515118635
Dispersion correction            ... done
Dispersion correction           -0.065529809
FINAL SINGLE POINT ENERGY      -426.199517177446
Dispersion correction            ... done
Dispersion correction           -0.065528372
FINAL SINGLE POINT ENERGY      -426.199518731755
Dispersion correction            ... done
                    ***********************HURRAY********************

CARTESIAN COORDINATES (ANGSTROEM)
---------------------------------
  C     -0.327942   -0.524097   -0.563922
  C      0.874663   -0.508436    0.400899
  N     -0.167667   -1.669643   -1.465532
  H     -0.334800    0.435853   -1.101100
  C     -1.684739   -0.619498    0.149116
  N      0.953392   -1.708563    1.234938
  H      0.751313    0.350662    1.062587
  C      2.228200   -0.306430   -0.308027
  H     -0.952534   -1.733908   -2.097762
  H      0.649352   -1.540387   -2.047493
  H      0.725096   -2.501255    0.643686
  H      0.239826   -1.678818    1.950844
  H     -1.733292   -1.602317    0.625397
  C     -2.841118   -0.524051   -0.842543
  C     -1.848240    0.450259    1.221741
  H      2.461051   -1.235796   -0.838769
  C      3.332142   -0.087429    0.718596
  C      2.217209    0.836412   -1.315812
  H     -1.159783    0.319323    2.054076
  H     -2.856616    0.429459    1.633038
  H     -1.683998    1.448206    0.811775
  H     -3.798120   -0.548827   -0.323363
  H     -2.856702   -1.344350   -1.558164
  H     -2.797834    0.411167   -1.403208
  H      1.556873    0.654984   -2.162843
  H      3.217412    1.000216   -1.716097
  H      1.899593    1.769116   -0.845944
  H      3.333010   -0.883438    1.456753
  H      3.189364    0.860774    1.241685
  H      4.310510   -0.052647    0.239183

 Multiplicity           Mult            ....    1
 Number of Electrons    NEL             ....   82
 Basis Dimension        Dim             ....  250

ORBITAL ENERGIES
----------------

  NO   OCC          E(Eh)            E(eV)
   0   2.0000     -13.968344      -380.0980
   1   2.0000     -13.951887      -379.6501
   2   2.0000      -9.910826      -269.6873
   3   2.0000      -9.906031      -269.5568
   4   2.0000      -9.893111      -269.2052
   5   2.0000      -9.884940      -268.9829
   6   2.0000      -9.882020      -268.9034
   7   2.0000      -9.880482      -268.8616
   8   2.0000      -9.875611      -268.7290
   9   2.0000      -9.861102      -268.3342
  10   2.0000      -0.832041       -22.6410
  11   2.0000      -0.790901       -21.5215
  12   2.0000      -0.726153       -19.7596
  13   2.0000      -0.716612       -19.5000
  14   2.0000      -0.632881       -17.2216
  15   2.0000      -0.619914       -16.8687
  16   2.0000      -0.612908       -16.6781
  17   2.0000      -0.566578       -15.4174
  18   2.0000      -0.510070       -13.8797
  19   2.0000      -0.493310       -13.4236
  20   2.0000      -0.454808       -12.3759
  21   2.0000      -0.437312       -11.8999
  22   2.0000      -0.422735       -11.5032
  23   2.0000      -0.408131       -11.1058
  24   2.0000      -0.395101       -10.7512
  25   2.0000      -0.389698       -10.6042
  26   2.0000      -0.374893       -10.2014
  27   2.0000      -0.356926        -9.7124
  28   2.0000      -0.354245        -9.6395
  29   2.0000      -0.345154        -9.3921
  30   2.0000      -0.335062        -9.1175
  31   2.0000      -0.331429        -9.0186
  32   2.0000      -0.322016        -8.7625
  33   2.0000      -0.307194        -8.3592
  34   2.0000      -0.298529        -8.1234
  35   2.0000      -0.291464        -7.9311
  36   2.0000      -0.286291        -7.7904
  37   2.0000      -0.275165        -7.4876
  38   2.0000      -0.267567        -7.2809
  39   2.0000      -0.204981        -5.5778
  40   2.0000      -0.187275        -5.0960
  41   0.0000       0.012778         0.3477
  42   0.0000       0.030439         0.8283
  43   0.0000       0.039057         1.0628
  44   0.0000       0.046694         1.2706
  45   0.0000       0.066792         1.8175

MULLIKEN ATOMIC CHARGES
-----------------------
   0 C :   -0.009535
   1 C :   -0.190600
   2 N :   -0.679883
   3 H :    0.165576
   4 C :   -0.193524
   5 N :   -0.618167
   6 H :    0.170122
   7 C :   -0.161531
   8 H :    0.306432
   9 H :    0.315370
  10 H :    0.321675
  11 H :    0.307870
  12 H :    0.162630
  13 C :   -0.531839
  14 C :   -0.526907
  15 H :    0.159010
  16 C :   -0.511630
  17 C :   -0.505964
  18 H :    0.179199
  19 H :    0.170056
  20 H :    0.165243
  21 H :    0.172826
  22 H :    0.163267
  23 H :    0.160435
  24 H :    0.169871
  25 H :    0.172456
  26 H :    0.164610
  27 H :    0.202083
  28 H :    0.138269
  29 H :    0.162578
Sum of atomic charges:    0.0000000

LOEWDIN ATOMIC CHARGES
----------------------
   0 C :   -0.139889
   1 C :   -0.139980
   2 N :   -0.529233
   3 H :    0.141503
   4 C :   -0.234547
   5 N :   -0.510262
   6 H :    0.157720
   7 C :   -0.231263
   8 H :    0.256702
   9 H :    0.258881
  10 H :    0.263484
  11 H :    0.253572
  12 H :    0.154283
  13 C :   -0.423020
  14 C :   -0.421525
  15 H :    0.151755
  16 C :   -0.424993
  17 C :   -0.424601
  18 H :    0.151125
  19 H :    0.154951
  20 H :    0.155948
  21 H :    0.155796
  22 H :    0.147448
  23 H :    0.154726
  24 H :    0.146371
  25 H :    0.155465
  26 H :    0.154480
  27 H :    0.168117
  28 H :    0.148337
  29 H :    0.148649

  Mayer bond orders larger than 0.100000
B(  0-C ,  1-C ) :   0.8124 B(  0-C ,  2-N ) :   0.9005 B(  0-C ,  3-H ) :   0.9408
B(  0-C ,  4-C ) :   0.8838 B(  1-C ,  5-N ) :   1.1283 B(  1-C ,  6-H ) :   0.9693
B(  1-C ,  7-C ) :   0.8729 B(  2-N ,  8-H ) :   0.8652 B(  2-N ,  9-H ) :   0.8552
B(  4-C , 12-H ) :   0.9698 B(  4-C , 13-C ) :   0.9754 B(  4-C , 14-C ) :   0.9552
B(  5-N , 10-H ) :   0.8568 B(  5-N , 11-H ) :   0.8823 B(  7-C , 15-H ) :   0.9676
B(  7-C , 16-C ) :   1.0088 B(  7-C , 17-C ) :   0.9358 B( 13-C , 21-H ) :   0.9602
B( 13-C , 22-H ) :   0.9672 B( 13-C , 23-H ) :   0.9622 B( 14-C , 18-H ) :   0.9558
B( 14-C , 19-H ) :   0.9578 B( 14-C , 20-H ) :   0.9585 B( 16-C , 27-H ) :   0.9517
B( 16-C , 28-H ) :   0.9635 B( 16-C , 29-H ) :   0.9601 B( 17-C , 24-H ) :   0.9527
B( 17-C , 25-H ) :   0.9570 B( 17-C , 26-H ) :   0.9617

Dispersion correction           -0.065527401
FINAL SINGLE POINT ENERGY      -426.199520047079

DIPOLE MOMENT
-------------
                                X             Y             Z
Electronic contribution:      0.51012      -3.43084       0.17920
Nuclear contribution   :     -1.11949       3.75380      -0.65409
                        -----------------------------------------
Total Dipole Moment    :     -0.60936       0.32296      -0.47489
                        -----------------------------------------
Magnitude (a.u.)       :      0.83735
Magnitude (Debye)      :      2.12836

Rotational constants in cm-1:     0.066723     0.025807     0.023974
Rotational constants in MHz :  2000.317198   773.677260   718.709253

                             ****ORCA TERMINATED NORMALLY****
TOTAL RUN TIME: 0 days 0 hours 11 minutes 18 seconds 744 msec
