                         Program Version 4.2.1 -  RELEASE  -
|  1> ! RI-MP2 cc-pVTZ cc-pVTZ/C TIGHTSCF printbasis Grid6 NOFINALGRID SlowConv
|  2>
|  3> %base "_o_ami2_opt_MP2"
|  4> %maxcore 3000
|  5> %pal
|  6>    nprocs 32
|  7> end
|  8>
|  9> * xyzfile 0 1 _o_ami2_opt_B97-3c.xyz
| 10>
| 11>                          ****END OF INPUT****

CARTESIAN COORDINATES (ANGSTROEM)
---------------------------------
  C     -0.643365    0.797069    0.354629
  C      0.847029    0.451508    0.552792
  N     -0.713547    2.244370    0.094053
  C     -1.412864    0.389289    1.609119
  C     -1.211759    0.078037   -0.858880
  N      1.751766    0.806031   -0.525808
  H     -0.513475    2.751008    0.949566
  H     -1.657918    2.499514   -0.169250
  H      1.604158    0.192260   -1.316574
  H      1.501478    1.737194   -0.841206
  H      0.939354   -0.616586    0.754791
  H      1.185705    0.959689    1.461469
  H     -1.120507   -1.001716   -0.749581
  H     -0.697960    0.380762   -1.768897
  H     -2.270806    0.307215   -0.985573
  H     -1.345575   -0.683468    1.794565
  H     -2.468590    0.646179    1.519396
  H     -1.017490    0.901059    2.487660

 Total Charge           Charge          ....    0
 Multiplicity           Mult            ....    1
 Number of Electrons    NEL             ....   50
 Basis Dimension        Dim             ....  348

ORBITAL ENERGIES
----------------

  NO   OCC          E(Eh)            E(eV)
   0   2.0000     -15.537851      -422.8064
   1   2.0000     -15.522314      -422.3836
   2   2.0000     -11.256637      -306.3087
   3   2.0000     -11.237018      -305.7748
   4   2.0000     -11.213292      -305.1292
   5   2.0000     -11.212257      -305.1010
   6   2.0000      -1.207464       -32.8568
   7   2.0000      -1.152279       -31.3551
   8   2.0000      -1.025876       -27.9155
   9   2.0000      -0.941046       -25.6072
  10   2.0000      -0.894196       -24.3323
  11   2.0000      -0.756448       -20.5840
  12   2.0000      -0.673376       -18.3235
  13   2.0000      -0.653702       -17.7881
  14   2.0000      -0.615888       -16.7592
  15   2.0000      -0.610630       -16.6161
  16   2.0000      -0.584110       -15.8944
  17   2.0000      -0.544770       -14.8239
  18   2.0000      -0.531819       -14.4715
  19   2.0000      -0.517766       -14.0891
  20   2.0000      -0.506531       -13.7834
  21   2.0000      -0.492092       -13.3905
  22   2.0000      -0.472521       -12.8579
  23   2.0000      -0.398791       -10.8516
  24   2.0000      -0.374951       -10.2029
  25   0.0000       0.128610         3.4996
  26   0.0000       0.165453         4.5022
  27   0.0000       0.174440         4.7467
  28   0.0000       0.177592         4.8325
  29   0.0000       0.194835         5.3017

MULLIKEN ATOMIC CHARGES
-----------------------
   0 C :    0.127121
   1 C :   -0.050171
   2 N :   -0.397397
   3 C :   -0.301544
   4 C :   -0.319149
   5 N :   -0.378738
   6 H :    0.138267
   7 H :    0.135056
   8 H :    0.131649
   9 H :    0.146605
  10 H :    0.094347
  11 H :    0.091922
  12 H :    0.098012
  13 H :    0.103671
  14 H :    0.097529
  15 H :    0.091143
  16 H :    0.097484
  17 H :    0.094192
Sum of atomic charges:   -0.0000000

LOEWDIN ATOMIC CHARGES
----------------------
   0 C :   -0.197331
   1 C :   -0.021718
   2 N :    0.342816
   3 C :    0.109790
   4 C :    0.111518
   5 N :    0.329451
   6 H :   -0.106653
   7 H :   -0.108877
   8 H :   -0.115767
   9 H :   -0.110526
  10 H :   -0.028414
  11 H :   -0.029933
  12 H :   -0.026072
  13 H :   -0.030811
  14 H :   -0.029590
  15 H :   -0.026281
  16 H :   -0.030906
  17 H :   -0.030696

  Mayer bond orders larger than 0.100000
B(  0-C ,  1-C ) :   0.9433 B(  0-C ,  2-N ) :   0.9339 B(  0-C ,  3-C ) :   0.9855
B(  0-C ,  4-C ) :   0.9312 B(  1-C ,  5-N ) :   1.0266 B(  1-C , 10-H ) :   0.9928
B(  1-C , 11-H ) :   0.9848 B(  2-N ,  6-H ) :   0.9925 B(  2-N ,  7-H ) :   0.9935
B(  3-C , 15-H ) :   0.9754 B(  3-C , 16-H ) :   0.9805 B(  3-C , 17-H ) :   0.9806
B(  4-C , 12-H ) :   0.9851 B(  4-C , 13-H ) :   0.9811 B(  4-C , 14-H ) :   0.9836
B(  5-N ,  8-H ) :   1.0083 B(  5-N ,  9-H ) :   0.9850

MP2 TOTAL ENERGY:     -268.592678808 Eh
FINAL SINGLE POINT ENERGY      -268.592678808191

DIPOLE MOMENT
-------------
                                X             Y             Z
Electronic contribution:      1.97183       1.48660      -0.59826
Nuclear contribution   :     -2.88003      -1.54610       0.76383
                        -----------------------------------------
Total Dipole Moment    :     -0.90820      -0.05950       0.16557
                        -----------------------------------------
Magnitude (a.u.)       :      0.92509
Magnitude (Debye)      :      2.35138

Rotational constants in cm-1:     0.149743     0.087546     0.086337
Rotational constants in MHz :  4489.184151  2624.556073  2588.332602

                             ****ORCA TERMINATED NORMALLY****
TOTAL RUN TIME: 0 days 0 hours 8 minutes 52 seconds 260 msec
