                         Program Version 4.2.1 -  RELEASE  -
|  1> ! DFT COPT B97-3c TightSCF printbasis  Grid6 NOFINALGRID SlowConv
|  2>
|  3> %base "_o_ami4_opt_B97-3c"
|  4> %maxcore 3000
|  5> %scf
|  6>    MaxIter 2000
|  7> end
|  8> %pal
|  9>    nprocs 32
| 10> end
| 11>
| 12> * xyzfile 0 1 o_ami4_opt.xyz
| 13> # * xyzfile 0 1 _o_ami4_opt_B97-3c.xyz
| 14>
| 15>                          ****END OF INPUT****
 Total Charge           Charge          ....    0
 Multiplicity           Mult            ....    1
 Number of Electrons    NEL             ....   34
Dispersion correction           -0.017155728
FINAL SINGLE POINT ENERGY      -190.430013374355
Dispersion correction            ... done
Dispersion correction           -0.017154363
FINAL SINGLE POINT ENERGY      -190.430233430630
Dispersion correction            ... done
Dispersion correction           -0.017153029
FINAL SINGLE POINT ENERGY      -190.430430060489
Dispersion correction            ... done
FINAL SINGLE POINT ENERGY      -190.430526555471
FINAL SINGLE POINT ENERGY      -190.430610598173
FINAL SINGLE POINT ENERGY      -190.430635813253
FINAL SINGLE POINT ENERGY      -190.430658663245
FINAL SINGLE POINT ENERGY      -190.430681580863
FINAL SINGLE POINT ENERGY      -190.430702069694
FINAL SINGLE POINT ENERGY      -190.430716814923
FINAL SINGLE POINT ENERGY      -190.431022378769
FINAL SINGLE POINT ENERGY      -190.431028062618
FINAL SINGLE POINT ENERGY      -190.431033286705
FINAL SINGLE POINT ENERGY      -190.431038223667
FINAL SINGLE POINT ENERGY      -190.431043930557
FINAL SINGLE POINT ENERGY      -190.431051558368
FINAL SINGLE POINT ENERGY      -190.431060035102
Dispersion correction            ... done
Dispersion correction           -0.017017958
FINAL SINGLE POINT ENERGY      -190.431065865427
Dispersion correction            ... done
Dispersion correction           -0.017022175
FINAL SINGLE POINT ENERGY      -190.431068508356
Dispersion correction            ... done
                    ***********************HURRAY********************

CARTESIAN COORDINATES (ANGSTROEM)
---------------------------------
  C     -0.738154    0.989629    0.479169
  C      0.678554    0.470786    0.259171
  N     -1.270181    1.832914   -0.580953
  N      1.602007    1.593181    0.091278
  H     -1.414519    1.275906   -1.414951
  H     -0.555444    2.509587   -0.824639
  H      1.754581    2.048472    0.982927
  H      2.506393    1.271611   -0.226765
  H      0.701571   -0.119178   -0.659661
  H      0.944910   -0.209454    1.082702
  H     -0.760033    1.561080    1.412378
  H     -1.412322    0.144955    0.630534

 Multiplicity           Mult            ....    1
 Number of Electrons    NEL             ....   34
 Basis Dimension        Dim             ....  100

ORBITAL ENERGIES
----------------

  NO   OCC          E(Eh)            E(eV)
   0   2.0000     -13.971716      -380.1897
   1   2.0000     -13.952645      -379.6708
   2   2.0000      -9.910055      -269.6663
   3   2.0000      -9.903712      -269.4937
   4   2.0000      -0.823498       -22.4085
   5   2.0000      -0.787982       -21.4421
   6   2.0000      -0.640659       -17.4332
   7   2.0000      -0.542327       -14.7575
   8   2.0000      -0.458541       -12.4775
   9   2.0000      -0.433276       -11.7900
  10   2.0000      -0.405357       -11.0303
  11   2.0000      -0.373865       -10.1734
  12   2.0000      -0.363144        -9.8817
  13   2.0000      -0.319608        -8.6970
  14   2.0000      -0.303618        -8.2619
  15   2.0000      -0.205887        -5.6025
  16   2.0000      -0.187072        -5.0905
  17   0.0000       0.015601         0.4245
  18   0.0000       0.046396         1.2625
  19   0.0000       0.061675         1.6783
  20   0.0000       0.066994         1.8230
  21   0.0000       0.099958         2.7200

MULLIKEN ATOMIC CHARGES
-----------------------
   0 C :   -0.251687
   1 C :   -0.260704
   2 N :   -0.637033
   3 N :   -0.690027
   4 H :    0.291027
   5 H :    0.315485
   6 H :    0.304761
   7 H :    0.311532
   8 H :    0.152949
   9 H :    0.140490
  10 H :    0.158759
  11 H :    0.164447
Sum of atomic charges:   -0.0000000

LOEWDIN ATOMIC CHARGES
----------------------
   0 C :   -0.236509
   1 C :   -0.240478
   2 N :   -0.545499
   3 N :   -0.560507
   4 H :    0.250988
   5 H :    0.258462
   6 H :    0.255549
   7 H :    0.256835
   8 H :    0.142209
   9 H :    0.126845
  10 H :    0.143269
  11 H :    0.148835

  Mayer bond orders larger than 0.100000
B(  0-C ,  1-C ) :   0.9281 B(  0-C ,  2-N ) :   1.0388 B(  0-C , 10-H ) :   0.9484
B(  0-C , 11-H ) :   0.9570 B(  1-C ,  3-N ) :   0.9963 B(  1-C ,  8-H ) :   0.9563
B(  1-C ,  9-H ) :   0.9396 B(  2-N ,  4-H ) :   0.8803 B(  2-N ,  5-H ) :   0.8667
B(  3-N ,  6-H ) :   0.8732 B(  3-N ,  7-H ) :   0.8749

Dispersion correction           -0.017023993
FINAL SINGLE POINT ENERGY      -190.431070073598

DIPOLE MOMENT
-------------
                                X             Y             Z
Electronic contribution:     -0.12029       0.73008      -0.40154
Nuclear contribution   :      0.94355      -1.28759       0.54392
                        -----------------------------------------
Total Dipole Moment    :      0.82327      -0.55752       0.14239
                        -----------------------------------------
Magnitude (a.u.)       :      1.00442
Magnitude (Debye)      :      2.55304

Rotational constants in cm-1:     0.481769     0.172637     0.146239
Rotational constants in MHz : 14443.066700  5175.540518  4384.128369

                             ****ORCA TERMINATED NORMALLY****
TOTAL RUN TIME: 0 days 0 hours 3 minutes 38 seconds 288 msec
