                         Program Version 4.2.1 -  RELEASE  -
|  1> ! DFT COPT B97-3c TightSCF printbasis  Grid6 NOFINALGRID SlowConv
|  2>
|  3> %base "_o_ami3_opt_B97-3c"
|  4> %maxcore 3000
|  5> %scf
|  6>    MaxIter 2000
|  7> end
|  8> %pal
|  9>    nprocs 32
| 10> end
| 11>
| 12> * xyzfile 0 1 o_ami3_opt.xyz
| 13> # * xyzfile 0 1 _o_ami3_opt_B97-3c.xyz
| 14>
| 15>                          ****END OF INPUT****
 Total Charge           Charge          ....    0
 Multiplicity           Mult            ....    1
 Number of Electrons    NEL             ....   64
Dispersion correction           -0.047212013
FINAL SINGLE POINT ENERGY      -346.411147448368
Dispersion correction            ... done
Dispersion correction           -0.047219190
FINAL SINGLE POINT ENERGY      -346.411695871807
Dispersion correction            ... done
Dispersion correction           -0.047231374
FINAL SINGLE POINT ENERGY      -346.411974320256
Dispersion correction            ... done
FINAL SINGLE POINT ENERGY      -346.412172655992
FINAL SINGLE POINT ENERGY      -346.412280922618
FINAL SINGLE POINT ENERGY      -346.412324919389
FINAL SINGLE POINT ENERGY      -346.412361843973
FINAL SINGLE POINT ENERGY      -346.412399578119
FINAL SINGLE POINT ENERGY      -346.412428363241
FINAL SINGLE POINT ENERGY      -346.412447795720
FINAL SINGLE POINT ENERGY      -346.412911586722
FINAL SINGLE POINT ENERGY      -346.412913808195
FINAL SINGLE POINT ENERGY      -346.412915328801
FINAL SINGLE POINT ENERGY      -346.412916819598
FINAL SINGLE POINT ENERGY      -346.412918558894
FINAL SINGLE POINT ENERGY      -346.412920535007
FINAL SINGLE POINT ENERGY      -346.412922220553
Dispersion correction            ... done
Dispersion correction           -0.047063169
FINAL SINGLE POINT ENERGY      -346.412923511805
Dispersion correction            ... done
Dispersion correction           -0.047062906
FINAL SINGLE POINT ENERGY      -346.412924603875
Dispersion correction            ... done
                    ***********************HURRAY********************

CARTESIAN COORDINATES (ANGSTROEM)
---------------------------------
  C      0.579413   -0.425617    1.917322
  C      1.748035   -0.576599    0.933916
  N      1.103042   -0.470591    3.284756
  N      2.819155    0.393908    1.125178
  H      0.377487   -0.213543    3.942072
  H      1.358800   -1.426361    3.509839
  H      2.968592    0.486194    2.124811
  H      2.491478    1.302497    0.812728
  C      1.257194   -0.534050   -0.503937
  H      2.181217   -1.570575    1.109610
  C      0.164466   -1.553867   -0.780834
  H      2.108621   -0.677700   -1.169643
  H      0.869989    0.471250   -0.707692
  C     -0.999426   -1.391923    0.185608
  H      0.577937   -2.561905   -0.683107
  H     -0.180249   -1.461784   -1.812221
  C     -0.519016   -1.447037    1.628397
  H     -1.755090   -2.159156    0.007733
  H     -1.488849   -0.430552    0.003961
  H     -0.123739   -2.446508    1.840256
  H     -1.351421   -1.292626    2.319375
  H      0.167579    0.579503    1.771406

 Multiplicity           Mult            ....    1
 Number of Electrons    NEL             ....   64
 Basis Dimension        Dim             ....  194

ORBITAL ENERGIES
----------------

  NO   OCC          E(Eh)            E(eV)
   0   2.0000     -13.969937      -380.1413
   1   2.0000     -13.949445      -379.5837
   2   2.0000      -9.911188      -269.6971
   3   2.0000      -9.905608      -269.5453
   4   2.0000      -9.884805      -268.9792
   5   2.0000      -9.884408      -268.9684
   6   2.0000      -9.882977      -268.9295
   7   2.0000      -9.879322      -268.8300
   8   2.0000      -0.831382       -22.6231
   9   2.0000      -0.790400       -21.5079
  10   2.0000      -0.741821       -20.1860
  11   2.0000      -0.666780       -18.1440
  12   2.0000      -0.642999       -17.4969
  13   2.0000      -0.552388       -15.0312
  14   2.0000      -0.538820       -14.6620
  15   2.0000      -0.511154       -13.9092
  16   2.0000      -0.445536       -12.1237
  17   2.0000      -0.435617       -11.8537
  18   2.0000      -0.417679       -11.3656
  19   2.0000      -0.403971       -10.9926
  20   2.0000      -0.386405       -10.5146
  21   2.0000      -0.375222       -10.2103
  22   2.0000      -0.355940        -9.6856
  23   2.0000      -0.352414        -9.5897
  24   2.0000      -0.331813        -9.0291
  25   2.0000      -0.303399        -8.2559
  26   2.0000      -0.300641        -8.1809
  27   2.0000      -0.287614        -7.8264
  28   2.0000      -0.281324        -7.6552
  29   2.0000      -0.271197        -7.3796
  30   2.0000      -0.202828        -5.5192
  31   2.0000      -0.185953        -5.0601
  32   0.0000       0.020440         0.5562
  33   0.0000       0.029784         0.8105
  34   0.0000       0.033181         0.9029
  35   0.0000       0.051473         1.4006
  36   0.0000       0.074895         2.0380

MULLIKEN ATOMIC CHARGES
-----------------------
   0 C :   -0.228719
   1 C :   -0.183737
   2 N :   -0.611821
   3 N :   -0.579501
   4 H :    0.308483
   5 H :    0.301439
   6 H :    0.319136
   7 H :    0.289330
   8 C :   -0.278034
   9 H :    0.130288
  10 C :   -0.296094
  11 H :    0.191713
  12 H :    0.126675
  13 C :   -0.290844
  14 H :    0.142418
  15 H :    0.171933
  16 C :   -0.235545
  17 H :    0.171632
  18 H :    0.138294
  19 H :    0.129242
  20 H :    0.157245
  21 H :    0.126467
Sum of atomic charges:   -0.0000000

LOEWDIN ATOMIC CHARGES
----------------------
   0 C :   -0.157698
   1 C :   -0.144213
   2 N :   -0.523289
   3 N :   -0.522770
   4 H :    0.256635
   5 H :    0.255569
   6 H :    0.261082
   7 H :    0.252065
   8 C :   -0.295699
   9 H :    0.147508
  10 C :   -0.297229
  11 H :    0.163776
  12 H :    0.149618
  13 C :   -0.298437
  14 H :    0.152537
  15 H :    0.154333
  16 C :   -0.308635
  17 H :    0.153765
  18 H :    0.151748
  19 H :    0.150166
  20 H :    0.150392
  21 H :    0.148776

  Mayer bond orders larger than 0.100000
B(  0-C ,  1-C ) :   0.9046 B(  0-C ,  2-N ) :   1.0671 B(  0-C , 16-C ) :   0.9368
B(  0-C , 21-H ) :   0.9401 B(  1-C ,  3-N ) :   1.0464 B(  1-C ,  8-C ) :   0.9794
B(  1-C ,  9-H ) :   0.9318 B(  2-N ,  4-H ) :   0.8802 B(  2-N ,  5-H ) :   0.8649
B(  3-N ,  6-H ) :   0.8639 B(  3-N ,  7-H ) :   0.8595 B(  8-C , 10-C ) :   0.9868
B(  8-C , 11-H ) :   0.9356 B(  8-C , 12-H ) :   0.9319 B( 10-C , 13-C ) :   0.9739
B( 10-C , 14-H ) :   0.9553 B( 10-C , 15-H ) :   0.9400 B( 13-C , 16-C ) :   0.9750
B( 13-C , 17-H ) :   0.9370 B( 13-C , 18-H ) :   0.9523 B( 16-C , 19-H ) :   0.9326
B( 16-C , 20-H ) :   0.9365

Dispersion correction           -0.047062914
FINAL SINGLE POINT ENERGY      -346.412925441610

DIPOLE MOMENT
-------------
                                X             Y             Z
Electronic contribution:      1.70613       0.86176       1.28405
Nuclear contribution   :     -2.64356      -1.05218      -1.01597
                        -----------------------------------------
Total Dipole Moment    :     -0.93743      -0.19042       0.26807
                        -----------------------------------------
Magnitude (a.u.)       :      0.99343
Magnitude (Debye)      :      2.52509

Rotational constants in cm-1:     0.091155     0.064472     0.041026
Rotational constants in MHz :  2732.771722  1932.809510  1229.914125

                             ****ORCA TERMINATED NORMALLY****
TOTAL RUN TIME: 0 days 0 hours 6 minutes 19 seconds 982 msec
