                         Program Version 4.2.1 -  RELEASE  -
|  1> ! RI-MP2 cc-pVTZ cc-pVTZ/C TIGHTSCF printbasis Grid6 NOFINALGRID SlowConv
|  2>
|  3> %base "_o_ami4_opt_MP2"
|  4> %maxcore 3000
|  5> %pal
|  6>    nprocs 32
|  7> end
|  8>
|  9> * xyzfile 0 1 _o_ami4_opt_B97-3c.xyz
| 10>
| 11>                          ****END OF INPUT****

CARTESIAN COORDINATES (ANGSTROEM)
---------------------------------
  C     -0.738154    0.989629    0.479169
  C      0.678554    0.470786    0.259171
  N     -1.270181    1.832914   -0.580953
  N      1.602007    1.593181    0.091278
  H     -1.414519    1.275906   -1.414951
  H     -0.555444    2.509587   -0.824639
  H      1.754581    2.048472    0.982927
  H      2.506393    1.271611   -0.226765
  H      0.701571   -0.119178   -0.659661
  H      0.944910   -0.209454    1.082702
  H     -0.760033    1.561080    1.412378
  H     -1.412322    0.144955    0.630534

 Total Charge           Charge          ....    0
 Multiplicity           Mult            ....    1
 Number of Electrons    NEL             ....   34
 Basis Dimension        Dim             ....  232

ORBITAL ENERGIES
----------------

  NO   OCC          E(Eh)            E(eV)
   0   2.0000     -15.540603      -422.8813
   1   2.0000     -15.522676      -422.3935
   2   2.0000     -11.245959      -306.0181
   3   2.0000     -11.238974      -305.8280
   4   2.0000      -1.195235       -32.5240
   5   2.0000      -1.149859       -31.2893
   6   2.0000      -0.952634       -25.9225
   7   2.0000      -0.812646       -22.1132
   8   2.0000      -0.680674       -18.5221
   9   2.0000      -0.648463       -17.6456
  10   2.0000      -0.616901       -16.7867
  11   2.0000      -0.575652       -15.6643
  12   2.0000      -0.557700       -15.1758
  13   2.0000      -0.506825       -13.7914
  14   2.0000      -0.486574       -13.2403
  15   2.0000      -0.403718       -10.9857
  16   2.0000      -0.378302       -10.2941
  17   0.0000       0.136192         3.7060
  18   0.0000       0.164123         4.4660
  19   0.0000       0.174308         4.7432
  20   0.0000       0.184484         5.0201
  21   0.0000       0.216532         5.8921

MULLIKEN ATOMIC CHARGES
-----------------------
   0 C :   -0.057443
   1 C :   -0.062876
   2 N :   -0.368155
   3 N :   -0.386863
   4 H :    0.125257
   5 H :    0.146367
   6 H :    0.142577
   7 H :    0.145535
   8 H :    0.077081
   9 H :    0.069087
  10 H :    0.077519
  11 H :    0.091912
Sum of atomic charges:   -0.0000000

LOEWDIN ATOMIC CHARGES
----------------------
   0 C :   -0.032109
   1 C :   -0.026136
   2 N :    0.321063
   3 N :    0.324980
   4 H :   -0.113161
   5 H :   -0.110869
   6 H :   -0.109516
   7 H :   -0.111007
   8 H :   -0.036457
   9 H :   -0.043165
  10 H :   -0.033234
  11 H :   -0.030388

  Mayer bond orders larger than 0.100000
B(  0-C ,  1-C ) :   0.9516 B(  0-C ,  2-N ) :   1.0063 B(  0-C , 10-H ) :   0.9833
B(  0-C , 11-H ) :   0.9925 B(  1-C ,  3-N ) :   0.9661 B(  1-C ,  8-H ) :   0.9789
B(  1-C ,  9-H ) :   0.9840 B(  2-N ,  4-H ) :   1.0020 B(  2-N ,  5-H ) :   0.9862
B(  3-N ,  6-H ) :   0.9867 B(  3-N ,  7-H ) :   0.9896

MP2 TOTAL ENERGY:     -190.137309692 Eh
FINAL SINGLE POINT ENERGY      -190.137309692413

DIPOLE MOMENT
-------------
                                X             Y             Z
Electronic contribution:     -0.17396       0.73277      -0.38954
Nuclear contribution   :      0.94355      -1.28759       0.54392
                        -----------------------------------------
Total Dipole Moment    :      0.76959      -0.55482       0.15438
                        -----------------------------------------
Magnitude (a.u.)       :      0.96121
Magnitude (Debye)      :      2.44320

Rotational constants in cm-1:     0.481769     0.172637     0.146239
Rotational constants in MHz : 14443.066700  5175.540518  4384.128369

                             ****ORCA TERMINATED NORMALLY****
TOTAL RUN TIME: 0 days 0 hours 10 minutes 18 seconds 655 msec
