                         Program Version 4.2.1 -  RELEASE  -
|  1> ! DFT COPT B97-3c TightSCF printbasis  Grid6 NOFINALGRID SlowConv
|  2>
|  3> %base "_o_ami2_opt_B97-3c"
|  4> %maxcore 3000
|  5> %scf
|  6>    MaxIter 2000
|  7> end
|  8> %pal
|  9>    nprocs 32
| 10> end
| 11>
| 12> * xyzfile 0 1 o_ami2_opt.xyz
| 13> # * xyzfile 0 1 _o_ami2_opt_B97-3c.xyz
| 14>
| 15>                          ****END OF INPUT****
 Total Charge           Charge          ....    0
 Multiplicity           Mult            ....    1
 Number of Electrons    NEL             ....   50
Dispersion correction           -0.033609651
FINAL SINGLE POINT ENERGY      -269.025667231486
Dispersion correction            ... done
Dispersion correction           -0.033615751
FINAL SINGLE POINT ENERGY      -269.025940485696
Dispersion correction            ... done
Dispersion correction           -0.033622837
FINAL SINGLE POINT ENERGY      -269.026151099560
Dispersion correction            ... done
FINAL SINGLE POINT ENERGY      -269.026254892720
FINAL SINGLE POINT ENERGY      -269.026377294607
FINAL SINGLE POINT ENERGY      -269.026414222080
FINAL SINGLE POINT ENERGY      -269.026442673507
FINAL SINGLE POINT ENERGY      -269.026473304180
FINAL SINGLE POINT ENERGY      -269.026507384219
FINAL SINGLE POINT ENERGY      -269.026535588401
FINAL SINGLE POINT ENERGY      -269.027040040886
FINAL SINGLE POINT ENERGY      -269.027042024037
FINAL SINGLE POINT ENERGY      -269.027044833997
FINAL SINGLE POINT ENERGY      -269.027047645338
FINAL SINGLE POINT ENERGY      -269.027049331285
FINAL SINGLE POINT ENERGY      -269.027050499924
FINAL SINGLE POINT ENERGY      -269.027051710777
Dispersion correction            ... done
Dispersion correction           -0.033543083
FINAL SINGLE POINT ENERGY      -269.027053043390
Dispersion correction            ... done
Dispersion correction           -0.033548006
FINAL SINGLE POINT ENERGY      -269.027054160902
Dispersion correction            ... done
                    ***********************HURRAY********************

CARTESIAN COORDINATES (ANGSTROEM)
---------------------------------
  C     -0.643365    0.797069    0.354629
  C      0.847029    0.451508    0.552792
  N     -0.713547    2.244370    0.094053
  C     -1.412864    0.389289    1.609119
  C     -1.211759    0.078037   -0.858880
  N      1.751766    0.806031   -0.525808
  H     -0.513475    2.751008    0.949566
  H     -1.657918    2.499514   -0.169250
  H      1.604158    0.192260   -1.316574
  H      1.501478    1.737194   -0.841206
  H      0.939354   -0.616586    0.754791
  H      1.185705    0.959689    1.461469
  H     -1.120507   -1.001716   -0.749581
  H     -0.697960    0.380762   -1.768897
  H     -2.270806    0.307215   -0.985573
  H     -1.345575   -0.683468    1.794565
  H     -2.468590    0.646179    1.519396
  H     -1.017490    0.901059    2.487660

 Multiplicity           Mult            ....    1
 Number of Electrons    NEL             ....   50
 Basis Dimension        Dim             ....  150

ORBITAL ENERGIES
----------------

  NO   OCC          E(Eh)            E(eV)
   0   2.0000     -13.969187      -380.1209
   1   2.0000     -13.952964      -379.6795
   2   2.0000      -9.921907      -269.9888
   3   2.0000      -9.902280      -269.4547
   4   2.0000      -9.880305      -268.8568
   5   2.0000      -9.880190      -268.8536
   6   2.0000      -0.832361       -22.6497
   7   2.0000      -0.789286       -21.4776
   8   2.0000      -0.693992       -18.8845
   9   2.0000      -0.630929       -17.1684
  10   2.0000      -0.597327       -16.2541
  11   2.0000      -0.504444       -13.7266
  12   2.0000      -0.451739       -12.2924
  13   2.0000      -0.437601       -11.9077
  14   2.0000      -0.407086       -11.0774
  15   2.0000      -0.398888       -10.8543
  16   2.0000      -0.383875       -10.4458
  17   2.0000      -0.349825        -9.5192
  18   2.0000      -0.340205        -9.2574
  19   2.0000      -0.330765        -9.0006
  20   2.0000      -0.316803        -8.6206
  21   2.0000      -0.307469        -8.3667
  22   2.0000      -0.295548        -8.0423
  23   2.0000      -0.205518        -5.5924
  24   2.0000      -0.187336        -5.0977
  25   0.0000       0.008718         0.2372
  26   0.0000       0.045974         1.2510
  27   0.0000       0.061409         1.6710
  28   0.0000       0.062333         1.6962
  29   0.0000       0.070215         1.9107

MULLIKEN ATOMIC CHARGES
-----------------------
   0 C :   -0.085585
   1 C :   -0.230783
   2 N :   -0.642806
   3 C :   -0.429150
   4 C :   -0.529355
   5 N :   -0.618023
   6 H :    0.306237
   7 H :    0.307089
   8 H :    0.299279
   9 H :    0.313939
  10 H :    0.164899
  11 H :    0.158203
  12 H :    0.169650
  13 H :    0.176695
  14 H :    0.160396
  15 H :    0.155385
  16 H :    0.163401
  17 H :    0.160529
Sum of atomic charges:   -0.0000000

LOEWDIN ATOMIC CHARGES
----------------------
   0 C :   -0.140149
   1 C :   -0.219985
   2 N :   -0.514219
   3 C :   -0.426560
   4 C :   -0.424383
   5 N :   -0.535087
   6 H :    0.257472
   7 H :    0.258695
   8 H :    0.252207
   9 H :    0.260101
  10 H :    0.153259
  11 H :    0.147413
  12 H :    0.159676
  13 H :    0.156620
  14 H :    0.153805
  15 H :    0.157290
  16 H :    0.152217
  17 H :    0.151630

  Mayer bond orders larger than 0.100000
B(  0-C ,  1-C ) :   0.9191 B(  0-C ,  2-N ) :   0.9855 B(  0-C ,  3-C ) :   0.9938
B(  0-C ,  4-C ) :   0.9798 B(  1-C ,  5-N ) :   1.0764 B(  1-C , 10-H ) :   0.9586
B(  1-C , 11-H ) :   0.9341 B(  2-N ,  6-H ) :   0.8638 B(  2-N ,  7-H ) :   0.8663
B(  3-C , 15-H ) :   0.9449 B(  3-C , 16-H ) :   0.9549 B(  3-C , 17-H ) :   0.9465
B(  4-C , 12-H ) :   0.9643 B(  4-C , 13-H ) :   0.9613 B(  4-C , 14-H ) :   0.9450
B(  5-N ,  8-H ) :   0.8825 B(  5-N ,  9-H ) :   0.8640

Dispersion correction           -0.033550672
FINAL SINGLE POINT ENERGY      -269.027054839093

DIPOLE MOMENT
-------------
                                X             Y             Z
Electronic contribution:      1.94903       1.50008      -0.61613
Nuclear contribution   :     -2.88003      -1.54610       0.76383
                        -----------------------------------------
Total Dipole Moment    :     -0.93100      -0.04601       0.14769
                        -----------------------------------------
Magnitude (a.u.)       :      0.94377
Magnitude (Debye)      :      2.39887

Rotational constants in cm-1:     0.149743     0.087546     0.086337
Rotational constants in MHz :  4489.184151  2624.556073  2588.332602

                             ****ORCA TERMINATED NORMALLY****
TOTAL RUN TIME: 0 days 0 hours 9 minutes 15 seconds 884 msec
