                         Program Version 4.2.1 -  RELEASE  -
|  1> ! RI-MP2 cc-pVTZ cc-pVTZ/C TIGHTSCF printbasis Grid6 NOFINALGRID SlowConv
|  2>
|  3> %base "_o_ami3_opt_MP2"
|  4> %maxcore 3000
|  5> %pal
|  6>    nprocs 32
|  7> end
|  8>
|  9> * xyzfile 0 1 _o_ami3_opt_B97-3c.xyz
| 10>
| 11>                          ****END OF INPUT****

CARTESIAN COORDINATES (ANGSTROEM)
---------------------------------
  C      0.579413   -0.425617    1.917322
  C      1.748035   -0.576599    0.933916
  N      1.103042   -0.470591    3.284756
  N      2.819155    0.393908    1.125178
  H      0.377487   -0.213543    3.942072
  H      1.358800   -1.426361    3.509839
  H      2.968592    0.486194    2.124811
  H      2.491478    1.302497    0.812728
  C      1.257194   -0.534050   -0.503937
  H      2.181217   -1.570575    1.109610
  C      0.164466   -1.553867   -0.780834
  H      2.108621   -0.677700   -1.169643
  H      0.869989    0.471250   -0.707692
  C     -0.999426   -1.391923    0.185608
  H      0.577937   -2.561905   -0.683107
  H     -0.180249   -1.461784   -1.812221
  C     -0.519016   -1.447037    1.628397
  H     -1.755090   -2.159156    0.007733
  H     -1.488849   -0.430552    0.003961
  H     -0.123739   -2.446508    1.840256
  H     -1.351421   -1.292626    2.319375
  H      0.167579    0.579503    1.771406

 Total Charge           Charge          ....    0
 Multiplicity           Mult            ....    1
 Number of Electrons    NEL             ....   64
 Basis Dimension        Dim             ....  436

ORBITAL ENERGIES
----------------

  NO   OCC          E(Eh)            E(eV)
   0   2.0000     -15.538589      -422.8265
   1   2.0000     -15.519081      -422.2957
   2   2.0000     -11.245842      -306.0149
   3   2.0000     -11.239411      -305.8399
   4   2.0000     -11.217256      -305.2371
   5   2.0000     -11.216475      -305.2158
   6   2.0000     -11.214691      -305.1673
   7   2.0000     -11.210374      -305.0498
   8   2.0000      -1.206808       -32.8389
   9   2.0000      -1.153656       -31.3926
  10   2.0000      -1.091601       -29.7040
  11   2.0000      -0.992578       -27.0094
  12   2.0000      -0.958897       -26.0929
  13   2.0000      -0.831217       -22.6186
  14   2.0000      -0.812660       -22.1136
  15   2.0000      -0.766643       -20.8614
  16   2.0000      -0.664936       -18.0938
  17   2.0000      -0.651084       -17.7169
  18   2.0000      -0.631083       -17.1726
  19   2.0000      -0.615177       -16.7398
  20   2.0000      -0.593908       -16.1611
  21   2.0000      -0.576612       -15.6904
  22   2.0000      -0.549632       -14.9562
  23   2.0000      -0.548599       -14.9281
  24   2.0000      -0.522076       -14.2064
  25   2.0000      -0.483587       -13.1591
  26   2.0000      -0.483038       -13.1441
  27   2.0000      -0.465296       -12.6613
  28   2.0000      -0.456785       -12.4298
  29   2.0000      -0.443965       -12.0809
  30   2.0000      -0.393777       -10.7152
  31   2.0000      -0.372467       -10.1353
  32   0.0000       0.139162         3.7868
  33   0.0000       0.143422         3.9027
  34   0.0000       0.148898         4.0517
  35   0.0000       0.168089         4.5739
  36   0.0000       0.191108         5.2003

MULLIKEN ATOMIC CHARGES
-----------------------
   0 C :    0.021097
   1 C :    0.041523
   2 N :   -0.392316
   3 N :   -0.380901
   4 H :    0.137607
   5 H :    0.137745
   6 H :    0.147843
   7 H :    0.121213
   8 C :   -0.200662
   9 H :    0.095090
  10 C :   -0.201178
  11 H :    0.121582
  12 H :    0.077908
  13 C :   -0.203993
  14 H :    0.090051
  15 H :    0.111576
  16 C :   -0.201010
  17 H :    0.111782
  18 H :    0.088654
  19 H :    0.081750
  20 H :    0.101709
  21 H :    0.092928
Sum of atomic charges:   -0.0000000

LOEWDIN ATOMIC CHARGES
----------------------
   0 C :   -0.091864
   1 C :   -0.097382
   2 N :    0.340895
   3 N :    0.330932
   4 H :   -0.110055
   5 H :   -0.107682
   6 H :   -0.110718
   7 H :   -0.111314
   8 C :    0.058728
   9 H :   -0.027269
  10 C :    0.057717
  11 H :   -0.021036
  12 H :   -0.027977
  13 C :    0.057656
  14 H :   -0.025918
  15 H :   -0.025807
  16 C :    0.051043
  17 H :   -0.026207
  18 H :   -0.026567
  19 H :   -0.028528
  20 H :   -0.029336
  21 H :   -0.029311

  Mayer bond orders larger than 0.100000
B(  0-C ,  1-C ) :   0.9698 B(  0-C ,  2-N ) :   0.9815 B(  0-C , 16-C ) :   0.9744
B(  0-C , 21-H ) :   0.9667 B(  1-C ,  3-N ) :   1.0240 B(  1-C ,  8-C ) :   0.9623
B(  1-C ,  9-H ) :   0.9695 B(  2-N ,  4-H ) :   0.9977 B(  2-N ,  5-H ) :   0.9937
B(  3-N ,  6-H ) :   0.9821 B(  3-N ,  7-H ) :   1.0030 B(  8-C , 10-C ) :   0.9482
B(  8-C , 11-H ) :   0.9903 B(  8-C , 12-H ) :   0.9810 B( 10-C , 13-C ) :   0.9393
B( 10-C , 14-H ) :   0.9860 B( 10-C , 15-H ) :   0.9958 B( 13-C , 16-C ) :   0.9426
B( 13-C , 17-H ) :   0.9933 B( 13-C , 18-H ) :   0.9852 B( 16-C , 19-H ) :   0.9781
B( 16-C , 20-H ) :   0.9900

MP2 TOTAL ENERGY:     -345.848138318 Eh
FINAL SINGLE POINT ENERGY      -345.848138317940

DIPOLE MOMENT
-------------
                                X             Y             Z
Electronic contribution:      1.72570       0.86192       1.26245
Nuclear contribution   :     -2.64356      -1.05218      -1.01597
                        -----------------------------------------
Total Dipole Moment    :     -0.91786      -0.19027       0.24648
                        -----------------------------------------
Magnitude (a.u.)       :      0.96924
Magnitude (Debye)      :      2.46361

Rotational constants in cm-1:     0.091155     0.064472     0.041026
Rotational constants in MHz :  2732.771722  1932.809510  1229.914125

                             ****ORCA TERMINATED NORMALLY****
TOTAL RUN TIME: 0 days 0 hours 10 minutes 40 seconds 841 msec
