                         Program Version 4.2.1 -  RELEASE  -
|  1> ! RI-MP2 cc-pVTZ cc-pVTZ/C TIGHTSCF printbasis Grid6 NOFINALGRID SlowConv
|  2>
|  3> %base "_o_ami1_opt_MP2"
|  4> %maxcore 3000
|  5> %pal
|  6>    nprocs 32
|  7> end
|  8>
|  9> * xyzfile 0 1 _o_ami1_opt_B97-3c.xyz
| 10>
| 11>                          ****END OF INPUT****

CARTESIAN COORDINATES (ANGSTROEM)
---------------------------------
  C     -0.327942   -0.524097   -0.563922
  C      0.874663   -0.508436    0.400899
  N     -0.167667   -1.669643   -1.465532
  H     -0.334800    0.435853   -1.101100
  C     -1.684739   -0.619498    0.149116
  N      0.953392   -1.708563    1.234938
  H      0.751313    0.350662    1.062587
  C      2.228200   -0.306430   -0.308027
  H     -0.952534   -1.733908   -2.097762
  H      0.649352   -1.540387   -2.047493
  H      0.725096   -2.501255    0.643686
  H      0.239826   -1.678818    1.950844
  H     -1.733292   -1.602317    0.625397
  C     -2.841118   -0.524051   -0.842543
  C     -1.848240    0.450259    1.221741
  H      2.461051   -1.235796   -0.838769
  C      3.332142   -0.087429    0.718596
  C      2.217209    0.836412   -1.315812
  H     -1.159783    0.319323    2.054076
  H     -2.856616    0.429459    1.633038
  H     -1.683998    1.448206    0.811775
  H     -3.798120   -0.548827   -0.323363
  H     -2.856702   -1.344350   -1.558164
  H     -2.797834    0.411167   -1.403208
  H      1.556873    0.654984   -2.162843
  H      3.217412    1.000216   -1.716097
  H      1.899593    1.769116   -0.845944
  H      3.333010   -0.883438    1.456753
  H      3.189364    0.860774    1.241685
  H      4.310510   -0.052647    0.239183

 Total Charge           Charge          ....    0
 Multiplicity           Mult            ....    1
 Number of Electrons    NEL             ....   82
 Basis Dimension        Dim             ....  580

ORBITAL ENERGIES
----------------

  NO   OCC          E(Eh)            E(eV)
   0   2.0000     -15.536384      -422.7665
   1   2.0000     -15.521237      -422.3543
   2   2.0000     -11.245501      -306.0056
   3   2.0000     -11.240210      -305.8617
   4   2.0000     -11.224523      -305.4348
   5   2.0000     -11.215928      -305.2009
   6   2.0000     -11.214251      -305.1553
   7   2.0000     -11.212947      -305.1198
   8   2.0000     -11.208165      -304.9897
   9   2.0000     -11.193670      -304.5952
  10   2.0000      -1.208046       -32.8726
  11   2.0000      -1.154662       -31.4199
  12   2.0000      -1.070186       -29.1212
  13   2.0000      -1.060295       -28.8521
  14   2.0000      -0.943919       -25.6854
  15   2.0000      -0.927614       -25.2417
  16   2.0000      -0.920746       -25.0548
  17   2.0000      -0.851741       -23.1770
  18   2.0000      -0.774662       -21.0796
  19   2.0000      -0.743724       -20.2378
  20   2.0000      -0.681331       -18.5400
  21   2.0000      -0.654398       -17.8071
  22   2.0000      -0.639159       -17.3924
  23   2.0000      -0.618919       -16.8417
  24   2.0000      -0.602602       -16.3976
  25   2.0000      -0.596289       -16.2258
  26   2.0000      -0.576292       -15.6817
  27   2.0000      -0.556595       -15.1457
  28   2.0000      -0.549726       -14.9588
  29   2.0000      -0.539563       -14.6823
  30   2.0000      -0.528277       -14.3751
  31   2.0000      -0.522025       -14.2050
  32   2.0000      -0.510015       -13.8782
  33   2.0000      -0.487285       -13.2597
  34   2.0000      -0.475596       -12.9416
  35   2.0000      -0.470768       -12.8103
  36   2.0000      -0.464800       -12.6479
  37   2.0000      -0.450341       -12.2544
  38   2.0000      -0.438817       -11.9408
  39   2.0000      -0.397102       -10.8057
  40   2.0000      -0.373051       -10.1512
  41   0.0000       0.133081         3.6213
  42   0.0000       0.149443         4.0666
  43   0.0000       0.154378         4.2008
  44   0.0000       0.162575         4.4239
  45   0.0000       0.182040         4.9536

MULLIKEN ATOMIC CHARGES
-----------------------
   0 C :    0.017499
   1 C :    0.009926
   2 N :   -0.392407
   3 H :    0.107817
   4 C :   -0.072181
   5 N :   -0.386961
   6 H :    0.112105
   7 C :   -0.052804
   8 H :    0.140342
   9 H :    0.145266
  10 H :    0.148573
  11 H :    0.134694
  12 H :    0.104316
  13 C :   -0.320684
  14 C :   -0.332778
  15 H :    0.096313
  16 C :   -0.320585
  17 C :   -0.327978
  18 H :    0.103519
  19 H :    0.109144
  20 H :    0.094753
  21 H :    0.104718
  22 H :    0.094083
  23 H :    0.091555
  24 H :    0.094943
  25 H :    0.110093
  26 H :    0.093264
  27 H :    0.122555
  28 H :    0.077272
  29 H :    0.093628
Sum of atomic charges:   -0.0000000

LOEWDIN ATOMIC CHARGES
----------------------
   0 C :   -0.080409
   1 C :   -0.076501
   2 N :    0.346731
   3 H :   -0.035607
   4 C :   -0.025806
   5 N :    0.351244
   6 H :   -0.025350
   7 C :   -0.028344
   8 H :   -0.115796
   9 H :   -0.112095
  10 H :   -0.110500
  11 H :   -0.118562
  12 H :   -0.027580
  13 C :    0.115637
  14 C :    0.115555
  15 H :   -0.027780
  16 C :    0.115575
  17 C :    0.110454
  18 H :   -0.033810
  19 H :   -0.027210
  20 H :   -0.028066
  21 H :   -0.027145
  22 H :   -0.035097
  23 H :   -0.029109
  24 H :   -0.037350
  25 H :   -0.026749
  26 H :   -0.028947
  27 H :   -0.031171
  28 H :   -0.032957
  29 H :   -0.033255

  Mayer bond orders larger than 0.100000
B(  0-C ,  1-C ) :   0.9614 B(  0-C ,  2-N ) :   0.9444 B(  0-C ,  3-H ) :   0.9844
B(  0-C ,  4-C ) :   0.9545 B(  1-C ,  5-N ) :   0.9893 B(  1-C ,  6-H ) :   0.9839
B(  1-C ,  7-C ) :   0.9675 B(  2-N ,  8-H ) :   0.9896 B(  2-N ,  9-H ) :   0.9899
B(  4-C , 12-H ) :   0.9712 B(  4-C , 13-C ) :   0.9546 B(  4-C , 14-C ) :   0.9469
B(  5-N , 10-H ) :   0.9844 B(  5-N , 11-H ) :   1.0082 B(  7-C , 15-H ) :   0.9741
B(  7-C , 16-C ) :   0.9609 B(  7-C , 17-C ) :   0.9453 B( 13-C , 21-H ) :   0.9880
B( 13-C , 22-H ) :   0.9883 B( 13-C , 23-H ) :   0.9797 B( 14-C , 18-H ) :   0.9836
B( 14-C , 19-H ) :   0.9882 B( 14-C , 20-H ) :   0.9785 B( 16-C , 27-H ) :   0.9762
B( 16-C , 28-H ) :   0.9835 B( 16-C , 29-H ) :   0.9900 B( 17-C , 24-H ) :   0.9822
B( 17-C , 25-H ) :   0.9881 B( 17-C , 26-H ) :   0.9796

MP2 TOTAL ENERGY:     -425.482358585 Eh
FINAL SINGLE POINT ENERGY      -425.482358584587

DIPOLE MOMENT
-------------
                                X             Y             Z
Electronic contribution:      0.50766      -3.41825       0.18276
Nuclear contribution   :     -1.11949       3.75380      -0.65409
                        -----------------------------------------
Total Dipole Moment    :     -0.61183       0.33556      -0.47133
                        -----------------------------------------
Magnitude (a.u.)       :      0.84207
Magnitude (Debye)      :      2.14038

Rotational constants in cm-1:     0.066723     0.025807     0.023974
Rotational constants in MHz :  2000.317198   773.677260   718.709253

                             ****ORCA TERMINATED NORMALLY****
TOTAL RUN TIME: 0 days 0 hours 16 minutes 21 seconds 285 msec
