                         Program Version 4.2.1 -  RELEASE  -
|  1> ! RI-MP2 cc-pVTZ cc-pVTZ/C TIGHTSCF printbasis Grid6 NOFINALGRID SlowConv
|  2>
|  3> %base "_o_water_opt_MP2"
|  4> %maxcore 3000
|  5> %pal
|  6>    nprocs 32
|  7> end
|  8>
|  9> * xyzfile 0 1 _o_water_opt_B97-3c.xyz
| 10>
| 11>                          ****END OF INPUT****

CARTESIAN COORDINATES (ANGSTROEM)
---------------------------------
  O     -0.988953    0.631005   -0.009505
  H     -0.027184    0.659517    0.028833
  H     -1.264584    1.181697    0.730799

 Total Charge           Charge          ....    0
 Multiplicity           Mult            ....    1
 Number of Electrons    NEL             ....   10
 Basis Dimension        Dim             ....   58

ORBITAL ENERGIES
----------------

  NO   OCC          E(Eh)            E(eV)
   0   2.0000     -20.556110      -559.3602
   1   2.0000      -1.343268       -36.5522
   2   2.0000      -0.705288       -19.1919
   3   2.0000      -0.578071       -15.7301
   4   2.0000      -0.504257       -13.7215
   5   0.0000       0.141535         3.8514
   6   0.0000       0.203676         5.5423
   7   0.0000       0.540631        14.7113
   8   0.0000       0.601503        16.3677
   9   0.0000       0.668774        18.1983

MULLIKEN ATOMIC CHARGES
-----------------------
   0 O :   -0.484348
   1 H :    0.242174
   2 H :    0.242174
Sum of atomic charges:   -0.0000000

LOEWDIN ATOMIC CHARGES
----------------------
   0 O :    0.354263
   1 H :   -0.177132
   2 H :   -0.177131

  Mayer bond orders larger than 0.100000
B(  0-O ,  1-H ) :   0.9934 B(  0-O ,  2-H ) :   0.9934

MP2 TOTAL ENERGY:      -76.318599188 Eh
FINAL SINGLE POINT ENERGY       -76.318599188286

DIPOLE MOMENT
-------------
                                X             Y             Z
Electronic contribution:     -0.10750      -0.09075      -0.12200
Nuclear contribution   :      0.57111       0.48211       0.64811
                        -----------------------------------------
Total Dipole Moment    :      0.46361       0.39136       0.52611
                        -----------------------------------------
Magnitude (a.u.)       :      0.80305
Magnitude (Debye)      :      2.04120

Rotational constants in cm-1:    26.662761    14.564092     9.419077
Rotational constants in MHz : 799329.464119 436620.502840 282376.829070

                             ****ORCA TERMINATED NORMALLY****
TOTAL RUN TIME: 0 days 0 hours 6 minutes 48 seconds 943 msec
