                         Program Version 4.2.1 -  RELEASE  -
|  1> ! DFT COPT B97-3c TightSCF printbasis  Grid6 NOFINALGRID SlowConv
|  2>
|  3> %base "_o_water_opt_B97-3c"
|  4> %maxcore 3000
|  5> %scf
|  6>    MaxIter 2000
|  7> end
|  8> %pal
|  9>    nprocs 32
| 10> end
| 11>
| 12> * xyzfile 0 1 o_water_opt.xyz
| 13> # * xyzfile 0 1 _o_water_opt_B97-3c.xyz
| 14>
| 15>                          ****END OF INPUT****
 Total Charge           Charge          ....    0
 Multiplicity           Mult            ....    1
 Number of Electrons    NEL             ....   10
Dispersion correction           -0.000846803
FINAL SINGLE POINT ENERGY       -76.398063041820
Dispersion correction            ... done
Dispersion correction           -0.000846857
FINAL SINGLE POINT ENERGY       -76.398164955184
Dispersion correction            ... done
Dispersion correction           -0.000847065
FINAL SINGLE POINT ENERGY       -76.398314557736
Dispersion correction            ... done
Dispersion correction           -0.000847162
FINAL SINGLE POINT ENERGY       -76.398349282647
Dispersion correction            ... done
Dispersion correction           -0.000847239
FINAL SINGLE POINT ENERGY       -76.398366472223
Dispersion correction            ... done
                    ***********************HURRAY********************

CARTESIAN COORDINATES (ANGSTROEM)
---------------------------------
  O     -0.988953    0.631005   -0.009505
  H     -0.027184    0.659517    0.028833
  H     -1.264584    1.181697    0.730799

 Multiplicity           Mult            ....    1
 Number of Electrons    NEL             ....   10
 Basis Dimension        Dim             ....   30

ORBITAL ENERGIES
----------------

  NO   OCC          E(Eh)            E(eV)
   0   2.0000     -18.744306      -510.0585
   1   2.0000      -0.931106       -25.3367
   2   2.0000      -0.481658       -13.1066
   3   2.0000      -0.338386        -9.2079
   4   2.0000      -0.256333        -6.9752
   5   0.0000       0.005510         0.1499
   6   0.0000       0.078952         2.1484
   7   0.0000       0.259406         7.0588
   8   0.0000       0.279021         7.5926
   9   0.0000       0.320767         8.7285

MULLIKEN ATOMIC CHARGES
-----------------------
   0 O :   -0.864505
   1 H :    0.432253
   2 H :    0.432252
Sum of atomic charges:   -0.0000000

LOEWDIN ATOMIC CHARGES
----------------------
   0 O :   -0.714934
   1 H :    0.357467
   2 H :    0.357467

  Mayer bond orders larger than 0.100000
B(  0-O ,  1-H ) :   0.7893 B(  0-O ,  2-H ) :   0.7893

Dispersion correction           -0.000847238
FINAL SINGLE POINT ENERGY       -76.398366919733

DIPOLE MOMENT
-------------
                                X             Y             Z
Electronic contribution:     -0.15419      -0.13016      -0.17497
Nuclear contribution   :      0.57111       0.48211       0.64811
                        -----------------------------------------
Total Dipole Moment    :      0.41693       0.35195       0.47314
                        -----------------------------------------
Magnitude (a.u.)       :      0.72219
Magnitude (Debye)      :      1.83566

Rotational constants in cm-1:    26.662761    14.564092     9.419077
Rotational constants in MHz : 799329.464119 436620.502840 282376.829070

                             ****ORCA TERMINATED NORMALLY****
TOTAL RUN TIME: 0 days 0 hours 0 minutes 28 seconds 213 msec
