 Gaussian 16, Revision C.01,
 Gaussian 16:  ES64L-G16RevC.01  3-Jul-2019

 ------------------------------------------------------------------
 # SP PBE1PBE/def2svp empiricaldispersion=GD3BJ scrf=(solvent=dmso)
 ------------------------------------------------------------------

 -----
 m2_l1
 -----
 Symbolic Z-matrix:
 Charge =  4 Multiplicity = 1

                         Standard orientation:
 ---------------------------------------------------------------------
 Center     Atomic      Atomic             Coordinates (Angstroms)
 Number     Number       Type             X           Y           Z
 ---------------------------------------------------------------------
      1         46           0        5.251901   -1.018347    1.451952
      2         46           0       -5.464100    0.912033   -1.239149
      3          6           0        3.286472   -3.082893    1.946927
      4          7           0        4.593563   -2.986498    1.652966
      5          6           0        5.145432   -4.014007    0.987530
      6          6           0        4.401440   -5.055232    0.456605
      7          6           0        3.008118   -5.068112    0.608016
      8          6           0        2.066611   -5.903340   -0.132586
      9          6           0        2.312552   -7.230170   -0.523797
     10          6           0        1.370583   -7.980673   -1.205692
     11          6           0        0.153271   -7.384666   -1.509985
     12          8           0       -0.917639   -7.924945   -2.136822
     13          6           0       -1.884160   -6.979211   -2.172778
     14          6           0       -3.171457   -7.076685   -2.684870
     15          6           0       -4.004991   -5.978376   -2.568244
     16          6           0       -3.589781   -4.792255   -1.940672
     17          6           0       -4.450885   -3.630863   -1.726756
     18          6           0       -4.272510   -2.885036   -0.548160
     19          6           0       -4.875711   -1.661513   -0.404270
     20          7           0       -5.690160   -1.134307   -1.335970
     21          6           0       -5.976659   -1.887562   -2.403480
     22          6           0       -5.392447   -3.125784   -2.629293
     23          6           0       -2.282533   -4.693570   -1.459861
     24          6           0       -1.439798   -5.776793   -1.578666
     25          6           0       -0.097399   -6.043792   -1.146148
     26          6           0        0.849322   -5.306851   -0.468781
     27          6           0        2.488979   -4.099880    1.482719
     28          1           0        2.841229   -2.317622    2.571078
     29          1           0        6.218704   -3.975626    0.841036
     30          1           0        4.898044   -5.820078   -0.118886
     31          1           0        3.247431   -7.694699   -0.251355
     32          1           0        1.568352   -9.003782   -1.480033
     33          1           0       -3.515110   -7.988648   -3.146123
     34          1           0       -5.018724   -6.054108   -2.929224
     35          1           0       -3.653219   -3.267042    0.248457
     36          1           0       -4.693237   -1.081105    0.500405
     37          1           0       -6.683511   -1.473689   -3.113793
     38          1           0       -5.637132   -3.667955   -3.527824
     39          1           0       -1.916083   -3.776809   -1.022404
     40          1           0        0.649065   -4.271793   -0.233286
     41          1           0        1.453653   -4.130826    1.781285
     42          6           0        3.306560    0.272654    3.094044
     43          7           0        4.367373   -0.534773    3.254440
     44          6           0        4.402624   -1.290494    4.360910
     45          6           0        3.349800   -1.357692    5.255295
     46          6           0        2.177464   -0.615097    5.034657
     47          6           0        0.944795   -0.796524    5.792209
     48          6           0        0.947701   -1.305057    7.105419
     49          6           0       -0.218940   -1.562491    7.796389
     50          6           0       -1.424448   -1.309015    7.156227
     51          8           0       -2.664730   -1.539533    7.624777
     52          6           0       -3.535260   -1.151401    6.662283
     53          6           0       -4.919593   -1.239055    6.698345
     54          6           0       -5.623414   -0.799366    5.591622
     55          6           0       -4.971717   -0.233093    4.488837
     56          6           0       -5.678704    0.270533    3.305655
     57          6           0       -5.367692    1.540124    2.803843
     58          6           0       -5.741925    1.882295    1.523892
     59          7           0       -6.359011    1.024405    0.691186
     60          6           0       -6.869596   -0.084288    1.250329
     61          6           0       -6.579577   -0.480467    2.545576
     62          6           0       -3.579919   -0.143416    4.462057
     63          6           0       -2.856810   -0.636145    5.535424
     64          6           0       -1.456146   -0.761068    5.851115
     65          6           0       -0.277825   -0.512227    5.173847
     66          6           0        2.232591    0.280910    3.952035
     67          1           0        3.306919    0.940999    2.235664
     68          1           0        5.296596   -1.886411    4.512410
     69          1           0        3.427628   -2.024678    6.097579
     70          1           0        1.887318   -1.478623    7.604162
     71          1           0       -0.201812   -1.953186    8.800037
     72          1           0       -5.423893   -1.638370    7.561525
     73          1           0       -6.700259   -0.852291    5.596149
     74          1           0       -4.819126    2.243210    3.409880
     75          1           0       -5.539579    2.879404    1.157240
     76          1           0       -7.504711   -0.698602    0.621718
     77          1           0       -6.985236   -1.405181    2.926152
     78          1           0       -3.073359    0.276687    3.605024
     79          1           0       -0.320435   -0.148630    4.158141
     80          1           0        1.431072    0.978353    3.775902
     81          6           0        6.046977    1.814431    2.146369
     82          7           0        5.645452    0.988414    1.169235
     83          6           0        4.992550    1.534983    0.130869
     84          6           0        4.623208    2.856259    0.095544
     85          6           0        4.854293    3.683645    1.206859
     86          6           0        4.083042    4.921067    1.305010
     87          6           0        4.512224    6.121268    1.894469
     88          6           0        3.684809    7.227111    1.999146
     89          6           0        2.382959    7.120686    1.523331
     90          8           0        1.374447    8.027627    1.574306
     91          6           0        0.273069    7.436851    1.055263
     92          6           0       -1.017657    7.937803    0.934794
     93          6           0       -2.001930    7.096641    0.442956
     94          6           0       -1.731746    5.771012    0.055040
     95          6           0       -2.756080    4.804945   -0.328443
     96          6           0       -2.529248    3.452428   -0.012056
     97          6           0       -3.424450    2.488609   -0.390427
     98          7           0       -4.570142    2.770534   -1.034910
     99          6           0       -4.827567    4.049506   -1.315508
    100          6           0       -3.959319    5.080611   -0.988517
    101          6           0       -0.417604    5.304593    0.111446
    102          6           0        0.561130    6.123917    0.624672
    103          6           0        1.944502    5.918596    0.929354
    104          6           0        2.779711    4.832151    0.814288
    105          6           0        5.676741    3.147494    2.203127
    106          1           0        6.654030    1.376606    2.932573
    107          1           0        4.724225    0.894870   -0.702520
    108          1           0        4.125054    3.241685   -0.778983
    109          1           0        5.526373    6.195959    2.254587
    110          1           0        4.035693    8.141433    2.449438
    111          1           0       -1.251945    8.944504    1.239171
    112          1           0       -3.015380    7.462025    0.397403
    113          1           0       -1.660034    3.162076    0.554330
    114          1           0       -3.229252    1.438764   -0.145183
    115          1           0       -5.765421    4.256119   -1.816194
    116          1           0       -4.216932    6.091714   -1.261193
    117          1           0       -0.147377    4.328027   -0.260720
    118          1           0        2.397542    3.911818    0.399083
    119          1           0        5.977561    3.746457    3.048550
    120          6           0        4.633091   -1.803317   -1.183589
    121          7           0        5.736077   -1.387796   -0.537896
    122          6           0        6.654912   -0.730075   -1.258944
    123          6           0        6.436230   -0.317726   -2.565962
    124          6           0        5.210182   -0.587730   -3.182336
    125          6           0        4.663700    0.039739   -4.384247
    126          6           0        5.369355    0.319151   -5.564618
    127          6           0        4.744289    0.840639   -6.685719
    128          6           0        3.379909    1.094521   -6.619837
    129          8           0        2.545797    1.533024   -7.594270
    130          6           0        1.297068    1.561407   -7.074760
    131          6           0        0.097978    1.882381   -7.700542
    132          6           0       -1.071399    1.769578   -6.967484
    133          6           0       -1.078230    1.343305   -5.628398
    134          6           0       -2.287351    1.132490   -4.836731
    135          6           0       -2.277872    0.124957   -3.857371
    136          6           0       -3.307218    0.019744   -2.956774
    137          7           0       -4.382964    0.816827   -2.986563
    138          6           0       -4.469787    1.706672   -3.985250
    139          6           0       -3.461254    1.893218   -4.914098
    140          6           0        0.136094    1.068818   -4.996886
    141          6           0        1.305031    1.172428   -5.717890
    142          6           0        2.672279    0.864381   -5.421043
    143          6           0        3.303767    0.348393   -4.312769
    144          6           0        4.359808   -1.462326   -2.484141
    145          1           0        3.921687   -2.424595   -0.647749
    146          1           0        7.581503   -0.483491   -0.753103
    147          1           0        7.191552    0.262837   -3.072013
    148          1           0        6.418709    0.077012   -5.619298
    149          1           0        5.297003    1.023679   -7.592602
    150          1           0        0.077927    2.188286   -8.733122
    151          1           0       -2.009943    1.973129   -7.460161
    152          1           0       -1.461680   -0.576341   -3.802938
    153          1           0       -3.259728   -0.736420   -2.178051
    154          1           0       -5.378866    2.298654   -4.029054
    155          1           0       -3.574801    2.650602   -5.672821
    156          1           0        0.177200    0.802597   -3.952187
    157          1           0        2.744732    0.206240   -3.399159
    158          1           0        3.469138   -1.845426   -2.955064
 ---------------------------------------------------------------------

 SCF Done:  E(RPBE1PBE) =  -4373.90313210     A.U. after   19 cycles

 The electronic state is 1-A.
 Alpha  occ. eigenvalues --  -19.30856 -19.30851 -19.30823 -19.30776 -14.48826
 Alpha  occ. eigenvalues --  -14.48710 -14.48540 -14.48453 -14.48443 -14.48221
 Alpha  occ. eigenvalues --  -14.48213 -14.47585 -10.32656 -10.32648 -10.32636
 Alpha  occ. eigenvalues --  -10.32630 -10.32625 -10.32610 -10.32596 -10.32433
 Alpha  occ. eigenvalues --  -10.32225 -10.32177 -10.32056 -10.32048 -10.32018
 Alpha  occ. eigenvalues --  -10.32015 -10.32013 -10.31997 -10.31957 -10.31950
 Alpha  occ. eigenvalues --  -10.31855 -10.31850 -10.31824 -10.31799 -10.31710
 Alpha  occ. eigenvalues --  -10.31523 -10.30683 -10.30589 -10.30576 -10.30540
 Alpha  occ. eigenvalues --  -10.30495 -10.30469 -10.30394 -10.30316 -10.28418
 Alpha  occ. eigenvalues --  -10.28399 -10.28375 -10.28298 -10.28288 -10.28258
 Alpha  occ. eigenvalues --  -10.28239 -10.28114 -10.28112 -10.28057 -10.28005
 Alpha  occ. eigenvalues --  -10.27922 -10.27896 -10.27889 -10.27876 -10.27806
 Alpha  occ. eigenvalues --  -10.27737 -10.27730 -10.27717 -10.27712 -10.27711
 Alpha  occ. eigenvalues --  -10.27707 -10.27665 -10.27610 -10.27351 -10.27227
 Alpha  occ. eigenvalues --  -10.27188 -10.27120 -10.27113 -10.27107 -10.27069
 Alpha  occ. eigenvalues --  -10.27047 -10.27029 -10.27029 -10.27026 -10.27019
 Alpha  occ. eigenvalues --  -10.27015 -10.27014 -10.27009 -10.27002 -10.26996
 Alpha  occ. eigenvalues --  -10.26983 -10.26972 -10.26878 -10.26843 -10.26837
 Alpha  occ. eigenvalues --  -10.26816 -10.26812 -10.26801 -10.26786 -10.26775
 Alpha  occ. eigenvalues --  -10.26771 -10.26755 -10.26754 -10.26657 -10.26603
 Alpha  occ. eigenvalues --   -3.57647  -3.57492  -2.25588  -2.25351  -2.25336
 Alpha  occ. eigenvalues --   -2.25335  -2.21351  -2.21094  -1.17405  -1.17276
 Alpha  occ. eigenvalues --   -1.17175  -1.17124  -1.03958  -1.03842  -1.03388
 Alpha  occ. eigenvalues --   -1.03166  -1.03083  -1.03060  -1.02773  -1.02554
 Alpha  occ. eigenvalues --   -0.92720  -0.92689  -0.92676  -0.92525  -0.92120
 Alpha  occ. eigenvalues --   -0.92092  -0.92066  -0.92011  -0.88317  -0.88194
 Alpha  occ. eigenvalues --   -0.88162  -0.88075  -0.87887  -0.87772  -0.87731
 Alpha  occ. eigenvalues --   -0.87663  -0.83418  -0.83396  -0.83375  -0.83364
 Alpha  occ. eigenvalues --   -0.83159  -0.83084  -0.83048  -0.82884  -0.82856
 Alpha  occ. eigenvalues --   -0.82804  -0.82650  -0.82362  -0.81062  -0.80986
 Alpha  occ. eigenvalues --   -0.80963  -0.80938  -0.79061  -0.78972  -0.78956
 Alpha  occ. eigenvalues --   -0.78832  -0.77566  -0.77545  -0.77474  -0.77472
 Alpha  occ. eigenvalues --   -0.71688  -0.71546  -0.71516  -0.71485  -0.71354
 Alpha  occ. eigenvalues --   -0.71326  -0.71225  -0.71157  -0.70236  -0.70215
 Alpha  occ. eigenvalues --   -0.70071  -0.69797  -0.69742  -0.69709  -0.69656
 Alpha  occ. eigenvalues --   -0.69395  -0.68036  -0.67997  -0.67940  -0.67777
 Alpha  occ. eigenvalues --   -0.65255  -0.65220  -0.65190  -0.65109  -0.63990
 Alpha  occ. eigenvalues --   -0.63933  -0.63928  -0.63740  -0.62873  -0.62837
 Alpha  occ. eigenvalues --   -0.62814  -0.62803  -0.60679  -0.60032  -0.59963
 Alpha  occ. eigenvalues --   -0.59883  -0.59683  -0.59148  -0.59074  -0.58920
 Alpha  occ. eigenvalues --   -0.57881  -0.57580  -0.57345  -0.57319  -0.57095
 Alpha  occ. eigenvalues --   -0.57067  -0.57039  -0.56912  -0.55408  -0.55339
 Alpha  occ. eigenvalues --   -0.55264  -0.55107  -0.54795  -0.54493  -0.53987
 Alpha  occ. eigenvalues --   -0.53912  -0.53667  -0.53586  -0.53047  -0.52934
 Alpha  occ. eigenvalues --   -0.52527  -0.52083  -0.52034  -0.52017  -0.51950
 Alpha  occ. eigenvalues --   -0.51908  -0.51787  -0.51760  -0.51733  -0.51713
 Alpha  occ. eigenvalues --   -0.51690  -0.51649  -0.51399  -0.50731  -0.50594
 Alpha  occ. eigenvalues --   -0.50508  -0.50333  -0.50148  -0.49487  -0.49338
 Alpha  occ. eigenvalues --   -0.49254  -0.49231  -0.49084  -0.49021  -0.48933
 Alpha  occ. eigenvalues --   -0.48854  -0.48819  -0.48698  -0.48510  -0.48336
 Alpha  occ. eigenvalues --   -0.48245  -0.48231  -0.48062  -0.47974  -0.47787
 Alpha  occ. eigenvalues --   -0.47722  -0.47657  -0.47641  -0.47442  -0.47312
 Alpha  occ. eigenvalues --   -0.47151  -0.47037  -0.46844  -0.46792  -0.46756
 Alpha  occ. eigenvalues --   -0.46631  -0.46563  -0.46055  -0.45857  -0.45704
 Alpha  occ. eigenvalues --   -0.45195  -0.45111  -0.43885  -0.43751  -0.43351
 Alpha  occ. eigenvalues --   -0.43264  -0.42847  -0.42789  -0.42567  -0.42562
 Alpha  occ. eigenvalues --   -0.42425  -0.42346  -0.42181  -0.42100  -0.41974
 Alpha  occ. eigenvalues --   -0.41942  -0.41929  -0.41816  -0.41281  -0.41239
 Alpha  occ. eigenvalues --   -0.41042  -0.40942  -0.40836  -0.40757  -0.40664
 Alpha  occ. eigenvalues --   -0.40578  -0.40559  -0.40315  -0.40201  -0.40140
 Alpha  occ. eigenvalues --   -0.39013  -0.38954  -0.38834  -0.38815  -0.38412
 Alpha  occ. eigenvalues --   -0.38222  -0.37359  -0.37315  -0.37235  -0.37145
 Alpha  occ. eigenvalues --   -0.36876  -0.36714  -0.36672  -0.36569  -0.36497
 Alpha  occ. eigenvalues --   -0.36329  -0.36274  -0.35791  -0.35605  -0.35424
 Alpha  occ. eigenvalues --   -0.34428  -0.34130  -0.33581  -0.33497  -0.33273
 Alpha  occ. eigenvalues --   -0.33094  -0.33065  -0.32743  -0.32655  -0.32503
 Alpha  occ. eigenvalues --   -0.32357  -0.32292  -0.32072  -0.31681  -0.31669
 Alpha  occ. eigenvalues --   -0.31551  -0.31197  -0.31054  -0.29671  -0.29588
 Alpha  occ. eigenvalues --   -0.29450  -0.29392  -0.29378  -0.29333  -0.26532
 Alpha  occ. eigenvalues --   -0.26485  -0.26459  -0.26450  -0.26378  -0.26325
 Alpha  occ. eigenvalues --   -0.26303  -0.26288
 Alpha virt. eigenvalues --   -0.12562  -0.12440  -0.09714  -0.09576  -0.09277
 Alpha virt. eigenvalues --   -0.09036  -0.08945  -0.08542  -0.07759  -0.07264
 Alpha virt. eigenvalues --   -0.06575  -0.06439  -0.06392  -0.06345  -0.05841

 Mulliken charges:
               1
     1  Pd   0.499138
     2  Pd   0.499400
     3  C    0.143398
     4  N   -0.313377
     5  C    0.121808
     6  C   -0.015362
     7  C    0.041463
     8  C    0.034459
     9  C   -0.011354
    10  C   -0.077775
    11  C    0.226800
    12  O   -0.249175
    13  C    0.225073
    14  C   -0.078005
    15  C   -0.007504
    16  C    0.028427
    17  C    0.045778
    18  C   -0.020696
    19  C    0.100846
    20  N   -0.335350
    21  C    0.137772
    22  C   -0.014760
    23  C   -0.062134
    24  C    0.015672
    25  C    0.014636
    26  C   -0.065332
    27  C   -0.032709
    28  H    0.077198
    29  H    0.104253
    30  H    0.060942
    31  H    0.044165
    32  H    0.041407
    33  H    0.041783
    34  H    0.043751
    35  H    0.063990
    36  H    0.121082
    37  H    0.103291
    38  H    0.060873
    39  H    0.036792
    40  H    0.037824
    41  H    0.062692
    42  C    0.136131
    43  N   -0.325506
    44  C    0.129653
    45  C   -0.033861
    46  C    0.056626
    47  C    0.043253
    48  C   -0.026088
    49  C   -0.069068
    50  C    0.217224
    51  O   -0.244242
    52  C    0.211228
    53  C   -0.072375
    54  C    0.002210
    55  C   -0.002775
    56  C    0.013610
    57  C   -0.017401
    58  C    0.135367
    59  N   -0.303274
    60  C    0.099843
    61  C    0.000709
    62  C   -0.040964
    63  C    0.023252
    64  C    0.012777
    65  C   -0.054566
    66  C   -0.031817
    67  H    0.093250
    68  H    0.103768
    69  H    0.060431
    70  H    0.045688
    71  H    0.040288
    72  H    0.040156
    73  H    0.042642
    74  H    0.062482
    75  H    0.096318
    76  H    0.105905
    77  H    0.060564
    78  H    0.035478
    79  H    0.030735
    80  H    0.060114
    81  C    0.131610
    82  N   -0.316425
    83  C    0.138430
    84  C   -0.033979
    85  C    0.043494
    86  C    0.029241
    87  C   -0.009946
    88  C   -0.080178
    89  C    0.231588
    90  O   -0.253017
    91  C    0.232088
    92  C   -0.079916
    93  C   -0.010093
    94  C    0.031753
    95  C    0.071975
    96  C   -0.041754
    97  C    0.116113
    98  N   -0.338027
    99  C    0.141189
   100  C   -0.036476
   101  C   -0.065521
   102  C    0.009483
   103  C    0.013594
   104  C   -0.067427
   105  C   -0.009227
   106  H    0.106433
   107  H    0.083334
   108  H    0.064172
   109  H    0.043893
   110  H    0.041968
   111  H    0.041318
   112  H    0.043100
   113  H    0.059775
   114  H    0.125170
   115  H    0.094265
   116  H    0.061199
   117  H    0.037903
   118  H    0.039611
   119  H    0.061129
   120  C    0.136702
   121  N   -0.317101
   122  C    0.116323
   123  C   -0.007108
   124  C    0.028426
   125  C    0.031504
   126  C   -0.002924
   127  C   -0.081956
   128  C    0.229754
   129  O   -0.251436
   130  C    0.227522
   131  C   -0.077802
   132  C   -0.012300
   133  C    0.030172
   134  C    0.066096
   135  C   -0.051215
   136  C    0.142196
   137  N   -0.304796
   138  C    0.151360
   139  C   -0.029671
   140  C   -0.062748
   141  C    0.012306
   142  C    0.015987
   143  C   -0.073284
   144  C   -0.028369
   145  H    0.087470
   146  H    0.103467
   147  H    0.061775
   148  H    0.042918
   149  H    0.041753
   150  H    0.040895
   151  H    0.043950
   152  H    0.060415
   153  H    0.087571
   154  H    0.098578
   155  H    0.059932
   156  H    0.035184
   157  H    0.042429
   158  H    0.065240
 Sum of Mulliken charges =   4.00000

 Dipole moment (field-independent basis, Debye):
    X=             -0.7885    Y=             -0.2767    Z=              0.2520  Tot=              0.8728
 Quadrupole moment (field-independent basis, Debye-Ang):
   XX=           -147.1011   YY=           -383.2548   ZZ=           -386.7525
   XY=            -36.2673   XZ=             57.8552   YZ=            -10.6335

 Normal termination of Gaussian 16 at Mon Jan  2 14:35:59 2023.
