 Gaussian 16, Revision C.01,
 Gaussian 16:  ES64L-G16RevC.01  3-Jul-2019

 ------------------------------------------------------------------
 # SP PBE1PBE/def2svp empiricaldispersion=GD3BJ scrf=(solvent=dmso)
 ------------------------------------------------------------------

 -----------
 trans_l3_lb
 -----------
 Symbolic Z-matrix:
 Charge =  4 Multiplicity = 1

                         Standard orientation:
 ---------------------------------------------------------------------
 Center     Atomic      Atomic             Coordinates (Angstroms)
 Number     Number       Type             X           Y           Z
 ---------------------------------------------------------------------
      1         46           0        7.685098    0.302374   -0.703402
      2         46           0       -6.072103    0.098315   -0.165502
      3          6           0        3.619488   -2.793013    1.183698
      4          6           0        4.952488   -2.798217    1.584098
      5          7           0        5.953487   -3.217920    0.808798
      6          6           0        5.633986   -3.671219   -0.405502
      7          6           0        4.339486   -3.687316   -0.914402
      8          6           0        3.286387   -3.226712   -0.108402
      9          6           0        1.915687   -3.169908   -0.607602
     10          6           0        1.400486   -3.678407   -1.786302
     11          6           0        0.038987   -3.363303   -1.978802
     12          6           0       -0.494411   -2.625501   -0.938702
     13         16           0        0.698390   -2.317705    0.275898
     14          6           0       -1.850110   -2.124197   -0.779502
     15          6           0       -2.385809   -1.858996    0.491498
     16          6           0       -3.657607   -1.332692    0.599598
     17          7           0       -4.412406   -1.053690   -0.477702
     18          6           0       -3.940307   -1.345991   -1.699302
     19          6           0       -2.677509   -1.882695   -1.888802
     20          1           0        2.853989   -2.452211    1.884398
     21          1           0        5.216689   -2.438818    2.584498
     22          1           0        6.458785   -4.038422   -1.023602
     23          1           0        4.167385   -4.043415   -1.931002
     24          1           0        1.983784   -4.274809   -2.488002
     25          1           0       -0.543214   -3.692301   -2.840002
     26          1           0       -1.822410   -2.074697    1.401198
     27          1           0       -4.090707   -1.118490    1.577998
     28          1           0       -4.588207   -1.115289   -2.547102
     29          1           0       -2.330110   -2.068396   -2.905302
     30          6           0        3.461898    0.515387   -0.357502
     31          6           0        4.760097    0.080283   -0.552702
     32          7           0        5.776599    0.937880   -0.747102
     33          6           0        5.519503    2.260381   -0.789902
     34          6           0        4.250905    2.764285   -0.570602
     35          6           0        3.181802    1.890188   -0.311302
     36          6           0        1.860904    2.396792    0.036698
     37          6           0        1.556607    3.527993    0.771298
     38          6           0        0.170208    3.673297    1.018098
     39          6           0       -0.576795    2.675199    0.432898
     40         16           0        0.425701    1.530896   -0.383702
     41          6           0       -2.029096    2.459403    0.375498
     42          6           0       -2.668296    2.375905   -0.869602
     43          6           0       -3.975298    1.927509   -0.927402
     44          7           0       -4.653499    1.559711    0.175098
     45          6           0       -4.101398    1.764310    1.379298
     46          6           0       -2.798197    2.226106    1.521798
     47          1           0        2.680296   -0.225811   -0.183602
     48          1           0        5.003094   -0.981618   -0.529902
     49          1           0        6.358705    2.926578   -0.990402
     50          1           0        4.100008    3.843285   -0.606402
     51          1           0        2.316609    4.211490    1.152198
     52          1           0       -0.272790    4.499098    1.575298
     53          1           0       -2.132096    2.634004   -1.784202
     54          1           0       -4.484598    1.801711   -1.885402
     55          1           0       -4.701699    1.491511    2.249698
     56          1           0       -2.366196    2.317104    2.518998
     57          6           0        9.146207    3.617170    1.523798
     58          6           0        8.919505    2.672271    0.559098
     59          7           0        7.994302    1.688374    0.737998
     60          6           0        7.281902    1.631176    1.849698
     61          6           0        7.418404    2.574075    2.887398
     62          6           0        6.628004    2.504978    4.077398
     63          6           0        5.596201    1.451981    4.226798
     64          6           0        4.492901    1.391184    3.361798
     65          6           0        3.568798    0.359187    3.459598
     66          6           0        3.733995   -0.646614    4.428698
     67          6           0        2.857191   -1.765811    4.493498
     68          6           0        2.167988   -2.769209    4.533098
     69          6           0        1.425685   -3.990107    4.606798
     70          7           0        0.363284   -4.124604    3.804598
     71          6           0       -0.332619   -5.266102    3.867098
     72          6           0       -1.486719   -5.375298    3.025598
     73          6           0       -2.495420   -5.469495    2.350898
     74          6           0       -3.698320   -5.503892    1.588098
     75          6           0       -4.910421   -5.897588    2.181198
     76          6           0       -6.101021   -5.817385    1.467698
     77          6           0       -6.109319   -5.339184    0.152398
     78          6           0       -7.377119   -5.105781   -0.578202
     79          6           0       -8.209222   -6.130078   -0.980102
     80          6           0       -9.367521   -5.868575   -1.748802
     81          6           0       -9.694517   -4.588974   -2.136902
     82          6           0       -8.883914   -3.504776   -1.725502
     83          6           0       -9.139310   -2.155775   -2.078802
     84          6           0       -8.327007   -1.156478   -1.614102
     85          7           0       -7.283308   -1.413881   -0.771702
     86          6           0       -7.004311   -2.661082   -0.437302
     87          6           0       -7.740815   -3.764480   -0.914702
     88          6           0       -4.890518   -5.004488   -0.458502
     89          6           0       -3.697919   -5.087892    0.245098
     90          6           0        0.008478   -6.324603    4.726498
     91          6           0        1.115878   -6.176306    5.552998
     92          6           0        1.841182   -4.992708    5.501598
     93          6           0        4.819695   -0.565617    5.320198
     94          6           0        5.733398    0.474480    5.221098
     95          6           0        6.874007    3.422277    5.078998
     96          6           0        7.853510    4.430174    4.926198
     97          6           0        8.599810    4.530272    3.774498
     98          6           0        8.402007    3.596872    2.730198
     99          1           0        9.902710    4.385668    1.358298
    100          1           0        9.468705    2.660669   -0.384102
    101          1           0        6.567299    0.811478    1.941098
    102          1           0        4.357803    2.165184    2.602498
    103          1           0        2.716498    0.319689    2.778598
    104          1           0       -4.915822   -6.236388    3.218698
    105          1           0       -7.042721   -6.089682    1.949298
    106          1           0       -7.952225   -7.161179   -0.728502
    107          1           0       -9.996823   -6.706073   -2.057902
    108          1           0      -10.572516   -4.397471   -2.756802
    109          1           0       -9.981809   -1.906073   -2.725702
    110          1           0       -8.487704   -0.112577   -1.883902
    111          1           0       -6.167812   -2.819484    0.242698
    112          1           0       -4.882517   -4.660188   -1.495502
    113          1           0       -2.756518   -4.815594   -0.234402
    114          1           0       -0.592125   -7.234901    4.735698
    115          1           0        1.410076   -6.977307    6.234298
    116          1           0        2.714882   -4.831211    6.134098
    117          1           0        4.949093   -1.339317    6.078898
    118          1           0        6.586298    0.514978    5.901998
    119          1           0        6.286507    3.380079    5.998498
    120          1           0        8.008412    5.144573    5.737498
    121          1           0        9.348712    5.315669    3.655998
    122          6           0        8.198187   -3.255827   -2.904102
    123          6           0        8.314390   -2.182627   -2.060702
    124          7           0        7.405793   -1.165625   -2.069502
    125          6           0        6.405893   -1.182622   -2.928802
    126          6           0        6.186490   -2.248321   -3.824602
    127          6           0        5.042590   -2.270118   -4.683502
    128          6           0        4.137193   -1.097715   -4.646002
    129          6           0        2.884893   -1.180611   -4.026102
    130          6           0        2.153597   -0.030709   -3.752302
    131          6           0        2.669300    1.230389   -4.097702
    132          6           0        2.048504    2.430291   -3.654202
    133          6           0        1.613407    3.464693   -3.183502
    134          6           0        1.199911    4.668494   -2.534002
    135          7           0       -0.085289    4.777298   -2.183402
    136          6           0       -0.465886    5.876799   -1.522902
    137          6           0       -1.845686    5.948003   -1.146502
    138          6           0       -3.019086    5.962706   -0.827202
    139          6           0       -4.384486    5.863510   -0.431702
    140          6           0       -5.427485    6.175613   -1.319602
    141          6           0       -6.749686    5.930717   -0.962502
    142          6           0       -7.052987    5.364318    0.279798
    143          6           0       -8.410489    4.868622    0.609898
    144          6           0       -9.481786    5.679826    0.916098
    145          6           0      -10.717888    5.123129    1.324298
    146          6           0      -10.885092    3.762430    1.453298
    147          6           0       -9.816495    2.892827    1.129198
    148          6           0       -9.877099    1.481527    1.248598
    149          6           0       -8.803001    0.711524    0.888698
    150          7           0       -7.667300    1.257420    0.359998
    151          6           0       -7.570596    2.570620    0.257798
    152          6           0       -8.591393    3.451923    0.668398
    153          6           0       -6.014688    5.117815    1.190698
    154          6           0       -4.695387    5.367311    0.845898
    155          6           0        0.417417    6.914996   -1.187302
    156          6           0        1.749317    6.798992   -1.568402
    157          6           0        2.155414    5.662991   -2.256102
    158          6           0        3.883001    1.305786   -4.805102
    159          6           0        4.604797    0.153284   -5.074802
    160          6           0        4.824987   -3.391817   -5.454802
    161          6           0        5.732483   -4.477220   -5.430502
    162          6           0        6.854683   -4.457723   -4.632802
    163          6           0        7.100887   -3.341124   -3.799702
    164          1           0        8.935985   -4.058429   -2.858202
    165          1           0        9.126490   -2.104830   -1.334002
    166          1           0        5.722996   -0.335420   -2.914602
    167          1           0        2.507490   -2.149710   -3.697102
    168          1           0        1.203596   -0.100706   -3.218502
    169          1           0       -5.192184    6.574413   -2.307902
    170          1           0       -7.551485    6.129620   -1.676902
    171          1           0       -9.366283    6.764925    0.875998
    172          1           0      -11.543986    5.794832    1.567898
    173          1           0      -11.830993    3.343633    1.802398
    174          1           0      -10.776200    0.999829    1.636498
    175          1           0       -8.817704   -0.371876    1.000898
    176          1           0       -6.652095    2.968417   -0.169702
    177          1           0       -6.246089    4.686916    2.167798
    178          1           0       -3.890388    5.144209    1.548298
    179          1           0        0.053120    7.787197   -0.643202
    180          1           0        2.465319    7.587890   -1.329702
    181          1           0        3.190013    5.528888   -2.574902
    182          1           0        4.273103    2.281085   -5.100802
    183          1           0        5.569797    0.224781   -5.582002
    184          1           0        3.948286   -3.437114   -6.104102
    185          1           0        5.534781   -5.344419   -6.064102
    186          1           0        7.550181   -5.298925   -4.623102
 ---------------------------------------------------------------------

 SCF Done:  E(RPBE1PBE) =  -5669.20171533     A.U. after   20 cycles

 The electronic state is 1-A.
 Alpha  occ. eigenvalues --  -89.07102 -89.06941 -14.50704 -14.49108 -14.49020
 Alpha  occ. eigenvalues --  -14.48645 -14.48589 -14.48462 -14.48317 -14.41608
 Alpha  occ. eigenvalues --  -14.41562 -14.41277 -10.33123 -10.33004 -10.32782
 Alpha  occ. eigenvalues --  -10.32683 -10.32316 -10.32303 -10.32295 -10.32276
 Alpha  occ. eigenvalues --  -10.32175 -10.31978 -10.31907 -10.31641 -10.31633
 Alpha  occ. eigenvalues --  -10.31624 -10.31590 -10.31588 -10.31424 -10.31414
 Alpha  occ. eigenvalues --  -10.31285 -10.31005 -10.30819 -10.30507 -10.30455
 Alpha  occ. eigenvalues --  -10.30439 -10.30292 -10.29764 -10.29504 -10.29401
 Alpha  occ. eigenvalues --  -10.29276 -10.29240 -10.29220 -10.29215 -10.29206
 Alpha  occ. eigenvalues --  -10.29155 -10.29087 -10.28935 -10.28880 -10.28853
 Alpha  occ. eigenvalues --  -10.28808 -10.28802 -10.28773 -10.28768 -10.28733
 Alpha  occ. eigenvalues --  -10.28724 -10.28612 -10.28581 -10.28565 -10.28554
 Alpha  occ. eigenvalues --  -10.28503 -10.28439 -10.28368 -10.28241 -10.27904
 Alpha  occ. eigenvalues --  -10.27895 -10.27774 -10.27753 -10.27642 -10.27630
 Alpha  occ. eigenvalues --  -10.27546 -10.27511 -10.27510 -10.27504 -10.27414
 Alpha  occ. eigenvalues --  -10.27410 -10.27370 -10.27270 -10.27220 -10.27178
 Alpha  occ. eigenvalues --  -10.27172 -10.27153 -10.27114 -10.27087 -10.27060
 Alpha  occ. eigenvalues --  -10.27019 -10.26975 -10.26969 -10.26968 -10.26959
 Alpha  occ. eigenvalues --  -10.26938 -10.26937 -10.26894 -10.26846 -10.26823
 Alpha  occ. eigenvalues --  -10.26781 -10.26766 -10.26748 -10.26741 -10.26740
 Alpha  occ. eigenvalues --  -10.26649 -10.26609 -10.26587 -10.26565 -10.26564
 Alpha  occ. eigenvalues --  -10.26532 -10.26526 -10.26514 -10.26468 -10.26449
 Alpha  occ. eigenvalues --  -10.26425 -10.26375 -10.26366 -10.26334 -10.26239
 Alpha  occ. eigenvalues --  -10.25997 -10.25919 -10.25854  -8.07087  -8.06984
 Alpha  occ. eigenvalues --   -6.01223  -6.01120  -6.00839  -6.00732  -6.00553
 Alpha  occ. eigenvalues --   -6.00435  -3.57835  -3.57156  -2.26383  -2.25207
 Alpha  occ. eigenvalues --   -2.25122  -2.24874  -2.21355  -2.20761  -1.04443
 Alpha  occ. eigenvalues --   -1.03735  -1.03433  -1.03213  -1.02840  -1.02775
 Alpha  occ. eigenvalues --   -1.02421  -0.99942  -0.99848  -0.98970  -0.95145
 Alpha  occ. eigenvalues --   -0.95091  -0.92958  -0.92844  -0.92629  -0.92551
 Alpha  occ. eigenvalues --   -0.90802  -0.90779  -0.90545  -0.90487  -0.89574
 Alpha  occ. eigenvalues --   -0.88856  -0.87228  -0.86015  -0.85953  -0.85861
 Alpha  occ. eigenvalues --   -0.85616  -0.85549  -0.84738  -0.84728  -0.84581
 Alpha  occ. eigenvalues --   -0.84499  -0.83827  -0.83227  -0.83121  -0.83007
 Alpha  occ. eigenvalues --   -0.82834  -0.82733  -0.82678  -0.82372  -0.82269
 Alpha  occ. eigenvalues --   -0.81934  -0.81620  -0.80421  -0.79654  -0.79557
 Alpha  occ. eigenvalues --   -0.79110  -0.79105  -0.78935  -0.78894  -0.78855
 Alpha  occ. eigenvalues --   -0.78827  -0.78713  -0.78643  -0.78431  -0.77792
 Alpha  occ. eigenvalues --   -0.76609  -0.76549  -0.75052  -0.75010  -0.71609
 Alpha  occ. eigenvalues --   -0.71253  -0.70955  -0.70868  -0.70813  -0.70658
 Alpha  occ. eigenvalues --   -0.70407  -0.70296  -0.69928  -0.69709  -0.69607
 Alpha  occ. eigenvalues --   -0.69299  -0.69206  -0.68797  -0.68664  -0.68443
 Alpha  occ. eigenvalues --   -0.68318  -0.67662  -0.67362  -0.67058  -0.67045
 Alpha  occ. eigenvalues --   -0.66757  -0.66734  -0.66337  -0.64958  -0.64943
 Alpha  occ. eigenvalues --   -0.64759  -0.64746  -0.63422  -0.63334  -0.63085
 Alpha  occ. eigenvalues --   -0.62938  -0.62131  -0.61580  -0.61244  -0.60298
 Alpha  occ. eigenvalues --   -0.59963  -0.59933  -0.58699  -0.58523  -0.58377
 Alpha  occ. eigenvalues --   -0.58124  -0.58068  -0.57957  -0.57893  -0.57803
 Alpha  occ. eigenvalues --   -0.57703  -0.57546  -0.57329  -0.57262  -0.57009
 Alpha  occ. eigenvalues --   -0.56804  -0.56488  -0.56406  -0.56238  -0.55949
 Alpha  occ. eigenvalues --   -0.55759  -0.55699  -0.55657  -0.55334  -0.54910
 Alpha  occ. eigenvalues --   -0.54197  -0.54179  -0.53884  -0.52747  -0.52476
 Alpha  occ. eigenvalues --   -0.52105  -0.52023  -0.51880  -0.51762  -0.51680
 Alpha  occ. eigenvalues --   -0.51618  -0.51542  -0.51347  -0.51220  -0.51076
 Alpha  occ. eigenvalues --   -0.51041  -0.50952  -0.50879  -0.50764  -0.50639
 Alpha  occ. eigenvalues --   -0.50538  -0.50193  -0.50184  -0.50008  -0.49895
 Alpha  occ. eigenvalues --   -0.49845  -0.49790  -0.49514  -0.49398  -0.49283
 Alpha  occ. eigenvalues --   -0.49089  -0.48960  -0.48889  -0.48584  -0.48489
 Alpha  occ. eigenvalues --   -0.48230  -0.48074  -0.47920  -0.47901  -0.47667
 Alpha  occ. eigenvalues --   -0.47582  -0.47342  -0.47163  -0.47003  -0.46934
 Alpha  occ. eigenvalues --   -0.46887  -0.46742  -0.46479  -0.46372  -0.46328
 Alpha  occ. eigenvalues --   -0.46011  -0.45978  -0.45967  -0.45770  -0.45699
 Alpha  occ. eigenvalues --   -0.45667  -0.45595  -0.45557  -0.45164  -0.44534
 Alpha  occ. eigenvalues --   -0.44424  -0.44314  -0.44226  -0.44195  -0.44113
 Alpha  occ. eigenvalues --   -0.43966  -0.43789  -0.43759  -0.43541  -0.43155
 Alpha  occ. eigenvalues --   -0.43132  -0.42925  -0.42698  -0.42495  -0.42405
 Alpha  occ. eigenvalues --   -0.42344  -0.42242  -0.42170  -0.41960  -0.41816
 Alpha  occ. eigenvalues --   -0.41723  -0.41698  -0.41634  -0.41596  -0.41516
 Alpha  occ. eigenvalues --   -0.41488  -0.41341  -0.41269  -0.41167  -0.41057
 Alpha  occ. eigenvalues --   -0.40972  -0.40116  -0.39954  -0.39783  -0.39679
 Alpha  occ. eigenvalues --   -0.39033  -0.38731  -0.38608  -0.38571  -0.38461
 Alpha  occ. eigenvalues --   -0.38409  -0.38171  -0.38037  -0.37886  -0.37764
 Alpha  occ. eigenvalues --   -0.37680  -0.37581  -0.37366  -0.36947  -0.36661
 Alpha  occ. eigenvalues --   -0.36416  -0.36334  -0.36166  -0.35857  -0.35326
 Alpha  occ. eigenvalues --   -0.35002  -0.34890  -0.34582  -0.34491  -0.34430
 Alpha  occ. eigenvalues --   -0.34293  -0.34057  -0.33756  -0.33731  -0.33504
 Alpha  occ. eigenvalues --   -0.33246  -0.33129  -0.32992  -0.32798  -0.32772
 Alpha  occ. eigenvalues --   -0.32555  -0.32328  -0.31499  -0.31411  -0.31305
 Alpha  occ. eigenvalues --   -0.31110  -0.30988  -0.30786  -0.30687  -0.30604
 Alpha  occ. eigenvalues --   -0.30315  -0.30212  -0.30004  -0.29784  -0.29607
 Alpha  occ. eigenvalues --   -0.29526  -0.29440  -0.29349  -0.29288  -0.29279
 Alpha  occ. eigenvalues --   -0.29072  -0.29049  -0.28698  -0.27913  -0.27627
 Alpha  occ. eigenvalues --   -0.27428  -0.27306  -0.26790  -0.26085  -0.26067
 Alpha  occ. eigenvalues --   -0.25989  -0.25260  -0.24854
 Alpha virt. eigenvalues --   -0.13718  -0.11079  -0.10648  -0.09819  -0.09670
 Alpha virt. eigenvalues --   -0.09571  -0.09291  -0.09143  -0.08039  -0.07964
 Alpha virt. eigenvalues --   -0.07649  -0.07334  -0.06660  -0.06622  -0.06537

 Mulliken charges:
               1
     1  Pd   0.767937
     2  Pd   0.483359
     3  C   -0.099534
     4  C    0.049995
     5  N   -0.200320
     6  C    0.040019
     7  C   -0.069248
     8  C    0.086252
     9  C   -0.101368
    10  C   -0.018482
    11  C    0.013185
    12  C   -0.101306
    13  S    0.144873
    14  C    0.070219
    15  C   -0.046810
    16  C    0.151353
    17  N   -0.347676
    18  C    0.144586
    19  C   -0.036746
    20  H    0.062636
    21  H    0.063737
    22  H    0.061182
    23  H    0.053364
    24  H    0.066785
    25  H    0.060030
    26  H    0.069362
    27  H    0.116382
    28  H    0.116409
    29  H    0.069618
    30  C   -0.021955
    31  C    0.134487
    32  N   -0.362243
    33  C    0.160403
    34  C   -0.041565
    35  C    0.095644
    36  C   -0.140059
    37  C    0.003250
    38  C    0.055497
    39  C   -0.139571
    40  S    0.195877
    41  C    0.016523
    42  C    0.003984
    43  C    0.143059
    44  N   -0.336685
    45  C    0.119819
    46  C    0.008944
    47  H    0.051959
    48  H    0.089095
    49  H    0.119088
    50  H    0.069509
    51  H    0.061427
    52  H    0.055026
    53  H    0.062896
    54  H    0.121623
    55  H    0.116893
    56  H    0.070368
    57  C   -0.030301
    58  C    0.145706
    59  N   -0.347166
    60  C    0.168877
    61  C   -0.021538
    62  C    0.032134
    63  C   -0.075332
    64  C   -0.025293
    65  C    0.013604
    66  C   -0.101341
    67  C   -0.033328
    68  C    0.054351
    69  C   -0.057744
    70  N   -0.181574
    71  C   -0.054358
    72  C    0.043894
    73  C   -0.032535
    74  C   -0.078491
    75  C    0.008595
    76  C    0.017320
    77  C   -0.092875
    78  C    0.033985
    79  C   -0.011590
    80  C    0.001880
    81  C   -0.003572
    82  C    0.036591
    83  C   -0.026043
    84  C    0.121431
    85  N   -0.336512
    86  C    0.173408
    87  C   -0.029650
    88  C   -0.028974
    89  C    0.013821
    90  C    0.013086
    91  C    0.037160
    92  C    0.011948
    93  C    0.012093
    94  C    0.012839
    95  C   -0.015087
    96  C    0.005683
    97  C   -0.002742
    98  C    0.037298
    99  H    0.065382
   100  H    0.104207
   101  H    0.115753
   102  H    0.046885
   103  H    0.040997
   104  H    0.043156
   105  H    0.042803
   106  H    0.045619
   107  H    0.061465
   108  H    0.047459
   109  H    0.061464
   110  H    0.109955
   111  H    0.109594
   112  H    0.048535
   113  H    0.044530
   114  H    0.052141
   115  H    0.063667
   116  H    0.051540
   117  H    0.045488
   118  H    0.044839
   119  H    0.047963
   120  H    0.062840
   121  H    0.049369
   122  C   -0.029953
   123  C    0.137653
   124  N   -0.324310
   125  C    0.141389
   126  C   -0.022350
   127  C    0.026434
   128  C   -0.090143
   129  C    0.025408
   130  C    0.010302
   131  C   -0.082816
   132  C   -0.017517
   133  C    0.045438
   134  C   -0.058550
   135  N   -0.165416
   136  C   -0.059415
   137  C    0.057608
   138  C   -0.034280
   139  C   -0.082556
   140  C    0.008868
   141  C    0.023697
   142  C   -0.110002
   143  C    0.031932
   144  C   -0.011589
   145  C    0.000249
   146  C   -0.003676
   147  C    0.041296
   148  C   -0.031674
   149  C    0.124064
   150  N   -0.331872
   151  C    0.193327
   152  C   -0.042420
   153  C   -0.016057
   154  C    0.002391
   155  C    0.016519
   156  C    0.039250
   157  C   -0.000055
   158  C    0.013523
   159  C   -0.031107
   160  C   -0.012915
   161  C    0.002586
   162  C    0.005452
   163  C    0.017554
   164  H    0.066859
   165  H    0.107177
   166  H    0.128285
   167  H    0.028162
   168  H    0.037971
   169  H    0.043025
   170  H    0.042451
   171  H    0.044327
   172  H    0.060840
   173  H    0.046578
   174  H    0.060230
   175  H    0.106801
   176  H    0.105581
   177  H    0.048722
   178  H    0.046099
   179  H    0.050883
   180  H    0.062532
   181  H    0.053825
   182  H    0.044768
   183  H    0.050824
   184  H    0.047197
   185  H    0.063417
   186  H    0.048783
 Sum of Mulliken charges =   4.00000

 Dipole moment (field-independent basis, Debye):
    X=              9.1985    Y=              4.1545    Z=             -4.8349  Tot=             11.1914
 Quadrupole moment (field-independent basis, Debye-Ang):
   XX=            248.8862   YY=           -455.1452   ZZ=           -568.0756
   XY=             55.0880   XZ=            -12.8848   YZ=             60.7141

 Normal termination of Gaussian 16 at Sat Jun  3 03:58:37 2023.
