 Gaussian 16, Revision C.01,
 Gaussian 16:  ES64L-G16RevC.01  3-Jul-2019

 ------------------------------------------------------------------
 # SP PBE1PBE/def2svp empiricaldispersion=GD3BJ scrf=(solvent=dmso)
 ------------------------------------------------------------------

 -----------
 trans_l1_lc
 -----------
 Symbolic Z-matrix:
 Charge =  4 Multiplicity = 1

                         Standard orientation:
 ---------------------------------------------------------------------
 Center     Atomic      Atomic             Coordinates (Angstroms)
 Number     Number       Type             X           Y           Z
 ---------------------------------------------------------------------
      1         46           0        6.317699    0.738808   -1.000301
      2         46           0       -7.611801    1.316497    0.285799
      3          6           0        4.040298    2.194806    0.252499
      4          7           0        4.857298    2.157007   -0.812701
      5          6           0        4.766997    3.130607   -1.733901
      6          6           0        3.883196    4.185906   -1.606101
      7          6           0        3.027096    4.253505   -0.497301
      8          6           0        2.090095    5.384605   -0.346501
      9          6           0        2.543694    6.692105   -0.628701
     10          6           0        1.702293    7.795504   -0.551501
     11          6           0        0.379994    7.548503   -0.210601
     12          8           0       -0.604107    8.484403   -0.146101
     13          6           0       -1.754907    7.824102    0.149899
     14          6           0       -3.014907    8.400301    0.242999
     15          6           0       -4.082506    7.542600    0.486199
     16          6           0       -3.893905    6.155200    0.659499
     17          6           0       -5.036705    5.241399    0.837299
     18          6           0       -4.951104    4.134499    1.692399
     19          6           0       -5.948003    3.178098    1.680999
     20          7           0       -7.020403    3.250097    0.869499
     21          6           0       -7.171804    4.362697    0.135199
     22          6           0       -6.223705    5.374598    0.103999
     23          6           0       -2.606405    5.605701    0.587799
     24          6           0       -1.528406    6.444702    0.314699
     25          6           0       -0.109805    6.260003    0.076099
     26          6           0        0.758195    5.167604    0.026799
     27          6           0        3.112897    3.210106    0.434599
     28          1           0        4.148298    1.396806    0.989699
     29          1           0        5.428297    3.060507   -2.598301
     30          1           0        3.851596    4.944606   -2.388901
     31          1           0        3.590694    6.844906   -0.899001
     32          1           0        2.056693    8.805105   -0.762001
     33          1           0       -3.158508    9.473701    0.114699
     34          1           0       -5.089607    7.958799    0.557699
     35          1           0       -4.095604    3.994900    2.354399
     36          1           0       -5.867502    2.301298    2.320199
     37          1           0       -8.058804    4.433897   -0.493201
     38          1           0       -6.386205    6.223798   -0.561301
     39          1           0       -2.456904    4.529001    0.688999
     40          1           0        0.394396    4.157403    0.226799
     41          1           0        2.486397    3.199405    1.327799
     42          6           0        5.090501   -1.444893    0.539499
     43          7           0        4.944700   -0.696693   -0.568001
     44          6           0        3.863300   -0.881794   -1.343001
     45          6           0        2.890001   -1.814995   -1.029301
     46          6           0        3.012402   -2.599695    0.128199
     47          6           0        1.971802   -3.568995    0.512099
     48          6           0        2.319403   -4.781495    1.145899
     49          6           0        1.364404   -5.726396    1.508299
     50          6           0        0.039504   -5.410197    1.240999
     51          8           0       -1.046095   -6.184498    1.530999
     52          6           0       -2.144796   -5.486399    1.134699
     53          6           0       -3.468696   -5.884000    1.267399
     54          6           0       -4.444196   -4.983801    0.848999
     55          6           0       -4.122497   -3.714800    0.315199
     56          6           0       -5.159198   -2.716001   -0.005001
     57          6           0       -4.816099   -1.519001   -0.655701
     58          6           0       -5.728500   -0.492102   -0.748501
     59          7           0       -6.987400   -0.583403   -0.281401
     60          6           0       -7.381099   -1.761803    0.227699
     61          6           0       -6.508498   -2.832702    0.377299
     62          6           0       -2.772698   -3.361499    0.172999
     63          6           0       -1.785997   -4.246798    0.579399
     64          6           0       -0.342397   -4.200797    0.635499
     65          6           0        0.627002   -3.279296    0.254299
     66          6           0        4.160402   -2.399594    0.909599
     67          1           0        5.979701   -1.259292    1.145199
     68          1           0        3.787700   -0.263794   -2.239501
     69          1           0        2.044601   -1.940795   -1.706401
     70          1           0        3.371804   -5.002394    1.332699
     71          1           0        1.642505   -6.669896    1.978799
     72          1           0       -3.732695   -6.855100    1.687099
     73          1           0       -5.488896   -5.280801    0.949899
     74          1           0       -3.823099   -1.345600   -1.064401
     75          1           0       -5.414201    0.462899   -1.172701
     76          1           0       -8.412999   -1.828704    0.577299
     77          1           0       -6.890297   -3.734102    0.855799
     78          1           0       -2.472898   -2.388399   -0.211401
     79          1           0        0.334901   -2.332797   -0.204501
     80          1           0        4.320902   -2.957393    1.832499
     81          6           0       -9.697103    3.095895   -2.949801
     82          6           0       -9.118802    2.581496   -4.139001
     83          6           0       -8.082502    1.617297   -3.988901
     84          6           0       -7.518901    0.961597   -5.127101
     85          6           0       -7.919702    1.376297   -6.380901
     86          6           0       -8.905602    2.379296   -6.533201
     87          6           0       -9.519403    2.955895   -5.442701
     88          6           0       -6.590400   -0.168602   -4.896401
     89          6           0       -7.051199   -1.278103   -4.167601
     90          6           0       -6.192199   -2.307102   -3.817901
     91          6           0       -4.835399   -2.251701   -4.186401
     92          6           0       -3.946998   -3.269300   -3.740701
     93          6           0       -3.216997   -4.141100   -3.303201
     94          6           0       -2.360396   -5.149299   -2.777901
     95          6           0       -2.895495   -6.310999   -2.192701
     96          6           0       -2.045995   -7.273299   -1.656101
     97          6           0       -0.666095   -7.100997   -1.691101
     98          6           0       -0.115096   -5.947197   -2.279101
     99          6           0        1.293104   -5.740296   -2.308601
    100          6           0        2.492604   -5.529695   -2.323301
    101          6           0        3.888404   -5.257194   -2.294301
    102          6           0        4.456203   -4.319193   -3.175701
    103          6           0        5.809503   -4.017592   -3.106201
    104          6           0        6.634803   -4.633392   -2.152501
    105          6           0        8.062203   -4.269790   -1.996601
    106          6           0        8.448002   -2.926790   -1.682601
    107          6           0        9.815402   -2.610689   -1.429501
    108          6           0       10.114901   -1.280389   -1.046101
    109          6           0        9.115100   -0.354090   -0.919601
    110          7           0        7.810300   -0.659891   -1.178501
    111          6           0        7.501101   -1.891391   -1.549201
    112          6           0       10.795402   -3.625388   -1.533901
    113          6           0       10.410604   -4.908989   -1.845401
    114          6           0        9.051604   -5.232190   -2.059601
    115          6           0        6.073604   -5.593092   -1.297601
    116          6           0        4.722204   -5.904293   -1.364901
    117          6           0       -0.969596   -4.978098   -2.822301
    118          6           0       -4.382799   -1.164700   -4.955501
    119          6           0       -5.253300   -0.138801   -5.309301
    120          6           0       -7.608501    1.351797   -2.689001
    121          7           0       -8.139502    1.876397   -1.604101
    122          6           0       -9.216203    2.708596   -1.727401
    123          1           0      -10.534703    3.793295   -3.000301
    124          1           0       -7.501201    0.894397   -7.267101
    125          1           0       -9.206403    2.673796   -7.541001
    126          1           0      -10.310103    3.697595   -5.570901
    127          1           0       -8.098099   -1.322103   -3.857701
    128          1           0       -6.557498   -3.153902   -3.234101
    129          1           0       -3.977795   -6.442300   -2.151701
    130          1           0       -2.467394   -8.168099   -1.193301
    131          1           0       -0.002694   -7.852097   -1.259201
    132          1           0        3.823203   -3.824994   -3.914701
    133          1           0        6.233402   -3.294292   -3.806801
    134          1           0       11.144300   -0.990488   -0.829901
    135          1           0        9.328399    0.663111   -0.597701
    136          1           0        6.452201   -2.099992   -1.743701
    137          1           0       11.843502   -3.379187   -1.352701
    138          1           0       11.160904   -5.698888   -1.922301
    139          1           0        8.777305   -6.264190   -2.288301
    140          1           0        6.704004   -6.080092   -0.550201
    141          1           0        4.294805   -6.640994   -0.682401
    142          1           0       -0.548797   -4.076397   -3.269101
    143          1           0       -3.334000   -1.118700   -5.254401
    144          1           0       -4.882101    0.716199   -5.878701
    145          1           0       -6.758901    0.685198   -2.566601
    146          1           0       -9.673503    3.055495   -0.799601
    147          6           0       -9.132101    0.204696    3.981199
    148          6           0       -8.231900   -0.727304    4.552099
    149          6           0       -6.949900   -0.882903    3.937799
    150          6           0       -5.994299   -1.788002    4.502199
    151          6           0       -6.390798   -2.554002    5.586399
    152          6           0       -7.669498   -2.423703    6.166099
    153          6           0       -8.572499   -1.507504    5.679899
    154          6           0       -4.593199   -1.882301    4.042399
    155          6           0       -3.812500   -0.727600    3.869499
    156          6           0       -2.443500   -0.818899    3.659599
    157          6           0       -1.808399   -2.073698    3.632099
    158          6           0       -0.388299   -2.152197    3.609799
    159          6           0        0.824701   -2.180896    3.721399
    160          6           0        2.229901   -2.169895    3.948299
    161          6           0        2.921702   -3.355795    4.258799
    162          6           0        4.284502   -3.314294    4.538499
    163          6           0        4.977701   -2.106993    4.514499
    164          6           0        4.302500   -0.912494    4.198099
    165          6           0        5.011499    0.320607    4.119299
    166          6           0        5.636899    1.358508    3.985199
    167          6           0        6.420698    2.486708    3.609299
    168          6           0        7.825298    2.396709    3.616799
    169          6           0        8.587397    3.330910    2.927099
    170          6           0        7.968296    4.370909    2.220299
    171          6           0        8.675396    4.963410    1.053899
    172          6           0        8.549196    4.197310   -0.150001
    173          6           0        9.178296    4.606610   -1.358901
    174          6           0        8.995997    3.782010   -2.500301
    175          6           0        8.228397    2.646410   -2.422601
    176          7           0        7.624198    2.279509   -1.257701
    177          6           0        7.783597    3.016109   -0.173601
    178          6           0        9.938595    5.802011   -1.349401
    179          6           0       10.048194    6.531111   -0.186401
    180          6           0        9.420995    6.118311    1.017199
    181          6           0        6.586996    4.559608    2.363199
    182          6           0        5.817597    3.631208    3.055399
    183          6           0        2.929400   -0.954195    3.914499
    184          6           0       -2.597498   -3.233399    3.737099
    185          6           0       -3.966798   -3.134800    3.932299
    186          6           0       -6.716900   -0.181602    2.734699
    187          7           0       -7.608001    0.638097    2.202599
    188          6           0       -8.794301    0.868196    2.835299
    189          1           0      -10.104601    0.382095    4.442499
    190          1           0       -5.675298   -3.244701    6.036599
    191          1           0       -7.926598   -3.041203    7.029199
    192          1           0       -9.552599   -1.378305    6.142999
    193          1           0       -4.264901    0.260500    3.977699
    194          1           0       -1.843400    0.088702    3.574799
    195          1           0        2.379603   -4.302195    4.280399
    196          1           0        4.815303   -4.237493    4.779899
    197          1           0        6.046501   -2.077892    4.733099
    198          1           0        8.306998    1.536710    4.085699
    199          1           0        9.666897    3.187711    2.838999
    200          1           0        9.463096    4.049111   -3.449701
    201          1           0        8.066398    1.994210   -3.282101
    202          1           0        7.275197    2.670309    0.725699
    203          1           0       10.430195    6.134711   -2.265701
    204          1           0       10.634094    7.452912   -0.183301
    205          1           0        9.534694    6.722211    1.919599
    206          1           0        6.094995    5.377608    1.831399
    207          1           0        4.732097    3.737907    3.088299
    208          1           0        2.399700   -0.032895    3.667999
    209          1           0       -2.121097   -4.213899    3.698199
    210          1           0       -4.561097   -4.045801    4.027599
    211          1           0       -5.788800   -0.334802    2.179299
    212          1           0       -9.468902    1.582695    2.362099
 ---------------------------------------------------------------------

 SCF Done:  E(RPBE1PBE) =  -5604.99933820     A.U. after   21 cycles

 The electronic state is 1-A.
 Alpha  occ. eigenvalues --  -19.30235 -19.30174 -14.48747 -14.48658 -14.48438
 Alpha  occ. eigenvalues --  -14.48413 -14.48380 -14.48253 -14.48131 -14.47842
 Alpha  occ. eigenvalues --  -10.32808 -10.32278 -10.32254 -10.32237 -10.32230
 Alpha  occ. eigenvalues --  -10.32178 -10.32073 -10.31956 -10.31948 -10.31918
 Alpha  occ. eigenvalues --  -10.31913 -10.31822 -10.31792 -10.31780 -10.31473
 Alpha  occ. eigenvalues --  -10.31388 -10.31224 -10.31171 -10.31139 -10.30701
 Alpha  occ. eigenvalues --  -10.30586 -10.30267 -10.30158 -10.30003 -10.29238
 Alpha  occ. eigenvalues --  -10.29224 -10.29206 -10.29122 -10.28922 -10.28783
 Alpha  occ. eigenvalues --  -10.28762 -10.28743 -10.28743 -10.28733 -10.28714
 Alpha  occ. eigenvalues --  -10.28686 -10.28599 -10.28526 -10.28464 -10.28453
 Alpha  occ. eigenvalues --  -10.28422 -10.28320 -10.28275 -10.28242 -10.28240
 Alpha  occ. eigenvalues --  -10.28200 -10.28133 -10.28081 -10.28060 -10.28054
 Alpha  occ. eigenvalues --  -10.28044 -10.28001 -10.27953 -10.27897 -10.27752
 Alpha  occ. eigenvalues --  -10.27724 -10.27706 -10.27661 -10.27619 -10.27612
 Alpha  occ. eigenvalues --  -10.27551 -10.27534 -10.27460 -10.27404 -10.27399
 Alpha  occ. eigenvalues --  -10.27328 -10.27298 -10.27288 -10.27271 -10.27227
 Alpha  occ. eigenvalues --  -10.27222 -10.27153 -10.27098 -10.27097 -10.27082
 Alpha  occ. eigenvalues --  -10.27031 -10.27011 -10.27010 -10.26979 -10.26966
 Alpha  occ. eigenvalues --  -10.26961 -10.26933 -10.26876 -10.26866 -10.26854
 Alpha  occ. eigenvalues --  -10.26822 -10.26810 -10.26808 -10.26750 -10.26704
 Alpha  occ. eigenvalues --  -10.26685 -10.26680 -10.26673 -10.26668 -10.26660
 Alpha  occ. eigenvalues --  -10.26614 -10.26557 -10.26509 -10.26488 -10.26488
 Alpha  occ. eigenvalues --  -10.26466 -10.26422 -10.26419 -10.26419 -10.26398
 Alpha  occ. eigenvalues --  -10.26367 -10.26362 -10.26319 -10.26318 -10.26312
 Alpha  occ. eigenvalues --  -10.26274 -10.26264 -10.26215 -10.26170 -10.26166
 Alpha  occ. eigenvalues --  -10.26157 -10.26056 -10.25960 -10.25904 -10.25800
 Alpha  occ. eigenvalues --  -10.25743 -10.25707 -10.25672 -10.25486  -3.57319
 Alpha  occ. eigenvalues --   -3.56980  -2.25547  -2.24928  -2.24700  -2.24694
 Alpha  occ. eigenvalues --   -2.21071  -2.20591  -1.16423  -1.16162  -1.03449
 Alpha  occ. eigenvalues --   -1.03419  -1.02922  -1.02789  -1.02577  -1.02560
 Alpha  occ. eigenvalues --   -1.02293  -1.02204  -0.92783  -0.92661  -0.92622
 Alpha  occ. eigenvalues --   -0.92415  -0.91965  -0.91926  -0.91505  -0.91429
 Alpha  occ. eigenvalues --   -0.91269  -0.90875  -0.90594  -0.90434  -0.90417
 Alpha  occ. eigenvalues --   -0.90278  -0.87662  -0.87594  -0.87254  -0.87188
 Alpha  occ. eigenvalues --   -0.85685  -0.85606  -0.85598  -0.85342  -0.83824
 Alpha  occ. eigenvalues --   -0.83536  -0.82962  -0.82919  -0.82897  -0.82788
 Alpha  occ. eigenvalues --   -0.82629  -0.82624  -0.82541  -0.82460  -0.82421
 Alpha  occ. eigenvalues --   -0.82237  -0.82168  -0.81937  -0.81591  -0.81436
 Alpha  occ. eigenvalues --   -0.80597  -0.80529  -0.80418  -0.80241  -0.78944
 Alpha  occ. eigenvalues --   -0.78797  -0.78765  -0.78712  -0.78561  -0.78434
 Alpha  occ. eigenvalues --   -0.78418  -0.78349  -0.78284  -0.78169  -0.77131
 Alpha  occ. eigenvalues --   -0.76993  -0.75317  -0.75088  -0.74691  -0.74462
 Alpha  occ. eigenvalues --   -0.71095  -0.70940  -0.70889  -0.70838  -0.70776
 Alpha  occ. eigenvalues --   -0.70702  -0.70652  -0.70308  -0.69741  -0.69635
 Alpha  occ. eigenvalues --   -0.69328  -0.69246  -0.69039  -0.68795  -0.68733
 Alpha  occ. eigenvalues --   -0.68671  -0.68172  -0.68070  -0.67960  -0.67807
 Alpha  occ. eigenvalues --   -0.67277  -0.67227  -0.65807  -0.65558  -0.65462
 Alpha  occ. eigenvalues --   -0.65144  -0.64788  -0.64579  -0.64572  -0.64521
 Alpha  occ. eigenvalues --   -0.64434  -0.64416  -0.63264  -0.63211  -0.63094
 Alpha  occ. eigenvalues --   -0.62988  -0.62903  -0.62763  -0.62535  -0.62377
 Alpha  occ. eigenvalues --   -0.59920  -0.59512  -0.59363  -0.59224  -0.59123
 Alpha  occ. eigenvalues --   -0.58395  -0.58232  -0.58153  -0.58029  -0.57947
 Alpha  occ. eigenvalues --   -0.57707  -0.57538  -0.57518  -0.57334  -0.57219
 Alpha  occ. eigenvalues --   -0.57038  -0.56787  -0.56747  -0.56631  -0.56444
 Alpha  occ. eigenvalues --   -0.56382  -0.56154  -0.55983  -0.55792  -0.55623
 Alpha  occ. eigenvalues --   -0.55529  -0.54907  -0.54765  -0.53985  -0.53579
 Alpha  occ. eigenvalues --   -0.52924  -0.52760  -0.52082  -0.51880  -0.51834
 Alpha  occ. eigenvalues --   -0.51745  -0.51635  -0.51380  -0.51363  -0.51283
 Alpha  occ. eigenvalues --   -0.51201  -0.51178  -0.51145  -0.50999  -0.50966
 Alpha  occ. eigenvalues --   -0.50831  -0.50753  -0.50685  -0.50651  -0.50552
 Alpha  occ. eigenvalues --   -0.50478  -0.50384  -0.50231  -0.50151  -0.50108
 Alpha  occ. eigenvalues --   -0.49829  -0.49668  -0.49580  -0.49395  -0.49385
 Alpha  occ. eigenvalues --   -0.49223  -0.49090  -0.48927  -0.48718  -0.48625
 Alpha  occ. eigenvalues --   -0.48579  -0.48484  -0.48371  -0.48290  -0.48205
 Alpha  occ. eigenvalues --   -0.47961  -0.47866  -0.47756  -0.47685  -0.47613
 Alpha  occ. eigenvalues --   -0.47571  -0.47485  -0.47416  -0.47306  -0.47219
 Alpha  occ. eigenvalues --   -0.47183  -0.46918  -0.46755  -0.46665  -0.46553
 Alpha  occ. eigenvalues --   -0.46539  -0.46448  -0.46348  -0.46128  -0.46053
 Alpha  occ. eigenvalues --   -0.45824  -0.45736  -0.45689  -0.45574  -0.45542
 Alpha  occ. eigenvalues --   -0.45473  -0.45444  -0.45385  -0.45152  -0.44451
 Alpha  occ. eigenvalues --   -0.44247  -0.44197  -0.43764  -0.43524  -0.43427
 Alpha  occ. eigenvalues --   -0.43290  -0.43264  -0.43000  -0.42863  -0.42593
 Alpha  occ. eigenvalues --   -0.42439  -0.42367  -0.42245  -0.42191  -0.42098
 Alpha  occ. eigenvalues --   -0.41961  -0.41809  -0.41727  -0.41597  -0.41547
 Alpha  occ. eigenvalues --   -0.41433  -0.41398  -0.41340  -0.41252  -0.41136
 Alpha  occ. eigenvalues --   -0.41104  -0.40937  -0.40796  -0.40716  -0.40648
 Alpha  occ. eigenvalues --   -0.40138  -0.40097  -0.40032  -0.39940  -0.39881
 Alpha  occ. eigenvalues --   -0.39567  -0.39546  -0.39477  -0.39119  -0.38766
 Alpha  occ. eigenvalues --   -0.38689  -0.38418  -0.38384  -0.38292  -0.38155
 Alpha  occ. eigenvalues --   -0.38109  -0.37928  -0.37755  -0.37666  -0.37554
 Alpha  occ. eigenvalues --   -0.37478  -0.37399  -0.37291  -0.37039  -0.36949
 Alpha  occ. eigenvalues --   -0.36774  -0.36674  -0.36367  -0.36115  -0.35943
 Alpha  occ. eigenvalues --   -0.35794  -0.35656  -0.35268  -0.35036  -0.34791
 Alpha  occ. eigenvalues --   -0.34572  -0.34359  -0.34142  -0.34038  -0.33854
 Alpha  occ. eigenvalues --   -0.33410  -0.33250  -0.33005  -0.32486  -0.32228
 Alpha  occ. eigenvalues --   -0.32183  -0.32035  -0.31810  -0.31749  -0.31442
 Alpha  occ. eigenvalues --   -0.31314  -0.31124  -0.31083  -0.30949  -0.30874
 Alpha  occ. eigenvalues --   -0.30636  -0.30512  -0.30417  -0.30382  -0.30130
 Alpha  occ. eigenvalues --   -0.29877  -0.29521  -0.29356  -0.29241  -0.29186
 Alpha  occ. eigenvalues --   -0.29176  -0.29102  -0.28970  -0.28803  -0.28653
 Alpha  occ. eigenvalues --   -0.27399  -0.27335  -0.27279  -0.27019  -0.26189
 Alpha  occ. eigenvalues --   -0.26122  -0.25934  -0.25906  -0.25067  -0.24813
 Alpha  occ. eigenvalues --   -0.23983  -0.23863
 Alpha virt. eigenvalues --   -0.11450  -0.10147  -0.09393  -0.09352  -0.09277
 Alpha virt. eigenvalues --   -0.08944  -0.08645  -0.08539  -0.08310  -0.07876
 Alpha virt. eigenvalues --   -0.07778  -0.07436  -0.06880  -0.06682  -0.06506

 Mulliken charges:
               1
     1  Pd   0.458685
     2  Pd   0.552313
     3  C    0.147371
     4  N   -0.332561
     5  C    0.149072
     6  C   -0.038872
     7  C    0.047496
     8  C    0.001453
     9  C   -0.028169
    10  C   -0.070367
    11  C    0.200689
    12  O   -0.262642
    13  C    0.202157
    14  C   -0.071802
    15  C   -0.027138
    16  C    0.010522
    17  C    0.049062
    18  C   -0.044637
    19  C    0.150030
    20  N   -0.321326
    21  C    0.142417
    22  C   -0.043939
    23  C   -0.044792
    24  C    0.017370
    25  C    0.016688
    26  C   -0.031306
    27  C   -0.041809
    28  H    0.104191
    29  H    0.111518
    30  H    0.066134
    31  H    0.053413
    32  H    0.047962
    33  H    0.048044
    34  H    0.052177
    35  H    0.063935
    36  H    0.088872
    37  H    0.078895
    38  H    0.064271
    39  H    0.040718
    40  H    0.038743
    41  H    0.067942
    42  C    0.128510
    43  N   -0.353666
    44  C    0.146149
    45  C   -0.042925
    46  C    0.070014
    47  C    0.035191
    48  C   -0.025240
    49  C   -0.079178
    50  C    0.203659
    51  O   -0.277064
    52  C    0.221105
    53  C   -0.073616
    54  C   -0.051349
    55  C    0.072842
    56  C    0.071194
    57  C   -0.032351
    58  C    0.107094
    59  N   -0.349461
    60  C    0.131500
    61  C   -0.060331
    62  C   -0.050684
    63  C    0.019777
    64  C    0.065211
    65  C   -0.057981
    66  C   -0.030881
    67  H    0.116776
    68  H    0.115512
    69  H    0.062402
    70  H    0.048319
    71  H    0.043074
    72  H    0.043641
    73  H    0.047765
    74  H    0.066793
    75  H    0.119133
    76  H    0.101471
    77  H    0.065467
    78  H    0.024740
    79  H    0.030602
    80  H    0.054211
    81  C   -0.020265
    82  C    0.041464
    83  C   -0.046747
    84  C    0.044922
    85  C   -0.012211
    86  C    0.001102
    87  C   -0.004325
    88  C   -0.088162
    89  C   -0.037079
    90  C    0.012333
    91  C   -0.083749
    92  C   -0.030896
    93  C    0.013125
    94  C   -0.071081
    95  C    0.012992
    96  C   -0.017289
    97  C    0.010059
    98  C   -0.077684
    99  C    0.016916
   100  C   -0.018538
   101  C   -0.084785
   102  C    0.011360
   103  C   -0.044297
   104  C   -0.053856
   105  C    0.037365
   106  C   -0.013655
   107  C    0.035971
   108  C   -0.034847
   109  C    0.136479
   110  N   -0.324520
   111  C    0.148347
   112  C   -0.005958
   113  C    0.004808
   114  C   -0.029876
   115  C   -0.003201
   116  C    0.005696
   117  C    0.014185
   118  C    0.005525
   119  C    0.012551
   120  C    0.178001
   121  N   -0.312832
   122  C    0.104273
   123  H    0.062980
   124  H    0.045702
   125  H    0.061665
   126  H    0.047689
   127  H    0.052109
   128  H    0.041421
   129  H    0.037203
   130  H    0.048962
   131  H    0.038455
   132  H    0.038646
   133  H    0.051339
   134  H    0.058513
   135  H    0.097305
   136  H    0.110265
   137  H    0.046499
   138  H    0.060130
   139  H    0.046328
   140  H    0.041043
   141  H    0.040305
   142  H    0.029645
   143  H    0.039746
   144  H    0.040513
   145  H    0.073030
   146  H    0.110211
   147  C   -0.024809
   148  C    0.032748
   149  C   -0.028690
   150  C    0.054738
   151  C   -0.034100
   152  C    0.010494
   153  C   -0.007496
   154  C   -0.025284
   155  C   -0.033980
   156  C   -0.001090
   157  C   -0.074860
   158  C   -0.030103
   159  C    0.024351
   160  C   -0.084013
   161  C    0.011164
   162  C   -0.026902
   163  C    0.005328
   164  C   -0.086421
   165  C    0.037503
   166  C   -0.047055
   167  C   -0.081930
   168  C    0.005318
   169  C    0.014156
   170  C   -0.133125
   171  C    0.025554
   172  C   -0.010641
   173  C    0.044614
   174  C   -0.026878
   175  C    0.117147
   176  N   -0.347922
   177  C    0.177852
   178  C   -0.003980
   179  C    0.001895
   180  C   -0.023418
   181  C    0.008374
   182  C    0.000900
   183  C    0.019817
   184  C    0.007944
   185  C   -0.018160
   186  C    0.139939
   187  N   -0.348703
   188  C    0.145093
   189  H    0.063261
   190  H    0.051307
   191  H    0.060779
   192  H    0.048502
   193  H    0.050987
   194  H    0.037555
   195  H    0.041237
   196  H    0.054299
   197  H    0.043342
   198  H    0.045760
   199  H    0.048952
   200  H    0.062378
   201  H    0.106373
   202  H    0.124916
   203  H    0.047730
   204  H    0.062101
   205  H    0.045240
   206  H    0.047718
   207  H    0.044022
   208  H    0.033902
   209  H    0.046473
   210  H    0.041269
   211  H    0.098345
   212  H    0.116653
 Sum of Mulliken charges =   4.00000

 Dipole moment (field-independent basis, Debye):
    X=             -6.2085    Y=             14.4940    Z=             -3.6348  Tot=             16.1812
 Quadrupole moment (field-independent basis, Debye-Ang):
   XX=            258.7764   YY=           -496.1637   ZZ=           -657.3040
   XY=            -16.5554   XZ=            -68.2123   YZ=            -73.2755

 Normal termination of Gaussian 16 at Sat Jun  3 02:42:55 2023.
