 Gaussian 16, Revision C.01,
 Gaussian 16:  ES64L-G16RevC.01  3-Jul-2019

 ----------------------------------------------------------------------
 #P PBE1PBE/Def2SVP SP SCF=(YQC,MaxCycle=900) int=(Grid=Superfinegrid)
 EmpiricalDispersion=GD3BJ SCRF=(PCM,Solvent=DiMethylSulfoxide)
 ----------------------------------------------------------------------

 --------
 _s_5d1_a
 --------
 Symbolic Z-matrix:
 Charge =  4 Multiplicity = 1

                         Standard orientation:
 ---------------------------------------------------------------------
 Center     Atomic      Atomic             Coordinates (Angstroms)
 Number     Number       Type             X           Y           Z
 ---------------------------------------------------------------------
      1         46           0        4.376904    0.001887   -0.019989
      2         46           0       -4.411101   -0.005989   -0.008686
      3          6           0        0.497026   -4.620416    4.326495
      4          6           0        1.701099   -4.511182    4.360125
      5          6           0        3.073308   -4.208471    4.241408
      6          6           0        4.032307   -4.643938    5.134996
      7          6           0        5.370480   -4.252060    4.992952
      8          6           0        5.765151   -3.410214    3.983998
      9          6           0        4.816916   -2.947760    3.046316
     10          6           0        5.136513   -2.042259    2.012458
     11          7           0        4.244772   -1.615903    1.144474
     12          6           0        2.969251   -2.087047    1.197428
     13          6           0        2.554149   -2.945698    2.170377
     14          6           0        3.464739   -3.374695    3.155986
     15          1           0        3.748551   -5.284326    5.956332
     16          1           0        6.095503   -4.612876    5.706478
     17          1           0        6.793417   -3.096084    3.901205
     18          1           0        6.145495   -1.655724    1.914792
     19          1           0        2.287993   -1.750705    0.416267
     20          1           0        1.537237   -3.302012    2.202370
     21          6           0       -0.906670   -4.762932    4.264071
     22          6           0       -1.512528   -5.963112    4.640291
     23          6           0       -2.884795   -6.097003    4.538826
     24          6           0       -3.659603   -5.043232    4.087396
     25          6           0       -3.066725   -3.832666    3.718757
     26          6           0       -1.685622   -3.700626    3.796533
     27          1           0       -0.906253   -6.779152    5.002833
     28          1           0       -3.355131   -7.027001    4.819428
     29          1           0       -4.727816   -5.170191    4.003040
     30          1           0       -1.208690   -2.766584    3.543181
     31          6           0       -3.938981   -2.724875    3.288388
     32          6           0       -5.120654   -2.475598    3.993062
     33          6           0       -5.983269   -1.484966    3.557731
     34          6           0       -5.656300   -0.767741    2.421977
     35          7           0       -4.512750   -0.980930    1.757752
     36          6           0       -3.665566   -1.925111    2.178208
     37          1           0       -5.352304   -3.050509    4.875948
     38          1           0       -6.900891   -1.279630    4.084705
     39          1           0       -6.327081   -0.004248    2.033998
     40          1           0       -2.761703   -2.052509    1.591264
     41          6           0        0.490856    4.370126    4.577144
     42          6           0        1.694835    4.405407    4.466070
     43          6           0        3.066648    4.286958    4.161930
     44          6           0        4.024420    5.187550    4.585581
     45          6           0        5.361967    5.044947    4.191723
     46          6           0        5.757030    4.028618    3.359057
     47          6           0        4.810196    3.083620    2.908958
     48          6           0        5.129636    2.042356    2.011988
     49          7           0        4.238931    1.167836    1.596620
     50          6           0        2.965619    1.220455    2.073062
     51          6           0        2.550443    2.200307    2.923684
     52          6           0        3.459022    3.193683    3.338943
     53          1           0        3.740048    6.014828    5.218017
     54          1           0        6.085926    5.764162    4.543365
     55          1           0        6.784747    3.945599    3.042935
     56          1           0        6.137660    1.944258    1.622784
     57          1           0        2.286394    0.433364    1.748093
     58          1           0        1.534888    2.232069    3.283811
     59          6           0       -0.912393    4.305201    4.722361
     60          6           0       -1.517173    4.689299    5.920655
     61          6           0       -2.888866    4.584822    6.057777
     62          6           0       -3.664247    4.122616    5.009054
     63          6           0       -3.072510    3.746356    3.800333
     64          6           0       -1.691847    3.827260    3.665175
     65          1           0       -0.910509    5.060018    6.732649
     66          1           0       -3.358335    4.871386    6.986489
     67          1           0       -4.731861    4.035721    5.139021
     68          1           0       -1.215817    3.568070    2.732279
     69          6           0       -3.945514    3.304552    2.697628
     70          6           0       -5.131167    4.001920    2.446793
     71          6           0       -5.994778    3.555644    1.461861
     72          6           0       -5.664054    2.417103    0.750936
     73          7           0       -4.516118    1.760546    0.964772
     74          6           0       -3.668706    2.190610    1.904245
     75          1           0       -5.365423    4.887666    3.016160
     76          1           0       -6.915800    4.076540    1.256193
     77          1           0       -6.335276    2.020053   -0.007994
     78          1           0       -2.762150    1.608394    2.033033
     79          6           0        0.478053    4.677124   -4.301527
     80          6           0        1.682780    4.575300   -4.337678
     81          6           0        3.056126    4.276804   -4.222308
     82          6           0        4.016282    4.739075   -5.101100
     83          6           0        5.356139    4.351531   -4.962747
     84          6           0        5.751712    3.488789   -3.971919
     85          6           0        4.802557    2.998757   -3.049443
     86          6           0        5.124085    2.073544   -2.033633
     87          7           0        4.231517    1.622359   -1.179201
     88          6           0        2.952382    2.083898   -1.229601
     89          6           0        2.535670    2.960670   -2.185338
     90          6           0        3.448129    3.419390   -3.155661
     91          1           0        3.732294    5.397297   -5.908154
     92          1           0        6.081851    4.733246   -5.664532
     93          1           0        6.781759    3.179431   -3.892040
     94          1           0        6.135482    1.692709   -1.939453
     95          1           0        2.268805    1.724459   -0.460787
     96          1           0        1.516219    3.309662   -2.214977
     97          6           0       -0.926440    4.809255   -4.235599
     98          6           0       -1.541468    6.009949   -4.595089
     99          6           0       -2.914628    6.132111   -4.490763
    100          6           0       -3.681298    5.066574   -4.053107
    101          6           0       -3.078954    3.855756   -3.701026
    102          6           0       -1.697108    3.735036   -3.781509
    103          1           0       -0.941627    6.835155   -4.947169
    104          1           0       -3.392123    7.062311   -4.758541
    105          1           0       -4.750379    5.184161   -3.966716
    106          1           0       -1.213274    2.801156   -3.541003
    107          6           0       -3.942962    2.735875   -3.285215
    108          6           0       -5.120641    2.484975   -3.995951
    109          6           0       -5.976318    1.482713   -3.574026
    110          6           0       -5.647255    0.756483   -2.444459
    111          7           0       -4.507715    0.971771   -1.774167
    112          6           0       -3.666494    1.926662   -2.182633
    113          1           0       -5.354387    3.067830   -4.873090
    114          1           0       -6.890647    1.275450   -4.106103
    115          1           0       -6.313385   -0.016195   -2.066845
    116          1           0       -2.764962    2.054792   -1.592417
    117          6           0        0.502407   -4.420232   -4.556878
    118          6           0        1.706359   -4.455731   -4.445825
    119          6           0        3.078314   -4.333004   -4.143733
    120          6           0        4.035297   -5.242507   -4.549513
    121          6           0        5.372887   -5.093638   -4.157604
    122          6           0        5.768328   -4.062157   -3.344077
    123          6           0        4.822103   -3.107824   -2.912509
    124          6           0        5.141439   -2.051349   -2.033247
    125          7           0        4.251174   -1.168748   -1.634211
    126          6           0        2.978794   -1.227841   -2.112711
    127          6           0        2.563653   -2.222086   -2.946725
    128          6           0        3.471364   -3.224340   -3.341852
    129          1           0        3.750609   -6.081528   -5.165986
    130          1           0        6.096308   -5.820061   -4.495005
    131          1           0        6.795881   -3.974188   -3.028732
    132          1           0        6.149071   -1.948027   -1.644349
    133          1           0        2.299864   -0.434065   -1.804050
    134          1           0        1.548730   -2.258673   -3.308158
    135          6           0       -0.900650   -4.354938   -4.705228
    136          6           0       -1.502681   -4.748422   -5.901830
    137          6           0       -2.873714   -4.642350   -6.043951
    138          6           0       -3.651112   -4.169457   -5.001587
    139          6           0       -3.062223   -3.784031   -3.794193
    140          6           0       -1.682089   -3.866256   -3.654432
    141          1           0       -0.894399   -5.127452   -6.708741
    142          1           0       -3.341096   -4.936065   -6.971464
    143          1           0       -4.718161   -4.081455   -5.135389
    144          1           0       -1.208043   -3.599551   -2.722596
    145          6           0       -3.938419   -3.332109   -2.698161
    146          6           0       -5.125443   -4.026881   -2.446435
    147          6           0       -5.992965   -3.572063   -1.468944
    148          6           0       -5.664357   -2.428186   -0.765678
    149          7           0       -4.514836   -1.774309   -0.979609
    150          6           0       -3.664030   -2.212143   -1.912379
    151          1           0       -5.357704   -4.917238   -3.009343
    152          1           0       -6.915304   -4.090529   -1.263075
    153          1           0       -6.338815   -2.024723   -0.013094
    154          1           0       -2.756713   -1.631359   -2.042316
 ---------------------------------------------------------------------

 SCF Done:  E(RPBE1PBE) =  -4073.32510560     a.u. after   19 cycles
 SCF Done:  E(RPBE1PBE) =  -4073.32531036     A.U. after   10 cycles

 The electronic state is 1-A.
 Alpha  occ. eigenvalues --  -14.49054 -14.49051 -14.49047 -14.49039 -14.48643
 Alpha  occ. eigenvalues --  -14.48622 -14.48614 -14.48594 -10.32668 -10.32664
 Alpha  occ. eigenvalues --  -10.32661 -10.32655 -10.32318 -10.32317 -10.32312
 Alpha  occ. eigenvalues --  -10.32308 -10.31966 -10.31962 -10.31960 -10.31956
 Alpha  occ. eigenvalues --  -10.31265 -10.31259 -10.31252 -10.31244 -10.29551
 Alpha  occ. eigenvalues --  -10.29550 -10.29546 -10.29542 -10.29489 -10.29488
 Alpha  occ. eigenvalues --  -10.29487 -10.29482 -10.29428 -10.29428 -10.29425
 Alpha  occ. eigenvalues --  -10.29422 -10.29026 -10.29024 -10.29020 -10.29016
 Alpha  occ. eigenvalues --  -10.29012 -10.29009 -10.29007 -10.29006 -10.28531
 Alpha  occ. eigenvalues --  -10.28530 -10.28530 -10.28530 -10.28137 -10.28133
 Alpha  occ. eigenvalues --  -10.28132 -10.28128 -10.27868 -10.27867 -10.27863
 Alpha  occ. eigenvalues --  -10.27856 -10.27822 -10.27821 -10.27819 -10.27817
 Alpha  occ. eigenvalues --  -10.27696 -10.27695 -10.27695 -10.27694 -10.27484
 Alpha  occ. eigenvalues --  -10.27483 -10.27483 -10.27480 -10.26919 -10.26919
 Alpha  occ. eigenvalues --  -10.26917 -10.26917 -10.26917 -10.26915 -10.26915
 Alpha  occ. eigenvalues --  -10.26914 -10.26421 -10.26420 -10.26418 -10.26418
 Alpha  occ. eigenvalues --  -10.26373 -10.26372 -10.26371 -10.26371 -10.26332
 Alpha  occ. eigenvalues --  -10.26331 -10.26331 -10.26330 -10.26080 -10.26080
 Alpha  occ. eigenvalues --  -10.26078 -10.26077 -10.25894 -10.25893 -10.25892
 Alpha  occ. eigenvalues --  -10.25892  -3.57599  -3.57521  -2.25478  -2.25464
 Alpha  occ. eigenvalues --   -2.25415  -2.25393  -2.21277  -2.21256  -1.04248
 Alpha  occ. eigenvalues --   -1.04069  -1.03523  -1.03507  -1.03339  -1.03321
 Alpha  occ. eigenvalues --   -1.03297  -1.03175  -0.93022  -0.92919  -0.92917
 Alpha  occ. eigenvalues --   -0.92914  -0.92248  -0.92213  -0.92212  -0.92210
 Alpha  occ. eigenvalues --   -0.88023  -0.87804  -0.87800  -0.87796  -0.85770
 Alpha  occ. eigenvalues --   -0.85717  -0.85710  -0.85664  -0.84429  -0.84345
 Alpha  occ. eigenvalues --   -0.84341  -0.84340  -0.83953  -0.83790  -0.83763
 Alpha  occ. eigenvalues --   -0.83760  -0.82389  -0.82305  -0.82302  -0.82245
 Alpha  occ. eigenvalues --   -0.80771  -0.80670  -0.80664  -0.80540  -0.79081
 Alpha  occ. eigenvalues --   -0.79030  -0.79026  -0.78999  -0.76237  -0.76209
 Alpha  occ. eigenvalues --   -0.76207  -0.76182  -0.71768  -0.71437  -0.71423
 Alpha  occ. eigenvalues --   -0.71331  -0.70767  -0.70737  -0.70727  -0.70659
 Alpha  occ. eigenvalues --   -0.69849  -0.69722  -0.69568  -0.69563  -0.69328
 Alpha  occ. eigenvalues --   -0.69032  -0.69026  -0.69012  -0.67962  -0.67904
 Alpha  occ. eigenvalues --   -0.67875  -0.67871  -0.65306  -0.65254  -0.65253
 Alpha  occ. eigenvalues --   -0.65249  -0.64586  -0.64506  -0.64442  -0.64438
 Alpha  occ. eigenvalues --   -0.61230  -0.60581  -0.60382  -0.60378  -0.60269
 Alpha  occ. eigenvalues --   -0.59595  -0.59463  -0.59460  -0.58900  -0.58247
 Alpha  occ. eigenvalues --   -0.58227  -0.58172  -0.57237  -0.57043  -0.56936
 Alpha  occ. eigenvalues --   -0.56863  -0.56857  -0.56703  -0.56263  -0.56255
 Alpha  occ. eigenvalues --   -0.55802  -0.55798  -0.55781  -0.55760  -0.53004
 Alpha  occ. eigenvalues --   -0.52919  -0.52521  -0.52519  -0.52256  -0.52251
 Alpha  occ. eigenvalues --   -0.51783  -0.51762  -0.51642  -0.51641  -0.51593
 Alpha  occ. eigenvalues --   -0.51515  -0.51510  -0.51200  -0.50739  -0.50734
 Alpha  occ. eigenvalues --   -0.50659  -0.50598  -0.50394  -0.50265  -0.50104
 Alpha  occ. eigenvalues --   -0.50103  -0.50049  -0.49649  -0.49599  -0.49419
 Alpha  occ. eigenvalues --   -0.49180  -0.49160  -0.49002  -0.48963  -0.48949
 Alpha  occ. eigenvalues --   -0.48747  -0.48713  -0.48707  -0.48630  -0.48068
 Alpha  occ. eigenvalues --   -0.48055  -0.48008  -0.47965  -0.47879  -0.47446
 Alpha  occ. eigenvalues --   -0.46948  -0.46787  -0.46784  -0.46625  -0.46235
 Alpha  occ. eigenvalues --   -0.46226  -0.46154  -0.46093  -0.45389  -0.44740
 Alpha  occ. eigenvalues --   -0.44725  -0.44256  -0.43861  -0.43836  -0.43515
 Alpha  occ. eigenvalues --   -0.43500  -0.43372  -0.43183  -0.43040  -0.43019
 Alpha  occ. eigenvalues --   -0.42831  -0.42456  -0.42427  -0.42421  -0.41866
 Alpha  occ. eigenvalues --   -0.41861  -0.41784  -0.41766  -0.41332  -0.40335
 Alpha  occ. eigenvalues --   -0.40260  -0.39801  -0.39797  -0.39716  -0.39668
 Alpha  occ. eigenvalues --   -0.39516  -0.39514  -0.39502  -0.39443  -0.39440
 Alpha  occ. eigenvalues --   -0.39361  -0.39338  -0.38912  -0.38613  -0.37401
 Alpha  occ. eigenvalues --   -0.37388  -0.37297  -0.36939  -0.36741  -0.36726
 Alpha  occ. eigenvalues --   -0.36560  -0.36549  -0.36539  -0.36200  -0.36185
 Alpha  occ. eigenvalues --   -0.35490  -0.34656  -0.34652  -0.34640  -0.34143
 Alpha  occ. eigenvalues --   -0.34140  -0.34121  -0.33011  -0.32976  -0.32823
 Alpha  occ. eigenvalues --   -0.32815  -0.32742  -0.32739  -0.32449  -0.32151
 Alpha  occ. eigenvalues --   -0.32132  -0.32130  -0.31559  -0.31012  -0.30981
 Alpha  occ. eigenvalues --   -0.30960  -0.30775  -0.29423  -0.29266  -0.29027
 Alpha  occ. eigenvalues --   -0.29006  -0.28985  -0.28840  -0.28404  -0.28394
 Alpha  occ. eigenvalues --   -0.28379  -0.28333  -0.25315  -0.25269  -0.25258
 Alpha  occ. eigenvalues --   -0.25180
 Alpha virt. eigenvalues --   -0.10120  -0.10053  -0.10037  -0.10013  -0.09139
 Alpha virt. eigenvalues --   -0.08585  -0.08214  -0.08192  -0.08001  -0.07182
 Alpha virt. eigenvalues --   -0.07155  -0.07021  -0.07000  -0.06477  -0.06414

 Mulliken charges:
               1
     1  Pd   0.509377
     2  Pd   0.481335
     3  C    0.009015
     4  C   -0.059013
     5  C   -0.016491
     6  C    0.024165
     7  C   -0.003000
     8  C    0.022201
     9  C   -0.064382
    10  C    0.189813
    11  N   -0.322048
    12  C    0.125536
    13  C   -0.001271
    14  C    0.060004
    15  H    0.044325
    16  H    0.055400
    17  H    0.044749
    18  H    0.088672
    19  H    0.097441
    20  H    0.045131
    21  C   -0.079752
    22  C    0.023339
    23  C   -0.011439
    24  C   -0.017478
    25  C    0.018723
    26  C    0.004565
    27  H    0.037218
    28  H    0.045590
    29  H    0.041485
    30  H    0.030243
    31  C   -0.049316
    32  C    0.070885
    33  C   -0.025348
    34  C    0.132809
    35  N   -0.326483
    36  C    0.173269
    37  H    0.065974
    38  H    0.068391
    39  H    0.117938
    40  H    0.091684
    41  C    0.008986
    42  C   -0.058957
    43  C   -0.016583
    44  C    0.024232
    45  C   -0.003065
    46  C    0.022132
    47  C   -0.063986
    48  C    0.189537
    49  N   -0.320661
    50  C    0.126083
    51  C   -0.001727
    52  C    0.059877
    53  H    0.044320
    54  H    0.055404
    55  H    0.044797
    56  H    0.088902
    57  H    0.095623
    58  H    0.045193
    59  C   -0.079804
    60  C    0.023412
    61  C   -0.011489
    62  C   -0.017654
    63  C    0.019058
    64  C    0.004504
    65  H    0.037200
    66  H    0.045638
    67  H    0.041492
    68  H    0.030221
    69  C   -0.049111
    70  C    0.070707
    71  C   -0.024882
    72  C    0.132002
    73  N   -0.327450
    74  C    0.173394
    75  H    0.065997
    76  H    0.068387
    77  H    0.119363
    78  H    0.091672
    79  C    0.009187
    80  C   -0.059246
    81  C   -0.016036
    82  C    0.023907
    83  C   -0.003004
    84  C    0.022069
    85  C   -0.064712
    86  C    0.190201
    87  N   -0.322178
    88  C    0.126745
    89  C   -0.001755
    90  C    0.059818
    91  H    0.044322
    92  H    0.055375
    93  H    0.044795
    94  H    0.088449
    95  H    0.096508
    96  H    0.044812
    97  C   -0.079534
    98  C    0.023415
    99  C   -0.011480
   100  C   -0.017206
   101  C    0.018318
   102  C    0.004518
   103  H    0.037176
   104  H    0.045623
   105  H    0.041477
   106  H    0.030354
   107  C   -0.049877
   108  C    0.071133
   109  C   -0.025436
   110  C    0.133182
   111  N   -0.326268
   112  C    0.173416
   113  H    0.065961
   114  H    0.068402
   115  H    0.117663
   116  H    0.091577
   117  C    0.008856
   118  C   -0.058827
   119  C   -0.016715
   120  C    0.024311
   121  C   -0.003065
   122  C    0.022125
   123  C   -0.064326
   124  C    0.189926
   125  N   -0.320086
   126  C    0.126353
   127  C   -0.001917
   128  C    0.060021
   129  H    0.044266
   130  H    0.055347
   131  H    0.044806
   132  H    0.088851
   133  H    0.094611
   134  H    0.045285
   135  C   -0.080027
   136  C    0.023413
   137  C   -0.011464
   138  C   -0.017758
   139  C    0.018942
   140  C    0.004962
   141  H    0.037198
   142  H    0.045623
   143  H    0.041533
   144  H    0.030106
   145  C   -0.049363
   146  C    0.070550
   147  C   -0.024943
   148  C    0.132194
   149  N   -0.327417
   150  C    0.173728
   151  H    0.066030
   152  H    0.068367
   153  H    0.119272
   154  H    0.091541
 Sum of Mulliken charges =   4.00000

 Dipole moment (field-independent basis, Debye):
    X=             -8.4591    Y=              0.0027    Z=             -0.0335  Tot=              8.4592
 Quadrupole moment (field-independent basis, Debye-Ang):
   XX=            -35.3555   YY=           -360.1203   ZZ=           -366.9991
   XY=              0.4035   XZ=              0.2243   YZ=             -0.2455

 Normal termination of Gaussian 16 at Fri Feb 26 14:02:42 2021.
