 Gaussian 16, Revision C.01,
 Gaussian 16:  ES64L-G16RevC.01  3-Jul-2019

 ----------------------------------------------------------------------
 #P PBE1PBE/Def2SVP SP SCF=(YQC,MaxCycle=900) int=(Grid=Superfinegrid)
 EmpiricalDispersion=GD3BJ SCRF=(PCM,Solvent=DiMethylSulfoxide)
 ----------------------------------------------------------------------

 --------
 _s_4d2_c
 --------
 Symbolic Z-matrix:
 Charge =  4 Multiplicity = 1

                         Standard orientation:
 ---------------------------------------------------------------------
 Center     Atomic      Atomic             Coordinates (Angstroms)
 Number     Number       Type             X           Y           Z
 ---------------------------------------------------------------------
      1         46           0        4.278502    0.015306   -1.834167
      2         46           0       -4.276192   -0.021064    1.837825
      3          6           0       -4.031406    3.701175   -3.006561
      4          6           0       -5.047756    3.620180   -2.355243
      5          6           0       -6.228277    3.684567   -1.590189
      6          6           0       -7.249373    4.529111   -1.987657
      7          6           0       -8.385888    4.712097   -1.192960
      8          6           0       -8.505973    4.084303    0.021770
      9          6           0       -7.497920    3.207151    0.461602
     10          6           0       -7.545797    2.552351    1.713025
     11          6           0       -6.549444    1.690430    2.067041
     12          7           0       -5.522252    1.397863    1.231907
     13          6           0       -5.423407    2.015393    0.070872
     14          6           0       -6.361475    2.964805   -0.364094
     15          1           0       -7.159423    5.067302   -2.918802
     16          1           0       -9.163808    5.376696   -1.536781
     17          1           0       -9.366361    4.256166    0.649303
     18          1           0       -8.371193    2.745416    2.379398
     19          1           0       -6.536180    1.198264    3.037336
     20          1           0       -4.581259    1.752848   -0.564826
     21          6           0       -2.815349    3.865962   -3.703998
     22          6           0       -2.745847    4.743869   -4.790615
     23          6           0       -1.532956    4.961101   -5.418091
     24          6           0       -0.385455    4.322822   -4.978667
     25          6           0       -0.440028    3.438753   -3.898151
     26          6           0       -1.664526    3.209009   -3.273235
     27          1           0       -3.635850    5.252538   -5.127809
     28          1           0       -1.478778    5.643819   -6.252499
     29          1           0        0.555762    4.542419   -5.457348
     30          1           0       -1.743032    2.502300   -2.462846
     31          6           0        0.766744    2.766660   -3.407363
     32          6           0        1.806945    2.385096   -4.260948
     33          6           0        2.893735    1.704086   -3.751804
     34          7           0        2.983760    1.377220   -2.459384
     35          6           0        2.019644    1.766827   -1.615972
     36          6           0        0.915190    2.466578   -2.046381
     37          1           0        1.756188    2.592758   -5.317330
     38          1           0        3.720654    1.396850   -4.385391
     39          1           0        2.164673    1.495192   -0.571367
     40          1           0        0.173401    2.796187   -1.337064
     41          6           0       -4.051311   -3.645469   -3.059330
     42          6           0       -5.071678   -3.571869   -2.413508
     43          6           0       -6.255380   -3.642532   -1.654069
     44          6           0       -7.281954   -4.471198   -2.070262
     45          6           0       -8.421655   -4.661020   -1.281492
     46          6           0       -8.539641   -4.056451   -0.054857
     47          6           0       -7.525845   -3.196037    0.404612
     48          6           0       -7.570980   -2.565808    1.668615
     49          6           0       -6.568133   -1.719285    2.041742
     50          7           0       -5.537061   -1.418672    1.214607
     51          6           0       -5.441483   -2.013358    0.041356
     52          6           0       -6.386092   -2.946258   -0.414145
     53          1           0       -7.194075   -4.991766   -3.011527
     54          1           0       -9.203838   -5.312605   -1.639973
     55          1           0       -9.402707   -4.234197    0.567376
     56          1           0       -8.399234   -2.765139    2.329517
     57          1           0       -6.552477   -1.247046    3.021620
     58          1           0       -4.596408   -1.744241   -0.588259
     59          6           0       -2.831262   -3.805586   -3.751024
     60          6           0       -2.754212   -4.683362   -4.837202
     61          6           0       -1.537608   -4.898151   -5.458214
     62          6           0       -0.393791   -4.257783   -5.012333
     63          6           0       -0.455909   -3.373154   -3.932583
     64          6           0       -1.684361   -3.145553   -3.314590
     65          1           0       -3.641317   -5.194122   -5.178922
     66          1           0       -1.477452   -5.580784   -6.292173
     67          1           0        0.550429   -4.476221   -5.485560
     68          1           0       -1.768989   -2.437479   -2.505947
     69          6           0        0.748030   -2.700849   -3.435038
     70          6           0        1.795086   -2.324128   -4.282432
     71          6           0        2.882376   -1.648868   -3.766750
     72          7           0        2.966550   -1.322774   -2.473785
     73          6           0        1.994042   -1.704787   -1.636440
     74          6           0        0.888432   -2.398373   -2.073711
     75          1           0        1.750102   -2.531806   -5.338985
     76          1           0        3.714752   -1.346202   -4.395359
     77          1           0        2.133428   -1.432166   -0.591265
     78          1           0        0.139852   -2.721642   -1.368742
     79          6           0        4.034214   -3.702871    3.013228
     80          6           0        5.048226   -3.626523    2.357823
     81          6           0        6.225783   -3.696844    1.588649
     82          6           0        7.243883   -4.546637    1.982887
     83          6           0        8.376803   -4.735763    1.184386
     84          6           0        8.496067   -4.108640   -0.030712
     85          6           0        7.491255   -3.226233   -0.467296
     86          6           0        7.538486   -2.571591   -1.718813
     87          6           0        6.545386   -1.704565   -2.069748
     88          7           0        5.522219   -1.406945   -1.231420
     89          6           0        5.423990   -2.023876   -0.069969
     90          6           0        6.358700   -2.977959    0.362118
     91          1           0        7.154109   -5.084315    2.914307
     92          1           0        9.152273   -5.404364    1.525643
     93          1           0        9.353461   -4.284955   -0.661111
     94          1           0        8.360857   -2.768666   -2.387729
     95          1           0        6.531707   -1.212401   -3.039954
     96          1           0        4.585178   -1.756885    0.568386
     97          6           0        2.820228   -3.862200    3.715446
     98          6           0        2.753538   -4.731622    4.808938
     99          6           0        1.542349   -4.943889    5.441369
    100          6           0        0.393647   -4.308846    5.000062
    101          6           0        0.445370   -3.433337    3.912615
    102          6           0        1.668289   -3.208484    3.282748
    103          1           0        3.644328   -5.237855    5.147738
    104          1           0        1.490265   -5.620126    6.281143
    105          1           0       -0.546244   -4.524729    5.482927
    106          1           0        1.744526   -2.508213    2.466516
    107          6           0       -0.762394   -2.764549    3.419904
    108          6           0       -1.800072   -2.376076    4.273416
    109          6           0       -2.887762   -1.698100    3.762109
    110          7           0       -2.980982   -1.380323    2.467571
    111          6           0       -2.019409   -1.777103    1.624593
    112          6           0       -0.914360   -2.474539    2.057065
    113          1           0       -1.746736   -2.576046    5.331135
    114          1           0       -3.712827   -1.385591    4.395720
    115          1           0       -2.167043   -1.513103    0.578413
    116          1           0       -0.175011   -2.810119    1.348127
    117          6           0        4.047323    3.661055    3.049468
    118          6           0        5.068813    3.583691    2.405770
    119          6           0        6.253988    3.650161    1.648269
    120          6           0        7.279778    4.481090    2.061975
    121          6           0        8.421112    4.666484    1.274645
    122          6           0        8.541575    4.055138    0.051654
    123          6           0        7.528638    3.192327   -0.405199
    124          6           0        7.576136    2.555523   -1.665750
    125          6           0        6.573826    1.707429   -2.036615
    126          7           0        5.540905    1.411283   -1.210125
    127          6           0        5.443122    2.011995   -0.040056
    128          6           0        6.387106    2.947064    0.412451
    129          1           0        7.189941    5.006852    3.000291
    130          1           0        9.202605    5.320008    1.631182
    131          1           0        9.405925    4.229339   -0.569730
    132          1           0        8.405859    2.751156   -2.326072
    133          1           0        6.560121    1.230320   -3.014141
    134          1           0        4.596810    1.746590    0.589168
    135          6           0        2.825903    3.824728    3.737874
    136          6           0        2.745342    4.712073    4.815963
    137          6           0        1.527443    4.929486    5.433450
    138          6           0        0.385641    4.282375    4.991993
    139          6           0        0.451353    3.388317    3.920272
    140          6           0        1.681127    3.158034    3.306040
    141          1           0        3.630815    5.228070    5.154117
    142          1           0        1.464642    5.619463    6.261174
    143          1           0       -0.559628    4.502745    5.461921
    144          1           0        1.768581    2.442846    2.503922
    145          6           0       -0.750462    2.709250    3.426754
    146          6           0       -1.798118    2.337408    4.275535
    147          6           0       -2.883571    1.656427    3.763574
    148          7           0       -2.965328    1.320166    2.473093
    149          6           0       -1.992078    1.696799    1.634222
    150          6           0       -0.888122    2.395397    2.067705
    151          1           0       -1.755006    2.553612    5.330536
    152          1           0       -3.716415    1.357209    4.393248
    153          1           0       -2.129121    1.415397    0.590991
    154          1           0       -0.138673    2.713875    1.361594
 ---------------------------------------------------------------------

 SCF Done:  E(RPBE1PBE) =  -4073.35183180     a.u. after   22 cycles
 SCF Done:  E(RPBE1PBE) =  -4073.35192277     A.U. after   10 cycles

 The electronic state is 1-A.
 Alpha  occ. eigenvalues --  -14.48481 -14.48481 -14.48475 -14.48475 -14.48423
 Alpha  occ. eigenvalues --  -14.48422 -14.48408 -14.48408 -10.32449 -10.32448
 Alpha  occ. eigenvalues --  -10.32447 -10.32444 -10.32028 -10.32027 -10.32023
 Alpha  occ. eigenvalues --  -10.32022 -10.31926 -10.31926 -10.31919 -10.31919
 Alpha  occ. eigenvalues --  -10.30996 -10.30995 -10.30991 -10.30989 -10.30339
 Alpha  occ. eigenvalues --  -10.30338 -10.30335 -10.30335 -10.29890 -10.29890
 Alpha  occ. eigenvalues --  -10.29888 -10.29887 -10.29195 -10.29194 -10.29191
 Alpha  occ. eigenvalues --  -10.29190 -10.29135 -10.29135 -10.29135 -10.29133
 Alpha  occ. eigenvalues --  -10.28727 -10.28725 -10.28723 -10.28722 -10.28247
 Alpha  occ. eigenvalues --  -10.28246 -10.28243 -10.28240 -10.28185 -10.28185
 Alpha  occ. eigenvalues --  -10.28184 -10.28184 -10.27905 -10.27903 -10.27901
 Alpha  occ. eigenvalues --  -10.27899 -10.27838 -10.27838 -10.27836 -10.27836
 Alpha  occ. eigenvalues --  -10.27319 -10.27319 -10.27319 -10.27318 -10.27155
 Alpha  occ. eigenvalues --  -10.27153 -10.27150 -10.27150 -10.27106 -10.27105
 Alpha  occ. eigenvalues --  -10.27105 -10.27104 -10.26895 -10.26894 -10.26893
 Alpha  occ. eigenvalues --  -10.26893 -10.26687 -10.26686 -10.26686 -10.26685
 Alpha  occ. eigenvalues --  -10.26672 -10.26670 -10.26670 -10.26670 -10.26661
 Alpha  occ. eigenvalues --  -10.26660 -10.26659 -10.26657 -10.26324 -10.26323
 Alpha  occ. eigenvalues --  -10.26322 -10.26321 -10.26083 -10.26083 -10.26083
 Alpha  occ. eigenvalues --  -10.26082  -3.57364  -3.57363  -2.25402  -2.25400
 Alpha  occ. eigenvalues --   -2.25133  -2.25132  -2.21082  -2.21081  -1.04050
 Alpha  occ. eigenvalues --   -1.04049  -1.03315  -1.03311  -1.03174  -1.03173
 Alpha  occ. eigenvalues --   -1.03111  -1.03109  -0.92831  -0.92794  -0.92766
 Alpha  occ. eigenvalues --   -0.92759  -0.92553  -0.92510  -0.92508  -0.92499
 Alpha  occ. eigenvalues --   -0.88251  -0.88218  -0.88116  -0.88115  -0.86085
 Alpha  occ. eigenvalues --   -0.86045  -0.86023  -0.86017  -0.83392  -0.83356
 Alpha  occ. eigenvalues --   -0.83243  -0.83241  -0.83222  -0.83177  -0.83006
 Alpha  occ. eigenvalues --   -0.82992  -0.82820  -0.82786  -0.82709  -0.82625
 Alpha  occ. eigenvalues --   -0.80861  -0.80832  -0.80727  -0.80704  -0.79751
 Alpha  occ. eigenvalues --   -0.79748  -0.79690  -0.79689  -0.76372  -0.76341
 Alpha  occ. eigenvalues --   -0.76332  -0.76327  -0.71474  -0.71472  -0.71270
 Alpha  occ. eigenvalues --   -0.71162  -0.70947  -0.70917  -0.70630  -0.70440
 Alpha  occ. eigenvalues --   -0.70169  -0.70133  -0.70024  -0.70000  -0.69348
 Alpha  occ. eigenvalues --   -0.69344  -0.69236  -0.69104  -0.67887  -0.67855
 Alpha  occ. eigenvalues --   -0.67819  -0.67792  -0.65512  -0.65492  -0.65476
 Alpha  occ. eigenvalues --   -0.65421  -0.64199  -0.64190  -0.64088  -0.64069
 Alpha  occ. eigenvalues --   -0.61336  -0.60708  -0.60622  -0.60621  -0.60178
 Alpha  occ. eigenvalues --   -0.59634  -0.59394  -0.59347  -0.58274  -0.58268
 Alpha  occ. eigenvalues --   -0.57931  -0.57887  -0.57498  -0.57275  -0.57057
 Alpha  occ. eigenvalues --   -0.56896  -0.56179  -0.56071  -0.56070  -0.55910
 Alpha  occ. eigenvalues --   -0.55580  -0.55563  -0.55523  -0.55475  -0.53360
 Alpha  occ. eigenvalues --   -0.53247  -0.53196  -0.53057  -0.52614  -0.52591
 Alpha  occ. eigenvalues --   -0.52501  -0.52106  -0.51895  -0.51849  -0.51178
 Alpha  occ. eigenvalues --   -0.51142  -0.51083  -0.50969  -0.50709  -0.50691
 Alpha  occ. eigenvalues --   -0.50631  -0.50573  -0.50541  -0.50487  -0.50472
 Alpha  occ. eigenvalues --   -0.50459  -0.49934  -0.49905  -0.49801  -0.49783
 Alpha  occ. eigenvalues --   -0.49176  -0.49156  -0.49120  -0.48970  -0.48878
 Alpha  occ. eigenvalues --   -0.48636  -0.48523  -0.48374  -0.48361  -0.48297
 Alpha  occ. eigenvalues --   -0.48237  -0.48206  -0.47686  -0.47570  -0.47560
 Alpha  occ. eigenvalues --   -0.47527  -0.46786  -0.46755  -0.46745  -0.46722
 Alpha  occ. eigenvalues --   -0.46388  -0.46329  -0.45124  -0.45121  -0.44640
 Alpha  occ. eigenvalues --   -0.44632  -0.44152  -0.43851  -0.43673  -0.43656
 Alpha  occ. eigenvalues --   -0.43644  -0.43542  -0.43496  -0.43356  -0.43312
 Alpha  occ. eigenvalues --   -0.42904  -0.42206  -0.42205  -0.42191  -0.42183
 Alpha  occ. eigenvalues --   -0.41833  -0.41640  -0.41056  -0.40975  -0.40901
 Alpha  occ. eigenvalues --   -0.40881  -0.39950  -0.39911  -0.39883  -0.39784
 Alpha  occ. eigenvalues --   -0.39780  -0.39732  -0.39570  -0.39419  -0.39382
 Alpha  occ. eigenvalues --   -0.39215  -0.38974  -0.38901  -0.38711  -0.38246
 Alpha  occ. eigenvalues --   -0.38012  -0.37898  -0.37647  -0.37128  -0.37088
 Alpha  occ. eigenvalues --   -0.36735  -0.36251  -0.36147  -0.35654  -0.35605
 Alpha  occ. eigenvalues --   -0.35081  -0.34477  -0.34318  -0.34166  -0.33930
 Alpha  occ. eigenvalues --   -0.33916  -0.33531  -0.33423  -0.33319  -0.33121
 Alpha  occ. eigenvalues --   -0.32640  -0.32592  -0.31620  -0.31602  -0.31595
 Alpha  occ. eigenvalues --   -0.31544  -0.31515  -0.31487  -0.31364  -0.31337
 Alpha  occ. eigenvalues --   -0.30986  -0.30956  -0.29833  -0.29830  -0.29583
 Alpha  occ. eigenvalues --   -0.29573  -0.28918  -0.28907  -0.28807  -0.28754
 Alpha  occ. eigenvalues --   -0.28747  -0.28600  -0.25118  -0.25049  -0.25023
 Alpha  occ. eigenvalues --   -0.25004
 Alpha virt. eigenvalues --   -0.10541  -0.10460  -0.10317  -0.10201  -0.09488
 Alpha virt. eigenvalues --   -0.09262  -0.08890  -0.08800  -0.06659  -0.06636
 Alpha virt. eigenvalues --   -0.06487  -0.06466  -0.06185  -0.06072  -0.06051

 Mulliken charges:
               1
     1  Pd   0.485735
     2  Pd   0.485592
     3  C    0.020581
     4  C   -0.072780
     5  C   -0.011017
     6  C    0.004158
     7  C    0.014571
     8  C    0.007500
     9  C    0.028980
    10  C   -0.015389
    11  C    0.145631
    12  N   -0.316359
    13  C    0.181622
    14  C   -0.012127
    15  H    0.042706
    16  H    0.056186
    17  H    0.041861
    18  H    0.053901
    19  H    0.094626
    20  H    0.078885
    21  C   -0.071952
    22  C    0.025623
    23  C   -0.010633
    24  C   -0.014257
    25  C    0.031296
    26  C   -0.011569
    27  H    0.039496
    28  H    0.047231
    29  H    0.041870
    30  H    0.033643
    31  C    0.069480
    32  C   -0.035573
    33  C    0.160435
    34  N   -0.325126
    35  C    0.156844
    36  C   -0.046395
    37  H    0.060562
    38  H    0.100556
    39  H    0.099168
    40  H    0.062722
    41  C    0.020034
    42  C   -0.072212
    43  C   -0.010851
    44  C    0.004149
    45  C    0.014590
    46  C    0.007544
    47  C    0.029232
    48  C   -0.015673
    49  C    0.145892
    50  N   -0.316245
    51  C    0.180604
    52  C   -0.011762
    53  H    0.042703
    54  H    0.056155
    55  H    0.041856
    56  H    0.053883
    57  H    0.094399
    58  H    0.079463
    59  C   -0.071727
    60  C    0.025535
    61  C   -0.010498
    62  C   -0.014600
    63  C    0.031709
    64  C   -0.011867
    65  H    0.039544
    66  H    0.047188
    67  H    0.041908
    68  H    0.033791
    69  C    0.070113
    70  C   -0.036237
    71  C    0.160509
    72  N   -0.325628
    73  C    0.157442
    74  C   -0.046411
    75  H    0.060548
    76  H    0.100453
    77  H    0.099698
    78  H    0.062222
    79  C    0.020602
    80  C   -0.072803
    81  C   -0.011096
    82  C    0.004184
    83  C    0.014637
    84  C    0.007510
    85  C    0.029031
    86  C   -0.015431
    87  C    0.145439
    88  N   -0.316309
    89  C    0.181447
    90  C   -0.012011
    91  H    0.042691
    92  H    0.056135
    93  H    0.041856
    94  H    0.053894
    95  H    0.094667
    96  H    0.079135
    97  C   -0.071843
    98  C    0.025593
    99  C   -0.010636
   100  C   -0.014345
   101  C    0.031436
   102  C   -0.011624
   103  H    0.039489
   104  H    0.047221
   105  H    0.041856
   106  H    0.033648
   107  C    0.069290
   108  C   -0.035544
   109  C    0.160475
   110  N   -0.325017
   111  C    0.156823
   112  C   -0.046177
   113  H    0.060573
   114  H    0.100556
   115  H    0.098831
   116  H    0.062734
   117  C    0.020112
   118  C   -0.072301
   119  C   -0.010854
   120  C    0.004084
   121  C    0.014580
   122  C    0.007563
   123  C    0.029265
   124  C   -0.015761
   125  C    0.146128
   126  N   -0.316290
   127  C    0.181061
   128  C   -0.012020
   129  H    0.042756
   130  H    0.056158
   131  H    0.041823
   132  H    0.053921
   133  H    0.094242
   134  H    0.079175
   135  C   -0.071820
   136  C    0.025527
   137  C   -0.010540
   138  C   -0.014436
   139  C    0.031579
   140  C   -0.011895
   141  H    0.039545
   142  H    0.047189
   143  H    0.041804
   144  H    0.033909
   145  C    0.070219
   146  C   -0.036292
   147  C    0.160429
   148  N   -0.325609
   149  C    0.157439
   150  C   -0.046468
   151  H    0.060593
   152  H    0.100456
   153  H    0.099945
   154  H    0.062127
 Sum of Mulliken charges =   4.00000

 Dipole moment (field-independent basis, Debye):
    X=             -0.0047    Y=             -0.0219    Z=              0.0008  Tot=              0.0224
 Quadrupole moment (field-independent basis, Debye-Ang):
   XX=              2.1674   YY=           -384.9469   ZZ=           -346.0396
   XY=              0.2015   XZ=            -97.2787   YZ=              0.1478

 Normal termination of Gaussian 16 at Fri Feb 26 13:22:02 2021.
